[Molden Format]
[Title]
 Molden file created by orca_2mkl for BaseName=h-shift_019

[Atoms] AU
C    1   6          0.0197381895         0.0203353429        -0.2952054577 
H    2   1          1.9626752319         0.0249878487        -0.9378843083 
C    3   6          4.8450423786         0.0239144842         2.8558372815 
C    4   6          3.8483743594        -2.2189409929         3.4036273138 
C    5   6          1.2048610371        -3.0351836300         3.1458063082 
C    6   6         -0.4496527747        -2.1552326557         1.4625875564 
H    7   1         -1.2049914282        -0.0249991870        -1.9285448882 
H    8   1         -0.2943191762         1.8059035518         0.6701686967 
H    9   1          3.7363608428         1.6395811958         2.3556740170 
H   10   1          6.8516764198         0.3058351672         2.8790506774 
H   11   1          5.1143623677        -3.6902288484         4.0116334693 
H   12   1          0.6508859312        -4.6077305707         4.3120451225 
H   13   1         -2.2556810484        -3.0776382173         1.3095726519 
[GTO]
  1 0
s   6 1.0 
     3047.5249000000         0.5363343823
      457.3695100000         0.9894506076
      103.9486900000         1.5972822308
       29.2101550000         2.0791870615
        9.2866630000         1.7741742532
        3.1639270000         0.6125798260
s   3 1.0 
        7.8682724000        -0.3995563516
        1.8812885000        -0.1841552393
        0.5442493000         0.5163903794
p   3 1.0 
        7.8682724000         1.2960827175
        1.8812885000         0.9937536282
        0.5442493000         0.4959527138
s   1 1.0 
        0.1687144000         0.1876178721
p   1 1.0 
        0.1687144000         0.1541275509

  2 0
s   3 1.0 
       18.7311370000         0.2149354183
        2.8253937000         0.3645711272
        0.6401217000         0.4150514277
s   1 1.0 
        0.1612778000         0.1813806839

  3 0
s   6 1.0 
     3047.5249000000         0.5363343823
      457.3695100000         0.9894506076
      103.9486900000         1.5972822308
       29.2101550000         2.0791870615
        9.2866630000         1.7741742532
        3.1639270000         0.6125798260
s   3 1.0 
        7.8682724000        -0.3995563516
        1.8812885000        -0.1841552393
        0.5442493000         0.5163903794
p   3 1.0 
        7.8682724000         1.2960827175
        1.8812885000         0.9937536282
        0.5442493000         0.4959527138
s   1 1.0 
        0.1687144000         0.1876178721
p   1 1.0 
        0.1687144000         0.1541275509

  4 0
s   6 1.0 
     3047.5249000000         0.5363343823
      457.3695100000         0.9894506076
      103.9486900000         1.5972822308
       29.2101550000         2.0791870615
        9.2866630000         1.7741742532
        3.1639270000         0.6125798260
s   3 1.0 
        7.8682724000        -0.3995563516
        1.8812885000        -0.1841552393
        0.5442493000         0.5163903794
p   3 1.0 
        7.8682724000         1.2960827175
        1.8812885000         0.9937536282
        0.5442493000         0.4959527138
s   1 1.0 
        0.1687144000         0.1876178721
p   1 1.0 
        0.1687144000         0.1541275509

  5 0
s   6 1.0 
     3047.5249000000         0.5363343823
      457.3695100000         0.9894506076
      103.9486900000         1.5972822308
       29.2101550000         2.0791870615
        9.2866630000         1.7741742532
        3.1639270000         0.6125798260
s   3 1.0 
        7.8682724000        -0.3995563516
        1.8812885000        -0.1841552393
        0.5442493000         0.5163903794
p   3 1.0 
        7.8682724000         1.2960827175
        1.8812885000         0.9937536282
        0.5442493000         0.4959527138
s   1 1.0 
        0.1687144000         0.1876178721
p   1 1.0 
        0.1687144000         0.1541275509

  6 0
s   6 1.0 
     3047.5249000000         0.5363343823
      457.3695100000         0.9894506076
      103.9486900000         1.5972822308
       29.2101550000         2.0791870615
        9.2866630000         1.7741742532
        3.1639270000         0.6125798260
s   3 1.0 
        7.8682724000        -0.3995563516
        1.8812885000        -0.1841552393
        0.5442493000         0.5163903794
p   3 1.0 
        7.8682724000         1.2960827175
        1.8812885000         0.9937536282
        0.5442493000         0.4959527138
s   1 1.0 
        0.1687144000         0.1876178721
p   1 1.0 
        0.1687144000         0.1541275509

  7 0
s   3 1.0 
       18.7311370000         0.2149354183
        2.8253937000         0.3645711272
        0.6401217000         0.4150514277
s   1 1.0 
        0.1612778000         0.1813806839

  8 0
s   3 1.0 
       18.7311370000         0.2149354183
        2.8253937000         0.3645711272
        0.6401217000         0.4150514277
s   1 1.0 
        0.1612778000         0.1813806839

  9 0
s   3 1.0 
       18.7311370000         0.2149354183
        2.8253937000         0.3645711272
        0.6401217000         0.4150514277
s   1 1.0 
        0.1612778000         0.1813806839

 10 0
s   3 1.0 
       18.7311370000         0.2149354183
        2.8253937000         0.3645711272
        0.6401217000         0.4150514277
s   1 1.0 
        0.1612778000         0.1813806839

 11 0
s   3 1.0 
       18.7311370000         0.2149354183
        2.8253937000         0.3645711272
        0.6401217000         0.4150514277
s   1 1.0 
        0.1612778000         0.1813806839

 12 0
s   3 1.0 
       18.7311370000         0.2149354183
        2.8253937000         0.3645711272
        0.6401217000         0.4150514277
s   1 1.0 
        0.1612778000         0.1813806839

 13 0
s   3 1.0 
       18.7311370000         0.2149354183
        2.8253937000         0.3645711272
        0.6401217000         0.4150514277
s   1 1.0 
        0.1612778000         0.1813806839

[5D]
[7F]
[9G]
[MO]
 Sym=     1a
 Ene= -1.12360486421813E+01
 Spin= Alpha
 Occup= 2.000000
  1      -0.000923613283
  2       0.000026102765
  3       0.000005577185
  4      -0.000059001131
  5       0.000056586308
  6      -0.000184555028
  7       0.000360959853
  8       0.000322432307
  9      -0.000308907975
 10       0.000112899480
 11      -0.000577466435
 12      -0.056068262214
 13      -0.000569102177
 14      -0.000091375900
 15      -0.000176512385
 16       0.000085252495
 17      -0.005457073778
 18       0.001941162670
 19       0.001981714491
 20      -0.000444275585
 21      -0.990499338578
 22      -0.024781880197
 23       0.000052901188
 24      -0.000143013829
 25       0.000105935094
 26       0.017244434322
 27      -0.001322389556
 28       0.001668563704
 29      -0.000867754039
 30      -0.051008194774
 31      -0.000579172716
 32       0.000170554707
 33       0.000073351552
 34       0.000020952478
 35      -0.003992504904
 36      -0.002247452934
 37      -0.001411769759
 38      -0.000007940054
 39      -0.073702539569
 40      -0.001567951022
 41       0.000184516364
 42      -0.000038738060
 43       0.000063679308
 44       0.001210229546
 45      -0.000454087352
 46       0.000409035906
 47      -0.000295054283
 48       0.000005680031
 49      -0.000001130121
 50       0.000002072268
 51      -0.000021436538
 52       0.000272477561
 53       0.000282340425
 54       0.000081115262
 55      -0.000494410097
 56       0.000260420430
 57      -0.002102249316
 58       0.000086026790
 59      -0.000442006625
 60      -0.000031975902
 61      -0.000573215293
 Sym=     1a
 Ene= -1.12356792459778E+01
 Spin= Alpha
 Occup= 2.000000
  1       0.015404881356
  2      -0.000014185010
  3       0.000029694636
  4       0.000155738340
  5      -0.000031563360
  6       0.003659181639
  7       0.000070981181
  8      -0.002186414500
  9       0.001409901728
 10      -0.000195511131
 11       0.000142211347
 12      -0.004922366051
 13      -0.000079877659
 14       0.000028595907
 15      -0.000036912838
 16       0.000003176028
 17      -0.000047309292
 18      -0.000110180510
 19       0.000271394134
 20      -0.000038765282
 21      -0.078321708930
 22      -0.002139836465
 23       0.000179579279
 24       0.000039571929
 25       0.000055950191
 26       0.000747864469
 27       0.000188463333
 28      -0.000168486236
 29       0.000123952480
 30       0.096978463069
 31       0.001466736402
 32       0.000140058776
 33      -0.000124531704
 34       0.000176124277
 35       0.005107154416
 36      -0.001092666310
 37       0.001923581427
 38      -0.002384858401
 39       0.988171070877
 40       0.024695640775
 41       0.000177675011
 42       0.000037068734
 43       0.000069810802
 44      -0.017254218584
 45      -0.002310862649
 46      -0.000947614189
 47      -0.000191860476
 48      -0.000089014183
 49       0.000181544296
 50      -0.000202764674
 51       0.000904480342
 52       0.000020232810
 53      -0.000373980547
 54       0.000011597358
 55       0.000053258255
 56       0.000012684974
 57      -0.000178227875
 58      -0.000045597206
 59       0.000773508290
 60      -0.000269281198
 61       0.002027826497
 Sym=     1a
 Ene= -1.12274979201006E+01
 Spin= Alpha
 Occup= 2.000000
  1      -0.003341605198
  2      -0.000073996418
  3       0.000014138919
  4       0.000109700728
  5      -0.000142074282
  6      -0.001757349235
  7      -0.000255066603
  8       0.000656402130
  9      -0.000376541153
 10       0.000057730431
 11       0.000172227249
 12      -0.007333163537
 13      -0.000329838375
 14       0.000157776123
 15       0.000125817194
 16      -0.000055001761
 17      -0.000833047939
 18       0.000020855518
 19      -0.000080387342
 20       0.000261651687
 21      -0.043309255709
 22      -0.001730756329
 23       0.000163563415
 24       0.000037282318
 25       0.000034371646
 26       0.006088763393
 27      -0.002904410989
 28       0.000032360544
 29      -0.000972593519
 30       0.990113640120
 31       0.025142789803
 32       0.000091637900
 33       0.000164305277
 34      -0.000243005547
 35      -0.019571924112
 36      -0.000897164132
 37      -0.002653884916
 38       0.002526902050
 39      -0.101175601853
 40      -0.003562010764
 41      -0.000203453856
 42       0.000027310069
 43      -0.000130513380
 44       0.009424814166
 45       0.003498687799
 46       0.000207178456
 47       0.001452504153
 48       0.000060598398
 49       0.000151598979
 50       0.000023592977
 51      -0.000147418381
 52      -0.000036395212
 53       0.000301693319
 54       0.000047452369
 55       0.000325127204
 56      -0.000071610406
 57       0.000354428794
 58      -0.000298145219
 59       0.001678806437
 60      -0.000005520324
 61       0.000342217700
 Sym=     1a
 Ene= -1.12213568747742E+01
 Spin= Alpha
 Occup= 2.000000
  1      -0.000410674142
  2      -0.000053271428
  3      -0.000011209129
  4      -0.000009421633
  5      -0.000121823469
  6       0.000014295953
  7      -0.000376105994
  8      -0.000083454462
  9       0.000814271218
 10      -0.000163672063
 11       0.001152225203
 12       0.994519179000
 13       0.024836860396
 14      -0.000093905228
 15      -0.000203743254
 16      -0.000029157571
 17      -0.016612700257
 18       0.000945795783
 19       0.001676623648
 20      -0.000162397749
 21      -0.057128190241
 22      -0.002261762763
 23      -0.000123137088
 24      -0.000290037871
 25       0.000049863054
 26       0.006833702037
 27       0.001176495523
 28       0.002808921121
 29      -0.000711431294
 30       0.004890654220
 31       0.000021561691
 32      -0.000110235725
 33      -0.000081373747
 34      -0.000001538995
 35      -0.000450377461
 36       0.000392131820
 37       0.000013568806
 38       0.000117209154
 39       0.000007081410
 40       0.000037556839
 41      -0.000039872488
 42      -0.000018775102
 43      -0.000015783812
 44      -0.000194104813
 45       0.000044313543
 46      -0.000439991735
 47       0.000344644310
 48       0.000025844394
 49       0.000280293580
 50       0.000013142326
 51      -0.000526701067
 52      -0.000129431864
 53       0.002731483364
 54      -0.000211009024
 55       0.002651456882
 56      -0.000114853954
 57      -0.000003290780
 58       0.000037047734
 59       0.000217189503
 60      -0.000007312730
 61      -0.000031338791
 Sym=     1a
 Ene= -1.12149584753738E+01
 Spin= Alpha
 Occup= 2.000000
  1      -0.996079229182
  2      -0.026143150845
  3       0.000007067380
  4      -0.000005728419
  5      -0.000106050000
  6       0.019224911011
  7      -0.000079063884
  8      -0.000719232384
  9       0.000890303246
 10      -0.000075475084
 11      -0.003239796977
 12      -0.000407454614
 13       0.000034750644
 14      -0.000144535749
 15       0.000007409431
 16      -0.000008033334
 17      -0.000283998603
 18       0.000812254266
 19       0.000285233889
 20      -0.000074951609
 21      -0.000133253401
 22      -0.000015512783
 23      -0.000047741355
 24       0.000042187795
 25      -0.000039384653
 26       0.000516805545
 27       0.000027772220
 28       0.000420071623
 29      -0.000176841279
 30      -0.001768946578
 31       0.000154302174
 32      -0.000051944377
 33       0.000093104661
 34      -0.000117827404
 35      -0.000637155921
 36       0.000492098321
 37      -0.000407031735
 38       0.000605781378
 39       0.015854284168
 40       0.000826922446
 41       0.000011154158
 42       0.000110148776
 43      -0.000111365044
 44      -0.004071574952
 45      -0.000095466342
 46      -0.002230356282
 47       0.002012933831
 48      -0.000036876068
 49      -0.003098745554
 50      -0.000073148755
 51      -0.003325408115
 52       0.000043947065
 53       0.000075255263
 54      -0.000061000705
 55      -0.000502693953
 56       0.000025748006
 57       0.000018678660
 58      -0.000032259259
 59      -0.000442392431
 60       0.000134698737
 61      -0.000052081912
 Sym=     1a
 Ene= -1.10067917190839E+00
 Spin= Alpha
 Occup= 2.000000
  1       0.068974739616
  2      -0.127943348523
  3      -0.001557083368
  4       0.032115403825
  5      -0.030155624975
  6      -0.121696281858
  7      -0.007225939717
  8       0.003728248774
  9      -0.010727142666
 10      -0.039004149153
 11      -0.001428698968
 12       0.075050783637
 13      -0.146537793908
 14       0.033873569973
 15       0.056124930973
 16      -0.010246992982
 17      -0.099825677095
 18      -0.000845237656
 19       0.003063553415
 20       0.001101568562
 21       0.110207984194
 22      -0.218618145890
 23       0.031808468587
 24      -0.028905722227
 25       0.020628219907
 26      -0.138661938884
 27       0.006129319913
 28       0.000075267920
 29       0.002620423353
 30       0.125738088753
 31      -0.248059446094
 32       0.001412424250
 33      -0.041434385021
 34       0.047311262356
 35      -0.163555211255
 36      -0.004087595217
 37      -0.003897287561
 38       0.003188606880
 39       0.113882342298
 40      -0.226155382444
 41      -0.060083761795
 42       0.004332610646
 43      -0.034144900105
 44      -0.136871930667
 45       0.003861839292
 46       0.004326290102
 47      -0.002041060090
 48      -0.031994524582
 49      -0.005260127774
 50      -0.035157263118
 51      -0.000223451493
 52      -0.039606615014
 53      -0.007059910916
 54      -0.032913001962
 55      -0.001630429535
 56      -0.053000545015
 57      -0.008268425040
 58      -0.058721351190
 59      -0.008241695066
 60      -0.052922692283
 61      -0.004189721604
 Sym=     1a
 Ene= -1.02086433420848E+00
 Spin= Alpha
 Occup= 2.000000
  1      -0.099889902894
  2       0.189977472358
  3      -0.010270179571
  4      -0.030464261176
  5       0.024223136331
  6       0.177708387366
  7      -0.003094408739
  8      -0.000899884542
  9       0.001666321930
 10       0.053397241390
 11       0.005329435989
 12       0.121840147266
 13      -0.239087171577
 14       0.026076257828
 15       0.078659813479
 16      -0.020816608995
 17      -0.184677414395
 18       0.004317946510
 19       0.003046337961
 20      -0.000835097167
 21       0.116200097688
 22      -0.232069371395
 23      -0.054918624957
 24      -0.076381814436
 25       0.013651745652
 26      -0.160807132187
 27      -0.011839130140
 28       0.004447960322
 29      -0.004385117540
 30      -0.020601713887
 31       0.040968102256
 32      -0.097834304420
 33       0.005934666614
 34      -0.052932046890
 35       0.025482084326
 36      -0.014459921750
 37      -0.011653788822
 38       0.001205106226
 39      -0.101542835207
 40       0.201600728327
 41       0.012806836678
 42       0.021502020241
 43      -0.013611025606
 44       0.148299917251
 45       0.003313203765
 46       0.005918574288
 47      -0.003670701184
 48       0.059278209024
 49       0.008773473960
 50       0.057908223808
 51       0.005512741516
 52      -0.061683500777
 53      -0.005855852975
 54      -0.069669214015
 55      -0.016015805361
 56      -0.068929825622
 57      -0.011606050366
 58       0.010058822158
 59      -0.003825291827
 60       0.062465986451
 61       0.016569156129
 Sym=     1a
 Ene= -9.41251884199450E-01
 Spin= Alpha
 Occup= 2.000000
  1       0.138840441483
  2      -0.261199778907
  3      -0.000214447160
  4      -0.020716472254
  5       0.016055696825
  6      -0.293814140751
  7      -0.002384859350
  8      -0.002129201996
  9      -0.003643293973
 10      -0.099037577324
 11      -0.022419861440
 12       0.079230473367
 13      -0.155082144069
 14       0.001828975674
 15       0.012068844237
 16      -0.000911504554
 17      -0.136083925582
 18       0.003170623044
 19      -0.001935189753
 20       0.003952597836
 21       0.003285519564
 22      -0.005444923944
 23      -0.096010348744
 24      -0.088720403106
 25       0.011888173225
 26      -0.002212081554
 27      -0.019991321922
 28      -0.005902137847
 29      -0.002054227500
 30      -0.118765816993
 31       0.236270416686
 32      -0.036898952931
 33      -0.012341570589
 34      -0.017029838255
 35       0.184174314487
 36      -0.002309877093
 37      -0.015531640172
 38       0.008451541378
 39      -0.029784978822
 40       0.056037841992
 41       0.048007125430
 42      -0.114242110394
 43       0.128171203249
 44       0.074431980133
 45       0.011181251003
 46      -0.009572896877
 47       0.015629489155
 48      -0.101215381601
 49      -0.028046971161
 50      -0.099710683990
 51      -0.024399394964
 52      -0.059737465516
 53      -0.017473748625
 54      -0.057679113444
 55      -0.018574977766
 56       0.001803447084
 57       0.004653676935
 58       0.091198492274
 59       0.025221466759
 60       0.020634846717
 61       0.007375784291
 Sym=     1a
 Ene= -8.13792995144080E-01
 Spin= Alpha
 Occup= 2.000000
  1       0.059915074988
  2      -0.113599103950
  3      -0.015456747448
  4      -0.064145694705
  5       0.052090641112
  6      -0.145904214063
  7       0.002913609247
  8      -0.014961537558
  9       0.017593175958
 10      -0.059019904736
 11      -0.023059062934
 12      -0.102101430182
 13       0.203282300419
 14       0.041131287897
 15       0.079938518621
 16      -0.019452496990
 17       0.190013546839
 18       0.015313304588
 19       0.032134587441
 20      -0.007953725323
 21       0.086107050949
 22      -0.175904637719
 23       0.079481839571
 24       0.151413048590
 25      -0.035120631769
 26      -0.162678928975
 27       0.019711602776
 28       0.050434307058
 29      -0.012839910956
 30       0.030236978705
 31      -0.063084724301
 32      -0.193228749028
 33       0.027706375574
 34      -0.099676387891
 35      -0.052085645888
 36      -0.045347982984
 37       0.007506672670
 38      -0.024370300926
 39      -0.091850423546
 40       0.183947206914
 41      -0.037839405893
 42      -0.066500669711
 43       0.048155162880
 44       0.178446934811
 45      -0.024187721116
 46      -0.010592721128
 47       0.000362357179
 48      -0.062144767216
 49      -0.020937175392
 50      -0.059751211814
 51      -0.023950035537
 52       0.109183590136
 53       0.042320570318
 54       0.113321318576
 55       0.048433293907
 56      -0.108710588928
 57      -0.044930860406
 58      -0.040030634741
 59      -0.018024708399
 60       0.107502661583
 61       0.043669510958
 Sym=     1a
 Ene= -7.17705247893528E-01
 Spin= Alpha
 Occup= 2.000000
  1       0.021125077997
  2      -0.037008199703
  3      -0.094867316671
  4      -0.109983508239
  5       0.041697751027
  6      -0.061959803409
  7      -0.036761441039
  8      -0.039684469164
  9       0.011885319617
 10      -0.079392419644
 11      -0.043657967283
 12       0.039140541617
 13      -0.078404709672
 14       0.025932796363
 15      -0.197354757959
 16       0.061310514814
 17      -0.080669775134
 18       0.005885822775
 19      -0.064639858424
 20       0.022104534243
 21      -0.069829854988
 22       0.141937845952
 23       0.178637077967
 24      -0.026782411382
 25       0.031909403831
 26       0.140546320541
 27       0.059488325289
 28      -0.039899375867
 29       0.021522005785
 30       0.077920979839
 31      -0.159386058111
 32       0.004829753110
 33       0.029584377294
 34      -0.040389476614
 35      -0.154283762943
 36      -0.003050574599
 37       0.034688703781
 38      -0.035288981189
 39      -0.073667109353
 40       0.149924031347
 41      -0.159461312860
 42       0.002397165457
 43      -0.097602590623
 44       0.154420380454
 45      -0.070860836699
 46      -0.006028215910
 47      -0.038445273005
 48      -0.003281850237
 49       0.000909324507
 50      -0.053801557276
 51      -0.029476656128
 52      -0.142502665738
 53      -0.087511957461
 54      -0.040707678312
 55      -0.019825119680
 56       0.141615979980
 57       0.068042163797
 58      -0.101675150934
 59      -0.041257570839
 60       0.151973604053
 61       0.076656034785
 Sym=     1a
 Ene= -6.67511982209949E-01
 Spin= Alpha
 Occup= 2.000000
  1       0.016856779796
  2      -0.030948922211
  3       0.087854895915
  4      -0.067925740390
  5       0.109120467164
  6      -0.050595136183
  7       0.045460570040
  8      -0.023561177071
  9       0.046266458101
 10       0.015723015637
 11       0.009997624820
 12       0.021636637749
 13      -0.042974895399
 14      -0.191372993346
 15      -0.087259579267
 16      -0.004434646820
 17      -0.061106172463
 18      -0.073754447544
 19      -0.021714799745
 20      -0.008187854343
 21      -0.025148799346
 22       0.053791431026
 23      -0.098302387906
 24       0.139949197234
 25      -0.083023285601
 26       0.046928064689
 27      -0.030744442474
 28       0.044102974347
 29      -0.028867678776
 30       0.020787839535
 31      -0.040066286539
 32       0.066171340213
 33       0.231988029788
 34      -0.167778702951
 35      -0.053213141526
 36       0.024714591231
 37       0.097225035694
 38      -0.069233748379
 39      -0.023574590122
 40       0.049386309194
 41       0.168637770057
 42       0.089706846689
 43       0.013947580948
 44       0.035159767451
 45       0.051259529647
 46       0.037396422339
 47      -0.004074361197
 48      -0.095937577098
 49      -0.057698945176
 50      -0.027495511567
 51      -0.015854237533
 52      -0.000890351773
 53      -0.006064971374
 54      -0.136857008375
 55      -0.085820229388
 56      -0.080360580409
 57      -0.058996452557
 58      -0.187966067020
 59      -0.114150021338
 60      -0.082832418217
 61      -0.058380146144
 Sym=     1a
 Ene= -6.03065337066768E-01
 Spin= Alpha
 Occup= 2.000000
  1       0.010648465255
  2      -0.020339901989
  3      -0.165694736334
  4      -0.029776107072
  5      -0.012123360411
  6      -0.031536674168
  7      -0.072368253590
  8      -0.014321500590
  9       0.001282943721
 10      -0.098121758639
 11      -0.066099712430
 12      -0.007512324347
 13       0.016524724280
 14      -0.259232110871
 15       0.101297450903
 16      -0.021941003107
 17       0.030174608643
 18      -0.118987430735
 19       0.046903125552
 20      -0.007200469915
 21      -0.015055612070
 22       0.034800629340
 23      -0.193467245945
 24       0.067673022444
 25      -0.007236382422
 26       0.024580043997
 27      -0.068688758319
 28       0.015780365292
 29       0.008329224438
 30       0.009860739299
 31      -0.022162355123
 32       0.169540556963
 33      -0.036978594010
 34       0.156147244336
 35       0.010436983805
 36       0.050788066295
 37       0.005120963137
 38       0.044020240100
 39       0.003327447158
 40      -0.009252095113
 41      -0.246519170438
 42       0.021217912779
 43      -0.122597132317
 44      -0.001140912945
 45      -0.108156927653
 46       0.000917455068
 47      -0.043783038723
 48       0.059575764244
 49       0.050051420297
 50      -0.010343805446
 51      -0.002187978879
 52       0.142417045738
 53       0.091937453349
 54      -0.141161138061
 55      -0.098334634805
 56      -0.088729697108
 57      -0.070936601722
 58       0.034005282246
 59       0.032456563730
 60       0.134581465775
 61       0.093787232745
 Sym=     1a
 Ene= -5.84701212995307E-01
 Spin= Alpha
 Occup= 2.000000
  1      -0.006549812480
  2       0.007601176247
  3      -0.017571076171
  4       0.178995233912
  5      -0.127296456822
  6       0.037120655108
  7      -0.010174423099
  8       0.074872562355
  9      -0.052702201247
 10       0.018157792471
 11       0.010543990896
 12      -0.007253778248
 13       0.019385001162
 14      -0.150707374621
 15      -0.283492227105
 16       0.078500978687
 17      -0.016659826037
 18      -0.050637453649
 19      -0.101714347910
 20       0.030943558543
 21      -0.007943947486
 22       0.018877775315
 23       0.123703193243
 24       0.307826309003
 25      -0.053291928658
 26      -0.003766954307
 27       0.030463012111
 28       0.111304812462
 29      -0.018183984482
 30      -0.010286223922
 31       0.020399644077
 32      -0.201178110794
 33      -0.047813212482
 34       0.009796586559
 35       0.021405948629
 36      -0.082762563113
 37      -0.019967797747
 38       0.010234277680
 39       0.024446812434
 40      -0.049780051128
 41      -0.025906581413
 42      -0.142400598744
 43       0.158431359906
 44      -0.084815978732
 45      -0.016865972418
 46      -0.055753025053
 47       0.064275568829
 48       0.075990016886
 49       0.055981347301
 50       0.067717971624
 51       0.051167876666
 52      -0.095281109671
 53      -0.069527776093
 54      -0.112928723591
 55      -0.088859151749
 56      -0.095855637879
 57      -0.071516603584
 58       0.073864353306
 59       0.051339372902
 60       0.017256793509
 61       0.015538780940
 Sym=     1a
 Ene= -5.67539354463272E-01
 Spin= Alpha
 Occup= 2.000000
  1       0.000468370485
  2      -0.001930671877
  3      -0.117996746372
  4       0.241767358518
  5       0.316478901879
  6      -0.000745642040
  7      -0.060469541948
  8       0.123979908965
  9       0.158483126718
 10      -0.143373846259
 11      -0.112392864630
 12       0.004673057802
 13      -0.009228823620
 14       0.023204846600
 15       0.020440585343
 16       0.020883415613
 17      -0.013104004642
 18       0.005315129930
 19       0.004004053945
 20       0.017433287631
 21      -0.001015624569
 22       0.002649564293
 23       0.025869954910
 24      -0.029993299615
 25       0.048515445963
 26       0.003571556485
 27       0.011499081105
 28      -0.014801560063
 29       0.024802238469
 30       0.002955997537
 31      -0.003721088821
 32      -0.034470910741
 33       0.045355305187
 34       0.046128043631
 35      -0.021755518367
 36      -0.017166059557
 37       0.021877954852
 38       0.039796498999
 39      -0.005459424747
 40       0.008963241101
 41      -0.025355221799
 42       0.102208184943
 43       0.084155432911
 44       0.029348573894
 45      -0.006232800375
 46       0.048670158479
 47       0.047035372256
 48      -0.127152025744
 49      -0.098534096108
 50       0.252924852651
 51       0.197141764516
 52       0.002088583511
 53       0.012031829742
 54       0.011551887061
 55       0.011445300013
 56       0.036988008173
 57       0.027193108002
 58      -0.002325378120
 59      -0.005285582842
 60      -0.013745621587
 61      -0.011373683147
 Sym=     1a
 Ene= -5.41949494514361E-01
 Spin= Alpha
 Occup= 2.000000
  1       0.006047263858
  2      -0.015698287672
  3       0.307334320111
  4       0.065889919191
  5       0.063166058831
  6       0.007099115830
  7       0.174393057110
  8       0.029858782264
  9       0.046888589748
 10       0.184354927645
 11       0.143192416485
 12       0.012190986443
 13      -0.026937754859
 14      -0.169077656059
 15       0.072341383449
 16      -0.043572214327
 17      -0.013316389912
 18      -0.105029801762
 19       0.033203996516
 20      -0.029749859046
 21      -0.008036895416
 22       0.014851178444
 23       0.133829748558
 24      -0.087460326736
 25       0.040332159452
 26       0.015472110215
 27       0.083668995362
 28      -0.064088812564
 29       0.027083594720
 30       0.035223016708
 31      -0.078531832375
 32      -0.069063574533
 33      -0.102129437558
 34       0.028361924280
 35      -0.072052539021
 36      -0.017182040407
 37      -0.023184946790
 38      -0.004392328300
 39      -0.007975670475
 40       0.015895117889
 41      -0.112049072209
 42      -0.098928267746
 43       0.003003870478
 44       0.016101339451
 45      -0.074213165362
 46      -0.064462424572
 47       0.002190323357
 48      -0.173227334008
 49      -0.133109656371
 50       0.023690761516
 51       0.020371856916
 52       0.112943293760
 53       0.087117502221
 54      -0.126245180538
 55      -0.089984358220
 56       0.121442054279
 57       0.082782712861
 58       0.033013031722
 59       0.042557985276
 60       0.109535025655
 61       0.073284034220
 Sym=     1a
 Ene= -5.07088057534502E-01
 Spin= Alpha
 Occup= 2.000000
  1       0.016834586808
  2      -0.037623517852