
                                 *****************
                                 * O   R   C   A *
                                 *****************

                                            #,                                       
                                            ###                                      
                                            ####                                     
                                            #####                                    
                                            ######                                   
                                           ########,                                 
                                     ,,################,,,,,                         
                               ,,#################################,,                 
                          ,,##########################################,,             
                       ,#########################################, ''#####,          
                    ,#############################################,,   '####,        
                  ,##################################################,,,,####,       
                ,###########''''           ''''###############################       
              ,#####''   ,,,,##########,,,,          '''####'''          '####       
            ,##' ,,,,###########################,,,                        '##       
           ' ,,###''''                  '''############,,,                           
         ,,##''                                '''############,,,,        ,,,,,,###''
      ,#''                                            '''#######################'''  
     '                                                          ''''####''''         
             ,#######,   #######,   ,#######,      ##                                
            ,#'     '#,  ##    ##  ,#'     '#,    #''#        ,####,    ,#,          
            ##       ##  ##   ,#'  ##            #'  '#       #'       ,# #          
            ##       ##  #######   ##           ,######,      #####,      #          
            '#,     ,#'  ##    ##  '#,     ,#' ,#      #,     #,   #      #          
             '#######'   ##     ##  '#######'  #'      '#     '####' #    #          



                #########################################################
                #                        -***-                          #
                #          Department of theory and spectroscopy        #
                #                                                       #
                #                      Frank Neese                      #
                #                                                       #
                #     Directorship, Architecture, Infrastructure        #
                #                    SHARK, DRIVERS                     #
                #        Core code/Algorithms in most modules           #
                #                                                       #
                #        Max Planck Institute fuer Kohlenforschung      #
                #                Kaiser Wilhelm Platz 1                 #
                #                 D-45470 Muelheim/Ruhr                 #
                #                      Germany                          #
                #                                                       #
                #                  All rights reserved                  #
                #                        -***-                          #
                #########################################################


                         Program Version 6.1.0  -  RELEASE   -
                                (GIT: $679e74b$)
                          ($2025-06-10 18:02:51 +0200$)


 With contributions from (in alphabetic order):
[Max-Planck-Institut fuer Kohlenforschung]                               
  Daniel Aravena         : Magnetic Suceptibility                        
  Michael Atanasov       : Ab Initio Ligand Field Theory (pilot matlab implementation)
  Alexander A. Auer      : GIAO ZORA, VPT2 properties, NMR spectrum      
  Ute Becker             : All parallelization in ORCA, NUMFREQ, NUMCALC 
  Giovanni Bistoni       : ED, misc. LED, open-shell LED, HFLD           
  Dmytro Bykov           : pre 5.0 version of the SCF Hessian            
  Marcos Casanova-Páez   : Triplet and SCS-CIS(D). UHF-(DLPNO)-IP/EA/STEOM-CCSD. UHF-CVS-IP/STEOM-CCSD   
  Vijay G. Chilkuri      : MRCI spin determinant printing, contributions to CSF-ICE 
  Pauline Colinet        : FMM embedding                                 
  Dipayan Datta          : RHF DLPNO-CCSD density                        
  Achintya Kumar Dutta   : EOM-CC, STEOM-CC                              
  Nicolas Foglia         : Exact transition moments, OPA infrastructure, MCD improvements    
  Dmitry Ganyushin       : Spin-Orbit,Spin-Spin,Magnetic field MRCI      
  Miquel Garcia-Rates    : C-PCM and meta-GGA Hessian, CCSD/C-PCM, Gaussian charge scheme 
  Tiago L. C. Gouveia    : GS-ROHF, GS-ROCIS                             
  Yang Guo               : DLPNO-NEVPT2, F12-NEVPT2, CIM, IAO-localization        
  Andreas Hansen         : Spin unrestricted coupled pair/coupled cluster methods 
  Ingolf Harden          : AUTO-CI MPn and infrastructure                
  Benjamin Helmich-Paris : MC-RPA, TRAH-(SCF,CASSCF), AVAS, COSX integrals, SCF dyn. polar., MC-PDFT, srDFT 
  Lee Huntington         : MR-EOM, pCC                                   
  Robert Izsak           : Overlap fitted RIJCOSX, COSX-SCS-MP3, EOM     
  Riya Kayal             : Wick's Theorem for AUTO-CI, AUTO-CI UHF-CCSDT 
  Emily Kempfer          : AUTO-CI RHF CISDT and CCSDT, approximate NEVPT4
  Christian Kollmar      : KDIIS, OOCD, Brueckner-CCSD(T), CCSD density, CASPT2, CASPT2-K, improved NEVPT2 
  Axel Koslowski         : Symmetry handling                             
  Simone Kossmann        : meta-GGA functionals, TD-DFT gradient, OOMP2, (MP2 Hessian; deprecated post 5.0) 
  Lucas Lang             : DCDCAS, Hyperfine gauge corrections, ICE-SOC+SSC
  Marvin Lechner         : AUTO-CI (C++ implementation), FIC-MRCC        
  Spencer Leger          : CASSCF response                               
  Dagmar Lenk            : GEPOL surface, SMD, ORCA-2-JSON               
  Dimitrios Liakos       : Extrapolation schemes; Compound Job, Property file
  Dimitrios Manganas     : Further ROCIS development; embedding schemes. LFT, Crystal Embedding 
  Dimitrios Pantazis     : SARC Basis sets                               
  Anastasios Papadopoulos: AUTO-CI, single reference methods and gradients 
  Taras Petrenko         : pre 6.0 DFT Hessian and TD-DFT gradient,  ECA, NRVS 
  Petra Pikulova         : Analytic Raman intensities                    
  Peter Pinski           : DLPNO-MP2, DLPNO-MP2 Gradient                 
  Shashank Vittal Rao    : ES-AILFT, MagRelax                            
  Christoph Reimann      : Effective Core Potentials                     
  Marius Retegan         : Local ZFS, SOC                                
  Christoph Riplinger    : Optimizer, TS searches, QM/MM, DLPNO-CCSD(T), (RO)-DLPNO pert. Triples 
  Michael Roemelt        : Original ROCIS implementation, recursive CI coupling coefficients
  Masaaki Saitow         : Open-shell DLPNO-CCSD energy and density      
  Barbara Sandhoefer     : DKH picture change effects                    
  Yorick L. A. Schmerwitz: GMF and freeze-and-release deltaSCF, NEB S-IDPP initial path                    
  Kantharuban Sivalingam : CASSCF convergence/infrastructure, NEVPT2, NEVPT3, NEVPT4(SD), FIC-MRCI and CEPA variants
  Bernardo de Souza      : ESD, SOC TD-DFT                               
  Georgi L. Stoychev     : AutoAux, RI-MP2 NMR, DLPNO-MP2 response, X2C  
  Van Anh Tran           : RI-MP2 g-tensors                              
  Willem Van den Heuvel  : Paramagnetic NMR                              
  Zikuan Wang            : NOTCH, Electric field optimization            
  Frank Wennmohs         : Technical directorship and infrastructure     
  Hang Xu                : AUTO-CI-Response properties                   
                                                                         
[FACCTs GmbH]                                                            
  Markus Bursch, Nicolas Foglia, Miquel Garcia-Rates, Ingolf Harden, Hagen Neugebauer, Anastasios Papadopoulos, 
  Christoph Riplinger, Bernardo de Souza, Georgi L. Stoychev                                                    
                                                                 
  APM, various basis sets, CI-OPT, improved COSX, DLPNO-Multilevel,           
  DOCKER, DRACO, updates on ESD, Fragmentator, GOAT, IRC, LR-CPCM, L-BFGS, MBIS, meta-GGA TD-DFT gradient, ML-optimized integration grids, 
  MM, NACMEs, nearIR, NEB, NEB-TS, NL-DFT gradient (VV10), 2- and 3-layer-ONIOM, interface openCOSMO-RS, QMMM,   
  Crystal-QMMM, RESP, rigid body optimization, SF, symmetry and pop. for TD-DFT, various functionals, SOLVATOR                                   
                                                                         
[Other institutions]                                                     
  V. Asgeirsson          : NEB                                           
  Christoph Bannwarth    : sTDA-DFT, sTD-DFT, PBEh-3c, B97-3c, D3        
  Giovanni Bistoni       : ETS/NOCV, ADLD/ADEX, COVALED                  
  Martin Brehm           : Molecular dynamics                            
  Ronald Cardenas        : ETS/NOCV                                      
  Martina Colucci        : COVALED                                       
  Sebastian Ehlert       : rSCAN, r2SCAN, r2SCAN-3c, D4, dhf basis sets  
  Marvin Friede          : D4 for Fr, Ra, Ac-Lr                          
  Lars Goerigk           : TD-DFT with DH, B97 family of functionals     
  Stefan Grimme          : VdW corrections, initial TS optimization, DFT functionals, gCP, sTDA/sTD-DF 
  Waldemar Hujo          : DFT-NL                                        
  H. Jonsson             : NEB                                           
  Holger Kruse           : gCP                                           
  Marcel Mueller         : wB97X-3c, vDZP basis set                      
  Hagen Neugebauer       : wr2SCAN, Native XTB                           
  Gianluca Regni         : ADLD/ADEX                                     
  Tobias Risthaus        : pre 6.0 range-separated hybrid DFT and stability analysis
  Lukas Wittmann         : regularized MP2, r2SCAN double-hybrids, wr2SCAN        
                                                                         
We gratefully acknowledge several colleagues who have allowed us to      
interface, adapt or use parts of their codes:                            
  Ed Valeev, F. Pavosevic, A. Kumar             : LibInt (2-el integral package), F12 methods 
  Garnet Chan, S. Sharma, J. Yang, R. Olivares  : DMRG                   
  Ulf Ekstrom                                   : XCFun DFT Library      
  Mihaly Kallay                                 : mrcc  (arbitrary order and MRCC methods)
  Frank Weinhold                                : gennbo (NPA and NBO analysis)           
  Simon Mueller                                 : openCOSMO-RS                            
  Christopher J. Cramer and Donald G. Truhlar   : smd solvation model                     
  S Lehtola, MJT Oliveira, MAL Marques          : LibXC Library                           
  Liviu Ungur et al                             : ANISO software                          


 Your calculation uses the libint2 library for the computation of 2-el integrals
 For citations please refer to: http://libint.valeyev.net

 Your ORCA version has been built with support for libXC version: 7.0.0
 For citations please refer to: https://libxc.gitlab.io

 This ORCA versions uses:
   CBLAS   interface :  Fast vector & matrix operations
   LAPACKE interface :  Fast linear algebra routines
   SCALAPACK package :  Parallel linear algebra routines
   Shared memory     :  Shared parallel matrices
   BLAS/LAPACK       :  OpenBLAS 0.3.29  USE64BITINT DYNAMIC_ARCH NO_AFFINITY Zen SINGLE_THREADED
        Core in use  :  Zen
   Copyright (c) 2011-2014, The OpenBLAS Project


  ***********************************
  * Starting time: Sun Apr  5 13:02:26 2026
  * Host name:     QC1
  * Process ID:    11713
  * Working dir.:  /home/user/QC/h-shift/split_2
  ***********************************

NOTE: MaxCore=1200 MB was set to SCF,MP2,MDCI,CIPSI,MRCI,RASCI and CIS
      => If you want to overwrite this, your respective input block should be placed after the MaxCore statement
================================================================================

----- Orbital basis set information -----
Your calculation utilizes the basis: 6-31G
   H-He, Li-Ne : W. J. Hehre, R. Ditchfield and J.A. Pople, J. Chem. Phys. 56, 2257 (1972).
                 Note: He and Ne are unpublished basis sets taken from the Gaussian program.
                 Note: Li and B from J. D. Dill and J. A. Pople, J. Chem. Phys. 62, 2921 (1975).
   Na - Ar     : M. M. Francl, W. J. Pietro, W. J. Hehre, J. S. Binkley, M. S. Gordon, 
                 D. J. DeFrees and J. A. Pople, J. Chem. Phys. 77, 3654 (1982).
   K - Zn      : V. A. Rassolov, J. A. Pople, M. A. Ratner, and T. L. Windus, J. Chem. Phys. 109, 1223 (1998).

================================================================================
                                        WARNINGS
                       Please study these warnings very carefully!
================================================================================


================================================================================
                                       INPUT FILE
================================================================================
NAME = h-shift_064.inp
|  1> ! HF 6-31G
|  2> %maxcore 1200
|  3> %pal nprocs 8 end
|  4> * xyz 0 1
|  5> C   -0.37669400   0.01942100   0.03400500
|  6> H    2.03051000   0.00291800   0.04234300
|  7> C    2.41594900   0.01169700   1.05431600
|  8> C    1.86095400  -1.15071800   1.82299100
|  9> C    0.61215000  -1.60058000   1.69519000
| 10> C   -0.32601200  -1.15813600   0.65343100
| 11> H   -0.94823100   0.14539300  -0.86430200
| 12> H    0.15802100   0.88444200   0.36627300
| 13> H    2.09765100   0.95074300   1.49934200
| 14> H    3.49440100   0.01224800   1.01219600
| 15> H    2.53331900  -1.66616600   2.48662300
| 16> H    0.30193800  -2.44416100   2.28826100
| 17> H   -0.97201000  -1.93897600   0.29220000
| 18> *
| 19> 
| 20>                          ****END OF INPUT****
================================================================================

                       ****************************
                       * Single Point Calculation *
                       ****************************

---------------------------------
CARTESIAN COORDINATES (ANGSTROEM)
---------------------------------
  C     -0.376694    0.019421    0.034005
  H      2.030510    0.002918    0.042343
  C      2.415949    0.011697    1.054316
  C      1.860954   -1.150718    1.822991
  C      0.612150   -1.600580    1.695190
  C     -0.326012   -1.158136    0.653431
  H     -0.948231    0.145393   -0.864302
  H      0.158021    0.884442    0.366273
  H      2.097651    0.950743    1.499342
  H      3.494401    0.012248    1.012196
  H      2.533319   -1.666166    2.486623
  H      0.301938   -2.444161    2.288261
  H     -0.972010   -1.938976    0.292200

----------------------------
CARTESIAN COORDINATES (A.U.)
----------------------------
  NO LB      ZA    FRAG     MASS         X           Y           Z
   0 C     6.0000    0    12.011   -0.711848    0.036700    0.064260
   1 H     1.0000    0     1.008    3.837108    0.005514    0.080017
   2 C     6.0000    0    12.011    4.565482    0.022104    1.992368
   3 C     6.0000    0    12.011    3.516693   -2.174542    3.444954
   4 C     6.0000    0    12.011    1.156796   -3.024658    3.203445
   5 C     6.0000    0    12.011   -0.616073   -2.188560    1.234806
   6 H     1.0000    0     1.008   -1.791897    0.274753   -1.633294
   7 H     1.0000    0     1.008    0.298616    1.671353    0.692156
   8 H     1.0000    0     1.008    3.963986    1.796644    2.833346
   9 H     1.0000    0     1.008    6.603461    0.023145    1.912773
  10 H     1.0000    0     1.008    4.787279   -3.148597    4.699036
  11 H     1.0000    0     1.008    0.570580   -4.618795    4.324187
  12 H     1.0000    0     1.008   -1.836833   -3.664134    0.552178

--------------------------------
INTERNAL COORDINATES (ANGSTROEM)
--------------------------------
 C      0   0   0     0.000000000000     0.00000000     0.00000000
 H      1   0   0     2.407275008982     0.00000000     0.00000000
 C      2   1   0     1.082926426998   111.04457733     0.00000000
 C      3   2   1     1.500029778996   109.93139243    56.41884010
 C      4   3   2     1.333499285737   123.97311238   322.20955229
 C      1   2   3     1.331502055143    87.37855761   297.09770189
 H      1   2   3     1.072137562723   122.46427498   171.59830975
 H      1   2   3     1.069852085800    60.30909494    68.52606856
 H      3   2   1     1.086816059688   106.58349749   296.55320010
 H      3   2   1     1.079274346172   108.61378080   180.47402518
 H      4   3   2     1.076182496305   117.12926097   139.82582974
 H      5   4   3     1.076844278225   118.76856977   179.87532433
 H      6   1   2     1.075877482321   117.56842877   225.76262500

---------------------------
INTERNAL COORDINATES (A.U.)
---------------------------
 C      0   0   0     0.000000000000     0.00000000     0.00000000
 H      1   0   0     4.549090496009     0.00000000     0.00000000
 C      2   1   0     2.046434370212   111.04457733     0.00000000
 C      3   2   1     2.834645475029   109.93139243    56.41884010
 C      4   3   2     2.519948449822   123.97311238   322.20955229
 C      1   2   3     2.516174230973    87.37855761   297.09770189
 H      1   2   3     2.026046371437   122.46427498   171.59830975
 H      1   2   3     2.021727445966    60.30909494    68.52606856
 H      3   2   1     2.053784710758   106.58349749   296.55320010
 H      3   2   1     2.039532937632   108.61378080   180.47402518
 H      4   3   2     2.033690188136   117.12926097   139.82582974
 H      5   4   3     2.034940774725   118.76856977   179.87532433
 H      6   1   2     2.033113795239   117.56842877   225.76262500

---------------------
BASIS SET INFORMATION
---------------------
There are 2 groups of distinct atoms

 Group   1 Type C   : 10s4p contracted to 3s2p pattern {631/31}
 Group   2 Type H   : 4s contracted to 2s pattern {31}

Atom   0C    basis set group =>   1
Atom   1H    basis set group =>   2
Atom   2C    basis set group =>   1
Atom   3C    basis set group =>   1
Atom   4C    basis set group =>   1
Atom   5C    basis set group =>   1
Atom   6H    basis set group =>   2
Atom   7H    basis set group =>   2
Atom   8H    basis set group =>   2
Atom   9H    basis set group =>   2
Atom  10H    basis set group =>   2
Atom  11H    basis set group =>   2
Atom  12H    basis set group =>   2


           ************************************************************
           *        Program running with 8 parallel MPI-processes     *
           *              working on a common directory               *
           ************************************************************
------------------------------------------------------------------------------
                             ORCA STARTUP CALCULATIONS
------------------------------------------------------------------------------
------------------------------------------------------------------------------
                   ___                                                        
                  /   \      - P O W E R E D   B Y -                         
                 /     \                                                     
                 |  |  |   _    _      __       _____    __    __             
                 |  |  |  | |  | |    /  \     |  _  \  |  |  /  |          
                  \  \/   | |  | |   /    \    | | | |  |  | /  /          
                 / \  \   | |__| |  /  /\  \   | |_| |  |  |/  /          
                |  |  |   |  __  | /  /__\  \  |    /   |      \           
                |  |  |   | |  | | |   __   |  |    \   |  |\   \          
                \     /   | |  | | |  |  |  |  | |\  \  |  | \   \       
                 \___/    |_|  |_| |__|  |__|  |_| \__\ |__|  \__/        
                                                                              
                      - O R C A' S   B I G   F R I E N D -                    
                                      &                                       
                       - I N T E G R A L  F E E D E R -                       
                                                                              
 v1 FN, 2020, v2 2021, v3 2022-2024                                           
------------------------------------------------------------------------------


----------------------
SHARK INTEGRAL PACKAGE
----------------------

Number of atoms                             ...     13
Number of basis functions                   ...     61
Number of shells                            ...     41
Maximum angular momentum                    ...      1
Integral batch strategy                     ... SHARK/LIBINT Hybrid
RI-J (if used) integral strategy            ... SPLIT-RIJ (Revised 2003 algorithm where possible)
Printlevel                                  ...      1
Contraction scheme used                     ... SEGMENTED contraction
Prescreening option                         ... SCHWARTZ
   Thresh                                   ... 1.000e-10
   Tcut                                     ... 1.000e-11
   Tpresel                                  ... 1.000e-11 
Coulomb Range Separation                    ... NOT USED
Exchange Range Separation                   ... NOT USED
Multipole approximations                    ... NOT USED
Finite Nucleus Model                        ... NOT USED
CABS basis                                  ... NOT available
Auxiliary Coulomb fitting basis             ... NOT available
Auxiliary J/K fitting basis                 ... NOT available
Auxiliary Correlation fitting basis         ... NOT available
Auxiliary 'external' fitting basis          ... NOT available

Checking pre-screening integrals            ... done (  0.0 sec) Dimension = 41
   => SHARK Basis and OBASIS are compatible. Storing Pre-screening
Shell pair information
Shell pair cut-off parameter TPreSel        ...   1.0e-11
Total number of shell pairs                 ...       861
Shell pairs after pre-screening             ...       846
Total number of primitive shell pairs       ...      5382
Primitive shell pairs kept                  ...      3740
          la=0 lb=0:    481 shell pairs
          la=1 lb=0:    310 shell pairs
          la=1 lb=1:     55 shell pairs

Checking whether 4 symmetric matrices of dimension 61 fit in memory
:Max Core in MB      =   1200.00
 MB in use           =      2.04
 MB left             =   1197.96
 MB needed           =      0.06
 Data fit in memory  = YES
Calculating Nuclear repulsion               ... done (  0.0 sec) ENN=    161.569801717782 Eh

Diagonalization of the overlap matrix:
Smallest eigenvalue                        ... 3.408e-03
Time for diagonalization                   ...    0.000 sec
Threshold for overlap eigenvalues          ... 1.000e-07
Number of eigenvalues below threshold      ... 0
Time for construction of square roots      ...    0.000 sec
Total time needed                          ...    0.001 sec

-------------------
DFT GRID GENERATION
-------------------

General Integration Accuracy     IntAcc      ... 4.388
Radial Grid Type                 RadialGrid  ... OptM3 with GC (2021)
Angular Grid (max. ang.)         AngularGrid ... 4 (Lebedev-302)
Angular grid pruning method      GridPruning ... 4 (adaptive)
Weight generation scheme         WeightScheme... mBecke (2022)
Basis function cutoff            BFCut       ... 1.0000e-10
Integration weight cutoff        WCut        ... 1.0000e-14
Partially contracted basis set               ... off
Rotationally invariant grid construction     ... off
Angular grids for H and He will be reduced by one unit

Total number of grid points                  ...    56058
Total number of batches                      ...      882
Average number of points per batch           ...       63
Average number of grid points per atom       ...     4312
Grids setup in   0.2 sec
Initializing property integral containers    ... done (  0.0 sec)

SHARK setup successfully completed in   0.3 seconds

Maximum memory used throughout the entire STARTUP-calculation: 11.9 MB


           ************************************************************
           *        Program running with 8 parallel MPI-processes     *
           *              working on a common directory               *
           ************************************************************
-------------------------------------------------------------------------------
                                 ORCA GUESS
                   Start orbitals & Density for SCF / CASSCF
-------------------------------------------------------------------------------

------------
SCF SETTINGS
------------
Hamiltonian:
 Ab initio Hamiltonian  Method          .... Hartree-Fock(GTOs)


General Settings:
 Integral files         IntName         .... h-shift_064
 Hartree-Fock type      HFTyp           .... RHF
 Total Charge           Charge          ....    0
 Multiplicity           Mult            ....    1
 Number of Electrons    NEL             ....   38
 Basis Dimension        Dim             ....   61
 Nuclear Repulsion      ENuc            ....    161.5698017178 Eh

Convergence Acceleration:
 AO-DIIS                CNVDIIS         .... on
   Start iteration      DIISMaxIt       ....    12
   Startup error        DIISStart       ....  0.200000
   # of expansion vecs  DIISMaxEq       ....     5
   Bias factor          DIISBfac        ....   1.050
   Max. coefficient     DIISMaxC        ....  10.000
 MO-DIIS                CNVKDIIS        .... off
 Trust-Rad. Augm. Hess. CNVTRAH         .... auto
   Auto Start mean grad. ratio tolernc. ....  1.125000
   Auto Start start iteration           ....    50
   Auto Start num. interpolation iter.  ....    10
   Max. Number of Micro iterations      ....    24
   Max. Number of Macro iterations      .... Maxiter - #DIIS iter
   Number of Davidson start vectors     ....     2
   Converg. threshold    (grad. norm)   ....   5.000e-05
   Grad. Scal. Fac. for Micro threshold ....   0.100
   Minimum threshold for Micro iter.    ....   1.000e-02
   NR start threshold (gradient norm)   ....   1.000e-04
   Initial trust radius                 ....   0.400
   Minimum AH scaling param. (alpha)    ....   1.000
   Maximum AH scaling param. (alpha)    .... 1000.000
   Quad. conv. algorithm                .... NR
   White noise on init. David. guess    .... on
   Maximum white noise                  ....   0.010
   Pseudo random numbers                .... off
   Inactive MOs                         .... canonical
   Orbital update algorithm             .... Taylor
   Preconditioner                       .... Diag
   Full preconditioner red. dimension   ....   250
 SOSCF                 CNVSOSCF           .... on
   Start iteration     SOSCFMaxIt         ....   150
   Startup grad/error  SOSCFStart         ....  0.003300
   Hessian update      SOSCFHessUp        .... L-BFGS
   Autom. constraints  SOSCFAutoConstrain .... off
 Level Shifting         CNVShift        .... on
   Level shift para.    LevelShift      ....    0.2500
   Turn off err/grad.   ShiftErr        ....    0.0010
 Zerner damping         CNVZerner       .... off
 Static damping         CNVDamp         .... on
   Fraction old density DampFac         ....    0.7000
   Max. Damping (<1)    DampMax         ....    0.9800
   Min. Damping (>=0)   DampMin         ....    0.0000
   Turn off err/grad.   DampErr         ....    0.1000

SCF Procedure:
 Maximum # iterations   MaxIter         ....   125
 SCF integral mode      SCFMode         .... Direct
   Integral package                     .... SHARK and LIBINT hybrid scheme
 Reset frequency        DirectResetFreq ....    20
 Integral Threshold     Thresh          ....  1.000e-10 Eh
 Primitive CutOff       TCut            ....  1.000e-11 Eh

Convergence Tolerance:
 Convergence Check Mode ConvCheckMode   .... Total+1el-Energy
 Convergence forced     ConvForced      .... 0
 Energy Change          TolE            ....  1.000e-06 Eh
 1-El. energy change                    ....  1.000e-03 Eh
 Orbital Gradient       TolG            ....  5.000e-05
 Orbital Rotation angle TolX            ....  5.000e-05
 DIIS Error             TolErr          ....  1.000e-06

------------------------------
INITIAL GUESS: MODEL POTENTIAL
------------------------------
Loading Hartree-Fock densities                     ... done
Calculating cut-offs                               ... done
Initializing the effective Hamiltonian             ... done
Setting up the integral package (SHARK)            ... done
Starting the Coulomb interaction                   ... done (   0.0 sec)
Making the grid                                    ... done (   0.1 sec)
Mapping shells                                     ... done
Starting the XC term evaluation                    ... done (   0.0 sec)
Transforming the Hamiltonian                       ... done (   0.0 sec)
Diagonalizing the Hamiltonian                      ... done (   0.0 sec)
Back transforming the eigenvectors                 ... done (   0.0 sec)
Now organizing SCF variables                       ... done
                      ------------------
                      INITIAL GUESS DONE (   0.1 sec)
                      ------------------
             **** ENERGY FILE WAS UPDATED (h-shift_064.en.tmp) ****
Finished Guess after   0.3 sec
Maximum memory used throughout the entire GUESS-calculation: 4.2 MB


           ************************************************************
           *        Program running with 8 parallel MPI-processes     *
           *              working on a common directory               *
           ************************************************************

-------------------------------------------------------------------------------------------
                                      ORCA LEAN-SCF
                              memory conserving SCF solver
-------------------------------------------------------------------------------------------

----------------------------------------D-I-I-S--------------------------------------------
Iteration    Energy (Eh)           Delta-E    RMSDP     MaxDP     DIISErr   Damp  Time(sec)
-------------------------------------------------------------------------------------------
               ***  Starting incremental Fock matrix formation  ***
    1    -193.6415088186092817     0.00e+00  1.57e-02  5.29e-02  1.83e-01  0.700   0.0
    2    -193.7223503609633894    -8.08e-02  1.25e-02  4.01e-02  1.20e-01  0.700   0.0
                               ***Turning on AO-DIIS***
    3    -193.7723080457052447    -5.00e-02  7.68e-03  2.02e-02  7.22e-02  0.700   0.0
    4    -193.8038731734599764    -3.16e-02  1.83e-02  4.40e-02  4.90e-02  0.000   0.0
                              *** Initializing SOSCF ***
---------------------------------------S-O-S-C-F--------------------------------------
Iteration    Energy (Eh)           Delta-E    RMSDP     MaxDP     MaxGrad    Time(sec)
--------------------------------------------------------------------------------------
    5    -193.8721639677784765    -6.83e-02  1.70e-03  2.79e-03  2.23e-03     0.1
               *** Restarting incremental Fock matrix formation ***
    6    -193.8722868875277072    -1.23e-04  8.83e-04  1.49e-03  1.38e-03     0.0
    7    -193.8723239422503752    -3.71e-05  5.62e-04  1.15e-03  5.75e-04     0.0
    8    -193.8723313804987356    -7.44e-06  7.50e-05  2.27e-04  1.36e-04     0.0
    9    -193.8723316100961824    -2.30e-07  3.35e-05  9.99e-05  3.10e-05     0.0
                 **** Energy Check signals convergence ****

               *****************************************************
               *                     SUCCESS                       *
               *           SCF CONVERGED AFTER   9 CYCLES          *
               *****************************************************

             **** ENERGY FILE WAS UPDATED (h-shift_064.en.tmp) ****

----------------
TOTAL SCF ENERGY
----------------

Total Energy       :       -193.87233167011721 Eh           -5275.53435 eV

Components:
Nuclear Repulsion  :        161.56980171778162 Eh            4396.53782 eV
Electronic Energy  :       -355.44213338789882 Eh           -9672.07217 eV
One Electron Energy:       -580.09150363942592 Eh          -15785.09231 eV
Two Electron Energy:        224.64937025152710 Eh            6113.02014 eV

Virial components:
Potential Energy   :       -388.05742864963906 Eh          -10559.57947 eV
Kinetic Energy     :        194.18509697952189 Eh            5284.04512 eV
Virial Ratio       :          1.99838934442308

---------------
SCF CONVERGENCE
---------------

  Last Energy change         ...    2.2960e-07  Tolerance :   1.0000e-06
  Last MAX-Density change    ...    9.9890e-05  Tolerance :   1.0000e-05
  Last RMS-Density change    ...    3.3461e-05  Tolerance :   1.0000e-06
  Last DIIS Error            ...    2.2295e-03  Tolerance :   1.0000e-06
  Last Orbital Gradient      ...    3.0950e-05  Tolerance :   5.0000e-05
  Last Orbital Rotation      ...    3.0796e-05  Tolerance :   5.0000e-05


----------------
ORBITAL ENERGIES
----------------

  NO   OCC          E(Eh)            E(eV) 
   0   2.0000     -11.236101      -305.7498 
   1   2.0000     -11.235981      -305.7466 
   2   2.0000     -11.227772      -305.5232 
   3   2.0000     -11.220878      -305.3356 
   4   2.0000     -11.213722      -305.1409 
   5   2.0000      -1.102523       -30.0012 
   6   2.0000      -1.019560       -27.7436 
   7   2.0000      -0.941723       -25.6256 
   8   2.0000      -0.812766       -22.1165 
   9   2.0000      -0.719131       -19.5685 
  10   2.0000      -0.668435       -18.1890 
  11   2.0000      -0.601677       -16.3725 
  12   2.0000      -0.584444       -15.9035 
  13   2.0000      -0.567660       -15.4468 
  14   2.0000      -0.543226       -14.7819 
  15   2.0000      -0.507727       -13.8159 
  16   2.0000      -0.469765       -12.7830 
  17   2.0000      -0.408388       -11.1128 
  18   2.0000      -0.314903        -8.5689 
  19   0.0000       0.133093         3.6216 
  20   0.0000       0.228724         6.2239 
  21   0.0000       0.251286         6.8378 
  22   0.0000       0.268735         7.3126 
  23   0.0000       0.291457         7.9310 
  24   0.0000       0.322662         8.7801 
  25   0.0000       0.335436         9.1277 
  26   0.0000       0.347886         9.4665 
  27   0.0000       0.362477         9.8635 
  28   0.0000       0.369100        10.0437 
  29   0.0000       0.432161        11.7597 
*Only the first 10 virtual orbitals were printed.

                    ********************************
                    * MULLIKEN POPULATION ANALYSIS *
                    ********************************

-----------------------
MULLIKEN ATOMIC CHARGES
-----------------------
   0 C :   -0.365695
   1 H :    0.184526
   2 C :   -0.513589
   3 C :   -0.146412
   4 C :   -0.197669
   5 C :   -0.153116
   6 H :    0.161890
   7 H :    0.173565
   8 H :    0.171609
   9 H :    0.158629
  10 H :    0.177221
  11 H :    0.176308
  12 H :    0.172733
Sum of atomic charges:    0.0000000

--------------------------------
MULLIKEN REDUCED ORBITAL CHARGES
--------------------------------
  0 C s       :     3.268402  s :     3.268402
      pz      :     1.048575  p :     3.097294
      px      :     1.049933
      py      :     0.998786

  1 H s       :     0.815474  s :     0.815474

  2 C s       :     3.367138  s :     3.367138
      pz      :     1.061885  p :     3.146451
      px      :     1.090339
      py      :     0.994226

  3 C s       :     3.211554  s :     3.211554
      pz      :     0.984461  p :     2.934858
      px      :     0.985166
      py      :     0.965231

  4 C s       :     3.196151  s :     3.196151
      pz      :     1.005155  p :     3.001518
      px      :     0.933159
      py      :     1.063204

  5 C s       :     3.195905  s :     3.195905
      pz      :     0.935134  p :     2.957211
      px      :     1.025378
      py      :     0.996699

  6 H s       :     0.838110  s :     0.838110

  7 H s       :     0.826435  s :     0.826435

  8 H s       :     0.828391  s :     0.828391

  9 H s       :     0.841371  s :     0.841371

 10 H s       :     0.822779  s :     0.822779

 11 H s       :     0.823692  s :     0.823692

 12 H s       :     0.827267  s :     0.827267



                     *******************************
                     * LOEWDIN POPULATION ANALYSIS *
                     *******************************

----------------------
LOEWDIN ATOMIC CHARGES
----------------------
   0 C :   -0.249519
   1 H :    0.127069
   2 C :   -0.320790
   3 C :   -0.105213
   4 C :   -0.150358
   5 C :   -0.113996
   6 H :    0.116122
   7 H :    0.118120
   8 H :    0.117093
   9 H :    0.110003
  10 H :    0.117341
  11 H :    0.117467
  12 H :    0.116661

-------------------------------
LOEWDIN REDUCED ORBITAL CHARGES
-------------------------------
  0 C s       :     2.988740  s :     2.988740
      pz      :     1.084487  p :     3.260779
      px      :     1.069383
      py      :     1.106908

  1 H s       :     0.872931  s :     0.872931

  2 C s       :     2.976505  s :     2.976505
      pz      :     1.127637  p :     3.344285
      px      :     1.125507
      py      :     1.091141

  3 C s       :     2.952609  s :     2.952609
      pz      :     1.022600  p :     3.152604
      px      :     1.094835
      py      :     1.035169

  4 C s       :     2.941515  s :     2.941515
      pz      :     1.054041  p :     3.208843
      px      :     1.084299
      py      :     1.070503

  5 C s       :     2.945055  s :     2.945055
      pz      :     1.027488  p :     3.168940
      px      :     1.032642
      py      :     1.108810

  6 H s       :     0.883878  s :     0.883878

  7 H s       :     0.881880  s :     0.881880

  8 H s       :     0.882907  s :     0.882907

  9 H s       :     0.889997  s :     0.889997

 10 H s       :     0.882659  s :     0.882659

 11 H s       :     0.882533  s :     0.882533

 12 H s       :     0.883339  s :     0.883339



                      *****************************
                      * MAYER POPULATION ANALYSIS *
                      *****************************

  NA   - Mulliken gross atomic population
  ZA   - Total nuclear charge
  QA   - Mulliken gross atomic charge
  VA   - Mayer's total valence
  BVA  - Mayer's bonded valence
  FA   - Mayer's free valence

  ATOM       NA         ZA         QA         VA         BVA        FA
  0 C      6.3657     6.0000    -0.3657     3.8422     3.8422     0.0000
  1 H      0.8155     1.0000     0.1845     0.9286     0.9286    -0.0000
  2 C      6.5136     6.0000    -0.5136     3.7705     3.7705    -0.0000
  3 C      6.1464     6.0000    -0.1464     3.7616     3.7616     0.0000
  4 C      6.1977     6.0000    -0.1977     3.8196     3.8196     0.0000
  5 C      6.1531     6.0000    -0.1531     3.8074     3.8074     0.0000
  6 H      0.8381     1.0000     0.1619     0.9435     0.9435    -0.0000
  7 H      0.8264     1.0000     0.1736     0.9378     0.9378     0.0000
  8 H      0.8284     1.0000     0.1716     0.9217     0.9217    -0.0000
  9 H      0.8414     1.0000     0.1586     0.9335     0.9335    -0.0000
 10 H      0.8228     1.0000     0.1772     0.9384     0.9384     0.0000
 11 H      0.8237     1.0000     0.1763     0.9386     0.9386     0.0000
 12 H      0.8273     1.0000     0.1727     0.9370     0.9370     0.0000

  Mayer bond orders larger than 0.100000
B(  0-C ,  5-C ) :   1.8719 B(  0-C ,  6-H ) :   0.9626 B(  0-C ,  7-H ) :   0.9611 
B(  1-H ,  2-C ) :   0.9376 B(  2-C ,  3-C ) :   0.9618 B(  2-C ,  8-H ) :   0.9455 
B(  2-C ,  9-H ) :   0.9602 B(  3-C ,  4-C ) :   1.8728 B(  3-C , 10-H ) :   0.9566 
B(  4-C ,  5-C ) :   1.0514 B(  4-C , 11-H ) :   0.9563 B(  5-C , 12-H ) :   0.9577 


-------
TIMINGS
-------

Total SCF time: 0 days 0 hours 0 min 0 sec 

Total time                  ....       0.714 sec
Sum of individual times     ....       0.667 sec  ( 93.5%)

SCF preparation             ....       0.259 sec  ( 36.3%)
Fock matrix formation       ....       0.346 sec  ( 48.6%)
  Startup                   ....       0.001 sec  (  0.4% of F)
  Coulomb+Exchange Fock     ....       0.366 sec  (105.7% of F)
Diagonalization             ....       0.000 sec  (  0.0%)
Density matrix formation    ....       0.009 sec  (  1.2%)
Total Energy calculation    ....       0.005 sec  (  0.7%)
Population analysis         ....       0.005 sec  (  0.7%)
Orbital Transformation      ....       0.005 sec  (  0.7%)
Orbital Orthonormalization  ....       0.000 sec  (  0.0%)
DIIS solution               ....       0.024 sec  (  3.3%)
SOSCF solution              ....       0.015 sec  (  2.1%)
Finished LeanSCF after   0.7 sec

Maximum memory used throughout the entire LEANSCF-calculation: 6.4 MB

-------------------------   --------------------
FINAL SINGLE POINT ENERGY      -193.872331670117
-------------------------   --------------------



           ************************************************************
           *        Program running with 8 parallel MPI-processes     *
           *              working on a common directory               *
           ************************************************************

------------------------------------------------------------------------------
                              ORCA PROPERTY CALCULATIONS
------------------------------------------------------------------------------

GBWName                                 ... h-shift_064.gbw
Number of atoms                         ...     13
Number of basis functions               ...     61
Max core memory                         ...   1200 MB

Electric properties:
Dipole moment                           ... YES
Quadrupole moment                       ...  NO
Static polarizability (Dipole/Dipole)   ...  NO
Static polarizability (Dipole/Quad.)    ...  NO
Static polarizability (Quad./Quad.)     ...  NO
Static polarizability (Velocity)        ...  NO
Static hyperpolarizability              ...  NO

Atomic electric properties:
Dipole moment                           ...  NO
Quadrupole moment                       ...  NO
Static polarizability                   ...  NO

Choice of electric origin               ... Center of mass
Position of electric origin             ...     1.638065    -1.405621     1.951811

General magnetic properties:
Magnetizability                         ...  NO

EPR properties:
g-Tensor (aka g-matrix)                 ...  NO
Zero-Field splitting spin-orbit         ...  NO
Zero-field splitting spin-spin          ...  NO
Hyperfine couplings                     ...  NO (   0 nuclei)
Quadrupole couplings                    ...  NO (   0 nuclei)
Contact density                         ...  NO (   0 nuclei)

NMR properties:
Chemical shifts                         ...  NO (   0 nuclei)
Spin-rotation constants                 ...  NO (   0 nuclei)
Spin-spin couplings                     ...  NO (   0 nuclei,    0 pairs)

Choice of magnetic origin               ... GIAO
Position of magnetic origin             ...     0.000000     0.000000     0.000000

Properties with geometric perturbations:
SCF Hessian                             ...  NO
IR spectrum                             ...  NO
VCD spectrum                            ...  NO
X-ray spectroscopy properties:
SCF XES/XAS/RIXS spectra                ...  NO

SCF SOC stabilization energy            ...  NO
Diagonal Born-Oppenheimer correction    ...  NO

-------------
DIPOLE MOMENT
-------------

Method             : SCF
Type of density    : Electron Density
Multiplicity       :   1
Irrep              :   0
Energy             :  -193.8723316701172052 Eh
Basis              : AO
                                X                 Y                 Z
Electronic contribution:     -1.500985954      -1.792943202       1.011972880
Nuclear contribution   :      1.652113911       1.779739931      -1.069422787
                        -----------------------------------------
Total Dipole Moment    :      0.151127957      -0.013203271      -0.057449907
                        -----------------------------------------
Magnitude (a.u.)       :      0.162217378
Magnitude (Debye)      :      0.412323806



--------------------
Rotational spectrum 
--------------------
 
Rotational constants in cm-1:             0.281320             0.145476             0.099257 
Rotational constants in MHz :          8433.756932          4361.263864          2975.647353 

Dipole components along the rotational axes: 
x,y,z [a.u.] :    -0.114201     0.054646    -0.101422 
x,y,z [Debye]:    -0.290277     0.138899    -0.257793 

 

Dipole moment calculation done in   0.0 sec 

Maximum memory used throughout the entire PROP-calculation: 2.2 MB

--------------------------------
SUGGESTED CITATIONS FOR THIS RUN
--------------------------------

Below you find a list of papers that are relevant to this ORCA run
We neither can nor want to force you to cite these papers, but we appreciate if you do
You receive ORCA, which is the product of decades of hard work by many enthusiastic individuals, for free
The only thing we kindly ask in return is that you cite our papers,
We deeply appreciate it, if you show your appreciation for ORCA by not just citing the generic ORCA reference.

Please note that relegating all ORCA citations to the supporting information does *not* help us.
SI sections are not indexed - citations you put there will not count into any citation statistics
But we need these citations in order to attract the funding resources that allow us to do what we are doing

Therefore, if you are a happy ORCA user, please consider citing a few of the papers listed below in the main body of your paper

In addition to the list printed below, the program has created the file h-shift_064.bibtex that contains the list in bibtex format
You can import this file easily into all common literature databanks and citation aid programs


List of essential papers. We consider these as the minimum necessary citations

  1. Neese, F.
     Software update: the ORCA program system, version 6.0
     WIRES Comput. Molec. Sci. 2025 15(1), e70019
     doi.org/10.1002/wcms.7019

List of papers to cite with high priority. The work reported in these papers was absolutely
necessary for this run to complete.
Our perspective: the developers of density functionals and basis sets usually get cited in chemistry papers
Good! But without the algorithms to do something with them, the functionals or basis sets would not do anything.
Hence, in our opinion, the algorithm design and method developments papers are equally worthy of getting cited

  1. Neese, F.
     The SHARK Integral Generation and Digestion System
     J. Comp. Chem. 2022 44(3), 381
     doi.org/10.1002/jcc.26942

List of suggested additional citations. These are papers that are important in the 'surrounding' of 
of this run, or papers that preceded the highly important papers. If you like your results we are grateful for a citation.

  1. Neese, F.
     The ORCA program system
     WIRES Comput. Molec. Sci. 2012 2(1), 73-78
     doi.org/10.1002/wcms.81
  2. Neese, F.
     Software update: the ORCA program system, version 4.0
     WIRES Comput. Molec. Sci. 2018 8(1), 1-6
     doi.org/10.1002/wcms.1327
  3. Neese, F.; Wennmohs, F.; Becker, U.; Riplinger, C.
     The ORCA quantum chemistry program package
     J. Chem. Phys. 2020 152(22), 224108
     doi.org/10.1063/5.0004608
  4. Neese, F.
     Software update: The ORCA program system—Version 5.0
     WIRES Comput. Molec. Sci. 2022 12(1), e1606
     doi.org/10.1002/wcms.1606

List of optional additional citations

  1. Neese, F.
     Approximate second-order SCF convergence for spin unrestricted wavefunctions
     Chem. Phys. Lett. 2000 325(1-3), 93-98
     doi.org/10.1016/s0009-2614(00)00662-x

Timings for individual modules:

Sum of individual times          ...        2.318 sec (=   0.039 min)
Startup calculation              ...        0.652 sec (=   0.011 min)  28.1 %
SCF iterations                   ...        1.293 sec (=   0.022 min)  55.8 %
Property calculations            ...        0.372 sec (=   0.006 min)  16.1 %
                             ****ORCA TERMINATED NORMALLY****
TOTAL RUN TIME: 0 days 0 hours 0 minutes 2 seconds 774 msec
