[Molden Format]
[Title]
 Molden file created by orca_2mkl for BaseName=h-shift_011

[Atoms] AU
C    1   6         -0.0188311209         0.0202862100        -0.3356607148 
H    2   1          1.9073799555         0.0329001320        -1.0263386092 
C    3   6          4.8834151575         0.0127367541         2.9036265657 
C    4   6          3.8877411342        -2.2444882005         3.3817707413 
C    5   6          1.2382128136        -3.0392578795         3.1029170838 
C    6   6         -0.4448056271        -2.1292659289         1.4670359717 
H    7   1         -1.2818050161        -0.0763940687        -1.9402668594 
H    8   1         -0.3401847192         1.8234855637         0.5935610889 
H    9   1          3.7757767505         1.6195085249         2.3706954501 
H   10   1          6.8822748654         0.3223022408         3.0433907106 
H   11   1          5.1406730247        -3.7188563096         4.0093582390 
H   12   1          0.6768318710        -4.6033010526         4.2771475500 
H   13   1         -2.2773486482        -3.0090506073         1.3971312226 
[GTO]
  1 0
s   6 1.0 
     3047.5249000000         0.5363343823
      457.3695100000         0.9894506076
      103.9486900000         1.5972822308
       29.2101550000         2.0791870615
        9.2866630000         1.7741742532
        3.1639270000         0.6125798260
s   3 1.0 
        7.8682724000        -0.3995563516
        1.8812885000        -0.1841552393
        0.5442493000         0.5163903794
p   3 1.0 
        7.8682724000         1.2960827175
        1.8812885000         0.9937536282
        0.5442493000         0.4959527138
s   1 1.0 
        0.1687144000         0.1876178721
p   1 1.0 
        0.1687144000         0.1541275509

  2 0
s   3 1.0 
       18.7311370000         0.2149354183
        2.8253937000         0.3645711272
        0.6401217000         0.4150514277
s   1 1.0 
        0.1612778000         0.1813806839

  3 0
s   6 1.0 
     3047.5249000000         0.5363343823
      457.3695100000         0.9894506076
      103.9486900000         1.5972822308
       29.2101550000         2.0791870615
        9.2866630000         1.7741742532
        3.1639270000         0.6125798260
s   3 1.0 
        7.8682724000        -0.3995563516
        1.8812885000        -0.1841552393
        0.5442493000         0.5163903794
p   3 1.0 
        7.8682724000         1.2960827175
        1.8812885000         0.9937536282
        0.5442493000         0.4959527138
s   1 1.0 
        0.1687144000         0.1876178721
p   1 1.0 
        0.1687144000         0.1541275509

  4 0
s   6 1.0 
     3047.5249000000         0.5363343823
      457.3695100000         0.9894506076
      103.9486900000         1.5972822308
       29.2101550000         2.0791870615
        9.2866630000         1.7741742532
        3.1639270000         0.6125798260
s   3 1.0 
        7.8682724000        -0.3995563516
        1.8812885000        -0.1841552393
        0.5442493000         0.5163903794
p   3 1.0 
        7.8682724000         1.2960827175
        1.8812885000         0.9937536282
        0.5442493000         0.4959527138
s   1 1.0 
        0.1687144000         0.1876178721
p   1 1.0 
        0.1687144000         0.1541275509

  5 0
s   6 1.0 
     3047.5249000000         0.5363343823
      457.3695100000         0.9894506076
      103.9486900000         1.5972822308
       29.2101550000         2.0791870615
        9.2866630000         1.7741742532
        3.1639270000         0.6125798260
s   3 1.0 
        7.8682724000        -0.3995563516
        1.8812885000        -0.1841552393
        0.5442493000         0.5163903794
p   3 1.0 
        7.8682724000         1.2960827175
        1.8812885000         0.9937536282
        0.5442493000         0.4959527138
s   1 1.0 
        0.1687144000         0.1876178721
p   1 1.0 
        0.1687144000         0.1541275509

  6 0
s   6 1.0 
     3047.5249000000         0.5363343823
      457.3695100000         0.9894506076
      103.9486900000         1.5972822308
       29.2101550000         2.0791870615
        9.2866630000         1.7741742532
        3.1639270000         0.6125798260
s   3 1.0 
        7.8682724000        -0.3995563516
        1.8812885000        -0.1841552393
        0.5442493000         0.5163903794
p   3 1.0 
        7.8682724000         1.2960827175
        1.8812885000         0.9937536282
        0.5442493000         0.4959527138
s   1 1.0 
        0.1687144000         0.1876178721
p   1 1.0 
        0.1687144000         0.1541275509

  7 0
s   3 1.0 
       18.7311370000         0.2149354183
        2.8253937000         0.3645711272
        0.6401217000         0.4150514277
s   1 1.0 
        0.1612778000         0.1813806839

  8 0
s   3 1.0 
       18.7311370000         0.2149354183
        2.8253937000         0.3645711272
        0.6401217000         0.4150514277
s   1 1.0 
        0.1612778000         0.1813806839

  9 0
s   3 1.0 
       18.7311370000         0.2149354183
        2.8253937000         0.3645711272
        0.6401217000         0.4150514277
s   1 1.0 
        0.1612778000         0.1813806839

 10 0
s   3 1.0 
       18.7311370000         0.2149354183
        2.8253937000         0.3645711272
        0.6401217000         0.4150514277
s   1 1.0 
        0.1612778000         0.1813806839

 11 0
s   3 1.0 
       18.7311370000         0.2149354183
        2.8253937000         0.3645711272
        0.6401217000         0.4150514277
s   1 1.0 
        0.1612778000         0.1813806839

 12 0
s   3 1.0 
       18.7311370000         0.2149354183
        2.8253937000         0.3645711272
        0.6401217000         0.4150514277
s   1 1.0 
        0.1612778000         0.1813806839

 13 0
s   3 1.0 
       18.7311370000         0.2149354183
        2.8253937000         0.3645711272
        0.6401217000         0.4150514277
s   1 1.0 
        0.1612778000         0.1813806839

[5D]
[7F]
[9G]
[MO]
 Sym=     1a
 Ene= -1.12360464848961E+01
 Spin= Alpha
 Occup= 2.000000
  1      -0.000389636793
  2       0.000017661973
  3       0.000009712204
  4      -0.000047147254
  5       0.000053270347
  6      -0.000069968904
  7       0.000339306344
  8       0.000230101039
  9      -0.000279014574
 10       0.000102113869
 11      -0.000551034815
 12      -0.058093202219
 13      -0.000601923040
 14      -0.000089480295
 15      -0.000174892545
 16       0.000071664404
 17      -0.005528346815
 18       0.001973630168
 19       0.001991497383
 20      -0.000340422395
 21      -0.992634148904
 22      -0.024846926738
 23       0.000065577927
 24      -0.000155030860
 25       0.000082474617
 26       0.017324890256
 27      -0.001389439182
 28       0.001750118720
 29      -0.000801592541
 30      -0.046970131762
 31      -0.000502408151
 32       0.000178569186
 33       0.000069636618
 34       0.000028986500
 35      -0.003933521340
 36      -0.002320136765
 37      -0.001390974744
 38      -0.000079520666
 39      -0.036975718212
 40      -0.000669868336
 41       0.000196291646
 42      -0.000040334436
 43       0.000063272279
 44       0.000664071901
 45      -0.000480392292
 46       0.000397955840
 47      -0.000261119600
 48       0.000001184069
 49       0.000001712669
 50      -0.000003061222
 51       0.000008559963
 52       0.000276041133
 53       0.000311850169
 54       0.000081153463
 55      -0.000493341569
 56       0.000266402360
 57      -0.002071258840
 58       0.000083787474
 59      -0.000440988914
 60      -0.000040324755
 61      -0.000485158136
 Sym=     1a
 Ene= -1.12353243434081E+01
 Spin= Alpha
 Occup= 2.000000
  1       0.016269965596
  2      -0.000004300204
  3       0.000025239884
  4       0.000160250020
  5      -0.000035256630
  6       0.003666903468
  7       0.000136479498
  8      -0.002179276919
  9       0.001434920163
 10      -0.000199943179
 11       0.000109546670
 12      -0.002965850922
 13      -0.000070447757
 14       0.000038989302
 15      -0.000030554903
 16       0.000001217188
 17       0.000175780489
 18      -0.000228291629
 19       0.000171690090
 20      -0.000048065119
 21      -0.041630275736
 22      -0.001202570914
 23       0.000182129937
 24       0.000034601407
 25       0.000050519632
 26       0.000013928316
 27       0.000258310613
 28      -0.000222215684
 29       0.000194863366
 30       0.102918331484
 31       0.001579398922
 32       0.000136941866
 33      -0.000127818186
 34       0.000177574242
 35       0.005219979596
 36      -0.000985290498
 37       0.001992666085
 38      -0.002350111042
 39       0.989783284643
 40       0.024718281529
 41       0.000163156244
 42       0.000028217243
 43       0.000063046494
 44      -0.017228607707
 45      -0.002261900969
 46      -0.000900647699
 47      -0.000082234705
 48      -0.000091234412
 49       0.000192076342
 50      -0.000200659556
 51       0.000902973272
 52      -0.000000259467
 53      -0.000360695999
 54       0.000011307044
 55       0.000093962209
 56       0.000005483281
 57      -0.000088659962
 58      -0.000047949848
 59       0.000797563555
 60      -0.000267285022
 61       0.002065023618
 Sym=     1a
 Ene= -1.12274268339573E+01
 Spin= Alpha
 Occup= 2.000000
  1       0.003715847409
  2       0.000076447069
  3      -0.000008937511
  4      -0.000112886723
  5       0.000140894018
  6       0.001791656787
  7       0.000287119050
  8      -0.000653836765
  9       0.000431545604
 10      -0.000063548999
 11      -0.000178434158
 12       0.007893821672
 13       0.000353263566
 14      -0.000158837715
 15      -0.000129589811
 16       0.000049412491
 17       0.000798497528
 18      -0.000014494543
 19       0.000114924330
 20      -0.000261271708
 21       0.042693319335
 22       0.001719864778
 23      -0.000162105644
 24      -0.000035175888
 25      -0.000033216767
 26      -0.006045207372
 27       0.002916073495
 28      -0.000062460493
 29       0.000981654516
 30      -0.989709781524
 31      -0.025129477283
 32      -0.000074320630
 33      -0.000170233977
 34       0.000216687455
 35       0.019564809617
 36       0.000866497663
 37       0.002692610909
 38      -0.002410401283
 39       0.105270975043
 40       0.003674833803
 41       0.000210342321
 42      -0.000032111584
 43       0.000124967752
 44      -0.009478255979
 45      -0.003554563663
 46      -0.000204083425
 47      -0.001340788204
 48      -0.000059479127
 49      -0.000123665833
 50      -0.000037168579
 51       0.000149273265
 52       0.000037895037
 53      -0.000316304341
 54      -0.000044854442
 55      -0.000324136030
 56       0.000065846480
 57      -0.000349755788
 58       0.000298438864
 59      -0.001693928962
 60      -0.000002247071
 61      -0.000345279657
 Sym=     1a
 Ene= -1.12217556130184E+01
 Spin= Alpha
 Occup= 2.000000
  1       0.000386181681
  2       0.000040416183
  3       0.000004120581
  4       0.000009646980
  5       0.000106873427
  6      -0.000030510111
  7       0.000366830479
  8       0.000063916496
  9      -0.000683667199
 10       0.000155408244
 11      -0.000999388515
 12      -0.994403579901
 13      -0.024789587013
 14       0.000086644376
 15       0.000200572226
 16       0.000015658933
 17       0.016535602890
 18      -0.000898399446
 19      -0.001672953132
 20       0.000178850760
 21       0.059037025346
 22       0.002315007607
 23       0.000121719442
 24       0.000296181145
 25      -0.000046133286
 26      -0.006837867008
 27      -0.001182600974
 28      -0.002832700997
 29       0.000619003084
 30      -0.005403343701
 31      -0.000029132558
 32       0.000107680566
 33       0.000080815120
 34       0.000002070881
 35       0.000494398144
 36      -0.000409481038
 37       0.000022294922
 38      -0.000133077479
 39       0.000028841840
 40      -0.000022891584
 41       0.000039045021
 42       0.000019164021
 43       0.000017344410
 44       0.000068289188
 45      -0.000104057786
 46       0.000396114943
 47      -0.000359133058
 48      -0.000012171826
 49      -0.000219320514
 50      -0.000026522562
 51       0.000489612894
 52       0.000146545435
 53      -0.002737687663
 54       0.000210462297
 55      -0.002653323050
 56       0.000114163275
 57       0.000006512484
 58      -0.000035644583
 59      -0.000202277536
 60       0.000005988477
 61       0.000013052218
 Sym=     1a
 Ene= -1.12157872160937E+01
 Spin= Alpha
 Occup= 2.000000
  1       0.996065416962
  2       0.026121518607
  3      -0.000016669423
  4       0.000011164161
  5       0.000092671923
  6      -0.019218593403
  7       0.000118711455
  8       0.000721813546
  9      -0.000878000330
 10       0.000075271013
 11       0.003204951658
 12       0.000381288000
 13      -0.000022616341
 14       0.000133155840
 15      -0.000003230432
 16       0.000012558726
 17       0.000273249157
 18      -0.000728991488
 19      -0.000315855643
 20       0.000035267395
 21       0.000119387039
 22       0.000022783247
 23       0.000043363259
 24      -0.000038622169
 25       0.000035152756
 26      -0.000451368882
 27      -0.000072559227
 28      -0.000443950776
 29       0.000180148967
 30       0.001990493126
 31      -0.000141612090
 32       0.000054253425
 33      -0.000097374653
 34       0.000120833177
 35       0.000599353884
 36      -0.000564111458
 37       0.000387441717
 38      -0.000592755010
 39      -0.016739497358
 40      -0.000852480626
 41      -0.000014092496
 42      -0.000114127352
 43       0.000115530711
 44       0.004063206793
 45       0.000085303680
 46       0.002259897385
 47      -0.002069527337
 48       0.000042540597
 49       0.003119299083
 50       0.000071044079
 51       0.003310738774
 52      -0.000049827541
 53      -0.000011108331
 54       0.000049222564
 55       0.000465777602
 56      -0.000028454617
 57      -0.000027295137
 58       0.000029972757
 59       0.000427892586
 60      -0.000126914655
 61       0.000076886018
 Sym=     1a
 Ene= -1.09949470098020E+00
 Spin= Alpha
 Occup= 2.000000
  1      -0.067986216979
  2       0.126402248276
  3       0.001497061834
  4      -0.031532386893
  5       0.030018859185
  6       0.119696349690
  7       0.006343963128
  8      -0.003616214576
  9       0.009970781749
 10       0.037958357643
 11       0.001832094951
 12      -0.075563212718
 13       0.147704757911
 14      -0.033896994614
 15      -0.057026549516
 16       0.009131860963
 17       0.100438165010
 18       0.000795107299
 19      -0.003174034701
 20      -0.000697816754
 21      -0.110697540714
 22       0.219726578107
 23      -0.031489537315
 24       0.030397331797
 25      -0.018686089927
 26       0.139104345323
 27      -0.006022578633
 28      -0.000223766275
 29      -0.002224456560
 30      -0.126128558178
 31       0.248895289346
 32      -0.002648455839
 33       0.041766697094
 34      -0.044467511327
 35       0.163888340249
 36       0.004215885983
 37       0.004083203740
 38      -0.002706540651
 39      -0.113717768110
 40       0.225833297353
 41       0.059660191814
 42      -0.006105320742
 43       0.033070667859
 44       0.137441697120
 45      -0.003949265481
 46      -0.004461823833
 47       0.002536548903
 48       0.031810769504
 49       0.004848692938
 50       0.034534946777
 51       0.000282596060
 52       0.039682997424
 53       0.007207621268
 54       0.033204057236
 55       0.001859737289
 56       0.053315866547
 57       0.008272848542
 58       0.059461843826
 59       0.008625882746
 60       0.053263889123
 61       0.004334324122
 Sym=     1a
 Ene= -1.02181309874098E+00
 Spin= Alpha
 Occup= 2.000000
  1       0.100540008387
  2      -0.191080378106
  3       0.009639515827
  4       0.030029023858
  5      -0.024650561744
  6      -0.179084695492
  7       0.003009532507
  8       0.000886381992
  9      -0.001585452677
 10      -0.054349943586
 11      -0.005461314402
 12      -0.121194731516
 13       0.237898968946
 14      -0.026511457340
 15      -0.078708689013
 16       0.019025944195
 17       0.183166544786
 18      -0.004255517823
 19      -0.002962694547
 20       0.000703174721
 21      -0.115598501032
 22       0.230854546719
 23       0.054067973420
 24       0.077046116113
 25      -0.010211657804
 26       0.159467926186
 27       0.011858753241
 28      -0.004240814293
 29       0.004949210874
 30       0.020887226113
 31      -0.041580336249
 32       0.098720355400
 33      -0.007143312049
 34       0.052123644643
 35      -0.026312709444
 36       0.015187740272
 37       0.011549041857
 38      -0.001124288313
 39       0.101904833630
 40      -0.202265884589
 41      -0.012179528860
 42      -0.020767256093
 43       0.014312125558
 44      -0.147734248576
 45      -0.002757792409
 46      -0.006045202364
 47       0.004231351780
 48      -0.059669142630
 49      -0.008718853414
 50      -0.058310596293
 51      -0.005580287164
 52       0.061497794307
 53       0.006014037412
 54       0.069020966073
 55       0.015755973876
 56       0.068288877581
 57       0.011329810438
 58      -0.010210155045
 59       0.003845009686
 60      -0.062756174507
 61      -0.016541859031
 Sym=     1a
 Ene= -9.41012772411633E-01
 Spin= Alpha
 Occup= 2.000000
  1       0.139093114471
  2      -0.261960433011
  3       0.001592340848
  4      -0.020172024538
  5       0.016609118209
  6      -0.293555715077
  7      -0.001340941799
  8      -0.002175974781
  9      -0.003145866515
 10      -0.098566883461
 11      -0.022771598133
 12       0.079336882663
 13      -0.155545432566
 14       0.001412007601
 15       0.013840104573
 16      -0.001681576126
 17      -0.135502118366
 18       0.002713712157
 19      -0.001963837008
 20       0.003509760423
 21       0.005000932720
 22      -0.008822290282
 23      -0.096292282329
 24      -0.088331104142
 25       0.009007639494
 26      -0.005459302458
 27      -0.019932645301
 28      -0.005969542935
 29      -0.002515553645
 30      -0.118404977782
 31       0.235563962823
 32      -0.039661783026
 33      -0.011256926051
 34      -0.015529762351
 35       0.183178928295
 36      -0.002552979159
 37      -0.015304402177
 38       0.008901210646
 39      -0.029881598715
 40       0.056192907007
 41       0.050559632910
 42      -0.114722933411
 43       0.128411141876
 44       0.074581466471
 45       0.011400612618
 46      -0.010108719570
 47       0.015619098626
 48      -0.101598928093
 49      -0.027999310534
 50      -0.099884261352
 51      -0.024580821212
 52      -0.058650918242
 53      -0.016714505684
 54      -0.057833398886
 55      -0.018639562773
 56       0.000357868091
 57       0.004129013898
 58       0.091196862905
 59       0.025320995123
 60       0.020654591130
 61       0.007347670544
 Sym=     1a
 Ene= -8.14443264636872E-01
 Spin= Alpha
 Occup= 2.000000
  1      -0.059078804022
  2       0.111836750252
  3       0.014757359857
  4       0.063175100840
  5      -0.053396689731
  6       0.144951035022
  7      -0.002863956827
  8       0.014476842482
  9      -0.017244130265
 10       0.059497276116
 11       0.023210623898
 12       0.102326874412
 13      -0.203780202191
 14      -0.040606659596
 15      -0.080675934724
 16       0.016696656329
 17      -0.190149102117
 18      -0.015243611930
 19      -0.032098797251
 20       0.006652611507
 21      -0.086307157712
 22       0.176300450105
 23      -0.080738206761
 24      -0.152059015001
 25       0.032707268451
 26       0.162456110135
 27      -0.019432517357
 28      -0.050474264915
 29       0.012276635583
 30      -0.031002474734
 31       0.064737252865
 32       0.194051804567
 33      -0.030998301324
 34       0.098235652686
 35       0.053850153570
 36       0.046387103361
 37      -0.008047072658
 38       0.023984133398
 39       0.091483437124
 40      -0.182970702659
 41       0.036767803436
 42       0.064527172943
 43      -0.049202080481
 44      -0.177339753604
 45       0.023514031790
 46       0.008988395543
 47      -0.000559136887
 48       0.060736366558
 49       0.020552413861
 50       0.059142887322
 51       0.023731505372
 52      -0.109629521252
 53      -0.042985810019
 54      -0.113214263440
 55      -0.048386324256
 56       0.108848715456
 57       0.044826878988
 58       0.041178060966
 59       0.018656973216
 60      -0.106568213634
 61      -0.043642554827
 Sym=     1a
 Ene= -7.16548049068358E-01
 Spin= Alpha
 Occup= 2.000000
  1       0.022227473299
  2      -0.039552444326
  3      -0.092732504084
  4      -0.109164219055
  5       0.048364757140
  6      -0.064432637777
  7      -0.035062265391
  8      -0.039138892041
  9       0.014892984018
 10      -0.080255070101
 11      -0.044543966981
 12       0.039682540220
 13      -0.079708247866
 14       0.025475921956
 15      -0.197959206477
 16       0.058239740279
 17      -0.081000684911
 18       0.004878647850
 19      -0.065429546160
 20       0.020219237387
 21      -0.069664965895
 22       0.141779970227
 23       0.178933052247
 24      -0.028307196386
 25       0.035719218463
 26       0.140175585846
 27       0.059839276727
 28      -0.041311340233
 29       0.023289915961
 30       0.077635986427
 31      -0.158876014032
 32       0.003313172798
 33       0.028965435781
 34      -0.039851567655
 35      -0.152525051238
 36      -0.004421712219
 37       0.034703254116
 38      -0.035682667094
 39      -0.073610131319
 40       0.149825263626
 41      -0.163090440932
 42       0.004738613584
 43      -0.090851093518
 44       0.153368766778
 45      -0.073294390385
 46      -0.004282938436
 47      -0.036423250789
 48      -0.005129901607
 49       0.000267222107
 50      -0.053439176617
 51      -0.029598558015
 52      -0.142439588766
 53      -0.087491525058
 54      -0.041436325766
 55      -0.019994664640
 56       0.142637656913
 57       0.068404255441
 58      -0.100741864152
 59      -0.040884103310
 60       0.152156622441
 61       0.076876419333
 Sym=     1a
 Ene= -6.66746909434897E-01
 Spin= Alpha
 Occup= 2.000000
  1       0.016135330998
  2      -0.029230859072
  3       0.089282764589
  4      -0.066711717458
  5       0.105262928558
  6      -0.049466579893
  7       0.046031031528
  8      -0.023059878571
  9       0.043748825999
 10       0.015928573789
 11       0.009975683856
 12       0.021553367782
 13      -0.042770131483
 14      -0.192984907395
 15      -0.090214749442
 16      -0.014119276714
 17      -0.061363701333
 18      -0.074602081230
 19      -0.022679710391
 20      -0.011762253240
 21      -0.025644903375
 22       0.055084426781
 23      -0.097231093818
 24       0.142249069443
 25      -0.083952394936
 26       0.047597397456
 27      -0.029953521456
 28       0.044655333097
 29      -0.028931941164
 30       0.020227239056
 31      -0.039017080841
 32       0.067645501657
 33       0.231559590275
 34      -0.166992770513
 35      -0.050231599663
 36       0.025205316429
 37       0.097139650189
 38      -0.069498829834
 39      -0.023997755157
 40       0.050468050503
 41       0.169092450824
 42       0.087144163053
 43       0.007206526791
 44       0.036182092251
 45       0.050492644043
 46       0.037236065556
 47      -0.006532228876
 48      -0.093109910488
 49      -0.056400301823
 50      -0.028916834105
 51      -0.016510123550
 52      -0.000104040546
 53      -0.005348088346
 54      -0.138700166046
 55      -0.086941421516
 56      -0.080750619229
 57      -0.059547331590
 58      -0.187569751581
 59      -0.114310307227
 60      -0.082025592059
 61      -0.058219507644
 Sym=     1a
 Ene= -6.04393048197973E-01
 Spin= Alpha
 Occup= 2.000000
  1       0.010276894398
  2      -0.019380314978
  3      -0.173550250892
  4      -0.031658224202
  5      -0.000837730208
  6      -0.031894656023
  7      -0.076712923577
  8      -0.014525113306
  9       0.005486708525
 10      -0.104557941417
 11      -0.070136893189
 12      -0.007023266188
 13       0.015383160868
 14      -0.251317521127
 15       0.103514041361
 16      -0.034994039432
 17       0.029107126908
 18      -0.115377985155
 19       0.046955266097
 20      -0.012861602943
 21      -0.013999340170
 22       0.032351887771
 23      -0.195782222944
 24       0.059810690588
 25      -0.011634407503
 26       0.023532334960
 27      -0.069904523752
 28       0.013157136290
 29       0.005625192750
 30       0.009914141500
 31      -0.022030475796
 32       0.174673507867
 33      -0.039004438972
 34       0.154867721418
 35       0.008467908428
 36       0.051784314878
 37       0.003230135731
 38       0.044665834807
 39       0.003294657351
 40      -0.009370174652
 41      -0.249182644078
 42       0.031243012432
 43      -0.116289111128
 44       0.001022495213
 45      -0.106977822990
 46       0.005799368464
 47      -0.040520725876
 48       0.059775853928
 49       0.049591022686
 50      -0.007251296167
 51      -0.000328522134
 52       0.142106103531
 53       0.091828036422
 54      -0.136140960413
 55      -0.094510743036
 56      -0.087269039918
 57      -0.069387470317
 58       0.033461331722
 59       0.031302760172
 60       0.132253459650
 61       0.092596309101
 Sym=     1a
 Ene= -5.84934771775348E-01
 Spin= Alpha
 Occup= 2.000000
  1       0.006099350309
  2      -0.006564551737
  3       0.023410357513
  4      -0.178705387824
  5       0.130582732481
  6      -0.036489726057
  7       0.012695717917
  8      -0.074911415845
  9       0.053945576997
 10      -0.017675253969
 11      -0.010134670200
 12       0.007353257912
 13      -0.019631545925
 14       0.154526704613
 15       0.283603245868
 16      -0.065890169426
 17       0.016337246606
 18       0.052290132810
 19       0.101354088740
 20      -0.026394000831
 21       0.008153697545
 22      -0.019299087619
 23      -0.119513103149
 24      -0.308568636123
 25       0.047368522976
 26       0.003431277005
 27      -0.028907686964
 28      -0.111295172221
 29       0.016358436083
 30       0.009612926681
 31      -0.018826224973
 32       0.196746057642
 33       0.046019096294
 34      -0.015743118480
 35      -0.019853037599
 36       0.081249169584
 37       0.018571981915
 38      -0.012337597500
 39      -0.024856464586
 40       0.050777214353
 41       0.030919895789
 42       0.143076055000
 43      -0.157873391763
 44       0.085896129065
 45       0.019235576414
 46       0.056481131362
 47      -0.064434255122
 48      -0.075627608494
 49      -0.055957661675
 50      -0.069283988145
 51      -0.052158501849
 52       0.092345707326
 53       0.067651644123
 54       0.114995796316
 55       0.090536125535
 56       0.097625105989
 57       0.072972833002
 58      -0.073886116953
 59      -0.051618412038
 60      -0.022478839088
 61      -0.019236358827
 Sym=     1a
 Ene= -5.67325347282000E-01
 Spin= Alpha
 Occup= 2.000000
  1      -0.000473083982
  2       0.001883698533
  3       0.102138848968
  4      -0.251156750083
  5      -0.316025426025
  6       0.000668426828
  7       0.053334617526
  8      -0.128539431959
  9      -0.158219326637
 10       0.136500926601
 11       0.106278231445
 12      -0.005105648071
 13       0.010350729510
 14      -0.025242882901
 15      -0.019562593654
 16      -0.019414151799
 17       0.014291547807
 18      -0.006443901110
 19      -0.003572907294
 20      -0.015920316607
 21       0.000656356661
 22      -0.001619076774
 23      -0.024778428921
 24       0.032521668105
 25      -0.045905684711
 26      -0.002751342282
 27      -0.010924580073
 28       0.014685827960
 29      -0.022504763513
 30      -0.002906231830
 31       0.003511372422
 32       0.033090666282
 33      -0.046785690182
 34      -0.043267320097
 35       0.023302032338
 36       0.014971237704
 37      -0.021661212934
 38      -0.039277281284
 39       0.005344957292
 40      -0.008651527546
 41       0.019123508507
 42      -0.099952311756
 43      -0.086265209150
 44      -0.030479454702
 45       0.002525611840
 46      -0.047199409184
 47      -0.048205120780
 48       0.133494030167
 49       0.104105260084
 50      -0.254523467044
 51      -0.198303215945
 52      -0.000272073436
 53      -0.010409883414
 54      -0.012985465851
 55      -0.012315131399
 56      -0.036955834037
 57      -0.027681453349
 58       0.003984199240
 59       0.006752992761
 60       0.013387656413
 61       0.011358818191
 Sym=     1a
 Ene= -5.40516476196235E-01
 Spin= Alpha
 Occup= 2.000000
  1       0.005667485015
  2      -0.014435063940
  3       0.308781105632
  4       0.061898212345
  5       0.051371587014
  6       0.005074728575
  7       0.175534807007
  8       0.028169753148
  9       0.039431992903
 10       0.186410856357
 11       0.145564546773
 12       0.010714930167
 13      -0.023802076969
 14      -0.172621793842
 15       0.074497226535
 16      -0.052059738485
 17      -0.009508887925
 18      -0.106470657242
 19       0.034642143239
 20      -0.034600602157
 21      -0.008073526237
 22       0.014812975174
 23       0.128761211568
 24      -0.085669221875
 25       0.040337971034
 26       0.016682149877
 27       0.081064000987
 28      -0.063279635824
 29       0.027976613501
 30       0.035442960663
 31      -0.079180294710
 32      -0.066838763557
 33      -0.101945581409
 34       0.033581037939
 35      -0.072868226097
 36      -0.017623216690
 37      -0.023224452427
 38      -0.002581716180
 39      -0.007890815625
 40       0.015505283046
 41      -0.117559479511
 42      -0.092433244097
 43       0.004635027483
 44       0.017095192348
 45      -0.075855147619
 46      -0.059728030402
 47       0.004003283991
 48      -0.171114021720
 49      -0.132186548628
 50       0.016735797257
 51       0.015708227564
 52       0.117561602453
 53       0.090147916099
 54      -0.127620304230
 55      -0.091528892512
 56       0.118519089227
 57       0.080695813073
 58       0.034600542793
 59       0.044190772760
 60       0.110804310485
 61       0.075629446838
 Sym=     1a
 Ene= -5.06785183731869E-01
 Spin= Alpha
 Occup= 2.000000
  1      -0.016465017433
  2       0.036970223851