
                                 *****************
                                 * O   R   C   A *
                                 *****************

                                            #,                                       
                                            ###                                      
                                            ####                                     
                                            #####                                    
                                            ######                                   
                                           ########,                                 
                                     ,,################,,,,,                         
                               ,,#################################,,                 
                          ,,##########################################,,             
                       ,#########################################, ''#####,          
                    ,#############################################,,   '####,        
                  ,##################################################,,,,####,       
                ,###########''''           ''''###############################       
              ,#####''   ,,,,##########,,,,          '''####'''          '####       
            ,##' ,,,,###########################,,,                        '##       
           ' ,,###''''                  '''############,,,                           
         ,,##''                                '''############,,,,        ,,,,,,###''
      ,#''                                            '''#######################'''  
     '                                                          ''''####''''         
             ,#######,   #######,   ,#######,      ##                                
            ,#'     '#,  ##    ##  ,#'     '#,    #''#        ,####,    ,#,          
            ##       ##  ##   ,#'  ##            #'  '#       #'       ,# #          
            ##       ##  #######   ##           ,######,      #####,      #          
            '#,     ,#'  ##    ##  '#,     ,#' ,#      #,     #,   #      #          
             '#######'   ##     ##  '#######'  #'      '#     '####' #    #          



                #########################################################
                #                        -***-                          #
                #          Department of theory and spectroscopy        #
                #                                                       #
                #                      Frank Neese                      #
                #                                                       #
                #     Directorship, Architecture, Infrastructure        #
                #                    SHARK, DRIVERS                     #
                #        Core code/Algorithms in most modules           #
                #                                                       #
                #        Max Planck Institute fuer Kohlenforschung      #
                #                Kaiser Wilhelm Platz 1                 #
                #                 D-45470 Muelheim/Ruhr                 #
                #                      Germany                          #
                #                                                       #
                #                  All rights reserved                  #
                #                        -***-                          #
                #########################################################


                         Program Version 6.1.0  -  RELEASE   -
                                (GIT: $679e74b$)
                          ($2025-06-10 18:02:51 +0200$)


 With contributions from (in alphabetic order):
[Max-Planck-Institut fuer Kohlenforschung]                               
  Daniel Aravena         : Magnetic Suceptibility                        
  Michael Atanasov       : Ab Initio Ligand Field Theory (pilot matlab implementation)
  Alexander A. Auer      : GIAO ZORA, VPT2 properties, NMR spectrum      
  Ute Becker             : All parallelization in ORCA, NUMFREQ, NUMCALC 
  Giovanni Bistoni       : ED, misc. LED, open-shell LED, HFLD           
  Dmytro Bykov           : pre 5.0 version of the SCF Hessian            
  Marcos Casanova-Páez   : Triplet and SCS-CIS(D). UHF-(DLPNO)-IP/EA/STEOM-CCSD. UHF-CVS-IP/STEOM-CCSD   
  Vijay G. Chilkuri      : MRCI spin determinant printing, contributions to CSF-ICE 
  Pauline Colinet        : FMM embedding                                 
  Dipayan Datta          : RHF DLPNO-CCSD density                        
  Achintya Kumar Dutta   : EOM-CC, STEOM-CC                              
  Nicolas Foglia         : Exact transition moments, OPA infrastructure, MCD improvements    
  Dmitry Ganyushin       : Spin-Orbit,Spin-Spin,Magnetic field MRCI      
  Miquel Garcia-Rates    : C-PCM and meta-GGA Hessian, CCSD/C-PCM, Gaussian charge scheme 
  Tiago L. C. Gouveia    : GS-ROHF, GS-ROCIS                             
  Yang Guo               : DLPNO-NEVPT2, F12-NEVPT2, CIM, IAO-localization        
  Andreas Hansen         : Spin unrestricted coupled pair/coupled cluster methods 
  Ingolf Harden          : AUTO-CI MPn and infrastructure                
  Benjamin Helmich-Paris : MC-RPA, TRAH-(SCF,CASSCF), AVAS, COSX integrals, SCF dyn. polar., MC-PDFT, srDFT 
  Lee Huntington         : MR-EOM, pCC                                   
  Robert Izsak           : Overlap fitted RIJCOSX, COSX-SCS-MP3, EOM     
  Riya Kayal             : Wick's Theorem for AUTO-CI, AUTO-CI UHF-CCSDT 
  Emily Kempfer          : AUTO-CI RHF CISDT and CCSDT, approximate NEVPT4
  Christian Kollmar      : KDIIS, OOCD, Brueckner-CCSD(T), CCSD density, CASPT2, CASPT2-K, improved NEVPT2 
  Axel Koslowski         : Symmetry handling                             
  Simone Kossmann        : meta-GGA functionals, TD-DFT gradient, OOMP2, (MP2 Hessian; deprecated post 5.0) 
  Lucas Lang             : DCDCAS, Hyperfine gauge corrections, ICE-SOC+SSC
  Marvin Lechner         : AUTO-CI (C++ implementation), FIC-MRCC        
  Spencer Leger          : CASSCF response                               
  Dagmar Lenk            : GEPOL surface, SMD, ORCA-2-JSON               
  Dimitrios Liakos       : Extrapolation schemes; Compound Job, Property file
  Dimitrios Manganas     : Further ROCIS development; embedding schemes. LFT, Crystal Embedding 
  Dimitrios Pantazis     : SARC Basis sets                               
  Anastasios Papadopoulos: AUTO-CI, single reference methods and gradients 
  Taras Petrenko         : pre 6.0 DFT Hessian and TD-DFT gradient,  ECA, NRVS 
  Petra Pikulova         : Analytic Raman intensities                    
  Peter Pinski           : DLPNO-MP2, DLPNO-MP2 Gradient                 
  Shashank Vittal Rao    : ES-AILFT, MagRelax                            
  Christoph Reimann      : Effective Core Potentials                     
  Marius Retegan         : Local ZFS, SOC                                
  Christoph Riplinger    : Optimizer, TS searches, QM/MM, DLPNO-CCSD(T), (RO)-DLPNO pert. Triples 
  Michael Roemelt        : Original ROCIS implementation, recursive CI coupling coefficients
  Masaaki Saitow         : Open-shell DLPNO-CCSD energy and density      
  Barbara Sandhoefer     : DKH picture change effects                    
  Yorick L. A. Schmerwitz: GMF and freeze-and-release deltaSCF, NEB S-IDPP initial path                    
  Kantharuban Sivalingam : CASSCF convergence/infrastructure, NEVPT2, NEVPT3, NEVPT4(SD), FIC-MRCI and CEPA variants
  Bernardo de Souza      : ESD, SOC TD-DFT                               
  Georgi L. Stoychev     : AutoAux, RI-MP2 NMR, DLPNO-MP2 response, X2C  
  Van Anh Tran           : RI-MP2 g-tensors                              
  Willem Van den Heuvel  : Paramagnetic NMR                              
  Zikuan Wang            : NOTCH, Electric field optimization            
  Frank Wennmohs         : Technical directorship and infrastructure     
  Hang Xu                : AUTO-CI-Response properties                   
                                                                         
[FACCTs GmbH]                                                            
  Markus Bursch, Nicolas Foglia, Miquel Garcia-Rates, Ingolf Harden, Hagen Neugebauer, Anastasios Papadopoulos, 
  Christoph Riplinger, Bernardo de Souza, Georgi L. Stoychev                                                    
                                                                 
  APM, various basis sets, CI-OPT, improved COSX, DLPNO-Multilevel,           
  DOCKER, DRACO, updates on ESD, Fragmentator, GOAT, IRC, LR-CPCM, L-BFGS, MBIS, meta-GGA TD-DFT gradient, ML-optimized integration grids, 
  MM, NACMEs, nearIR, NEB, NEB-TS, NL-DFT gradient (VV10), 2- and 3-layer-ONIOM, interface openCOSMO-RS, QMMM,   
  Crystal-QMMM, RESP, rigid body optimization, SF, symmetry and pop. for TD-DFT, various functionals, SOLVATOR                                   
                                                                         
[Other institutions]                                                     
  V. Asgeirsson          : NEB                                           
  Christoph Bannwarth    : sTDA-DFT, sTD-DFT, PBEh-3c, B97-3c, D3        
  Giovanni Bistoni       : ETS/NOCV, ADLD/ADEX, COVALED                  
  Martin Brehm           : Molecular dynamics                            
  Ronald Cardenas        : ETS/NOCV                                      
  Martina Colucci        : COVALED                                       
  Sebastian Ehlert       : rSCAN, r2SCAN, r2SCAN-3c, D4, dhf basis sets  
  Marvin Friede          : D4 for Fr, Ra, Ac-Lr                          
  Lars Goerigk           : TD-DFT with DH, B97 family of functionals     
  Stefan Grimme          : VdW corrections, initial TS optimization, DFT functionals, gCP, sTDA/sTD-DF 
  Waldemar Hujo          : DFT-NL                                        
  H. Jonsson             : NEB                                           
  Holger Kruse           : gCP                                           
  Marcel Mueller         : wB97X-3c, vDZP basis set                      
  Hagen Neugebauer       : wr2SCAN, Native XTB                           
  Gianluca Regni         : ADLD/ADEX                                     
  Tobias Risthaus        : pre 6.0 range-separated hybrid DFT and stability analysis
  Lukas Wittmann         : regularized MP2, r2SCAN double-hybrids, wr2SCAN        
                                                                         
We gratefully acknowledge several colleagues who have allowed us to      
interface, adapt or use parts of their codes:                            
  Ed Valeev, F. Pavosevic, A. Kumar             : LibInt (2-el integral package), F12 methods 
  Garnet Chan, S. Sharma, J. Yang, R. Olivares  : DMRG                   
  Ulf Ekstrom                                   : XCFun DFT Library      
  Mihaly Kallay                                 : mrcc  (arbitrary order and MRCC methods)
  Frank Weinhold                                : gennbo (NPA and NBO analysis)           
  Simon Mueller                                 : openCOSMO-RS                            
  Christopher J. Cramer and Donald G. Truhlar   : smd solvation model                     
  S Lehtola, MJT Oliveira, MAL Marques          : LibXC Library                           
  Liviu Ungur et al                             : ANISO software                          


 Your calculation uses the libint2 library for the computation of 2-el integrals
 For citations please refer to: http://libint.valeyev.net

 Your ORCA version has been built with support for libXC version: 7.0.0
 For citations please refer to: https://libxc.gitlab.io

 This ORCA versions uses:
   CBLAS   interface :  Fast vector & matrix operations
   LAPACKE interface :  Fast linear algebra routines
   SCALAPACK package :  Parallel linear algebra routines
   Shared memory     :  Shared parallel matrices
   BLAS/LAPACK       :  OpenBLAS 0.3.29  USE64BITINT DYNAMIC_ARCH NO_AFFINITY Zen SINGLE_THREADED
        Core in use  :  Zen
   Copyright (c) 2011-2014, The OpenBLAS Project


  ***********************************
  * Starting time: Sun Apr  5 13:00:47 2026
  * Host name:     QC1
  * Process ID:    6476
  * Working dir.:  /home/user/QC/h-shift/split_2
  ***********************************

NOTE: MaxCore=1200 MB was set to SCF,MP2,MDCI,CIPSI,MRCI,RASCI and CIS
      => If you want to overwrite this, your respective input block should be placed after the MaxCore statement
================================================================================

----- Orbital basis set information -----
Your calculation utilizes the basis: 6-31G
   H-He, Li-Ne : W. J. Hehre, R. Ditchfield and J.A. Pople, J. Chem. Phys. 56, 2257 (1972).
                 Note: He and Ne are unpublished basis sets taken from the Gaussian program.
                 Note: Li and B from J. D. Dill and J. A. Pople, J. Chem. Phys. 62, 2921 (1975).
   Na - Ar     : M. M. Francl, W. J. Pietro, W. J. Hehre, J. S. Binkley, M. S. Gordon, 
                 D. J. DeFrees and J. A. Pople, J. Chem. Phys. 77, 3654 (1982).
   K - Zn      : V. A. Rassolov, J. A. Pople, M. A. Ratner, and T. L. Windus, J. Chem. Phys. 109, 1223 (1998).

================================================================================
                                        WARNINGS
                       Please study these warnings very carefully!
================================================================================


================================================================================
                                       INPUT FILE
================================================================================
NAME = h-shift_029.inp
|  1> ! HF 6-31G
|  2> %maxcore 1200
|  3> %pal nprocs 8 end
|  4> * xyz 0 1
|  5> C    0.03396400   0.01187400  -0.12935300
|  6> H    1.07250400   0.00573900  -0.43616800
|  7> C    2.53860900   0.02001300   1.48231100
|  8> C    2.01060400  -1.15564600   1.81825100
|  9> C    0.61545400  -1.60114900   1.69359900
| 10> C   -0.24055400  -1.15378000   0.77350500
| 11> H   -0.58618800   0.01566000  -1.01275700
| 12> H   -0.12869200   0.94819100   0.39795900
| 13> H    1.95480400   0.88434700   1.24503300
| 14> H    3.60082300   0.14433300   1.40769900
| 15> H    2.68686900  -1.93382400   2.12569200
| 16> H    0.33065100  -2.44507400   2.29842300
| 17> H   -1.17307500  -1.67273000   0.63619700
| 18> *
| 19> 
| 20>                          ****END OF INPUT****
================================================================================

                       ****************************
                       * Single Point Calculation *
                       ****************************

---------------------------------
CARTESIAN COORDINATES (ANGSTROEM)
---------------------------------
  C      0.033964    0.011874   -0.129353
  H      1.072504    0.005739   -0.436168
  C      2.538609    0.020013    1.482311
  C      2.010604   -1.155646    1.818251
  C      0.615454   -1.601149    1.693599
  C     -0.240554   -1.153780    0.773505
  H     -0.586188    0.015660   -1.012757
  H     -0.128692    0.948191    0.397959
  H      1.954804    0.884347    1.245033
  H      3.600823    0.144333    1.407699
  H      2.686869   -1.933824    2.125692
  H      0.330651   -2.445074    2.298423
  H     -1.173075   -1.672730    0.636197

----------------------------
CARTESIAN COORDINATES (A.U.)
----------------------------
  NO LB      ZA    FRAG     MASS         X           Y           Z
   0 C     6.0000    0    12.011    0.064183    0.022439   -0.244442
   1 H     1.0000    0     1.008    2.026739    0.010845   -0.824238
   2 C     6.0000    0    12.011    4.797276    0.037819    2.801162
   3 C     6.0000    0    12.011    3.799491   -2.183854    3.435996
   4 C     6.0000    0    12.011    1.163040   -3.025733    3.200438
   5 C     6.0000    0    12.011   -0.454581   -2.180328    1.461713
   6 H     1.0000    0     1.008   -1.107735    0.029593   -1.913833
   7 H     1.0000    0     1.008   -0.243193    1.791821    0.752034
   8 H     1.0000    0     1.008    3.694044    1.671174    2.352771
   9 H     1.0000    0     1.008    6.804569    0.272750    2.660166
  10 H     1.0000    0     1.008    5.077447   -3.654398    4.016976
  11 H     1.0000    0     1.008    0.624840   -4.620520    4.343390
  12 H     1.0000    0     1.008   -2.216790   -3.161002    1.202238

--------------------------------
INTERNAL COORDINATES (ANGSTROEM)
--------------------------------
 C      0   0   0     0.000000000000     0.00000000     0.00000000
 H      1   0   0     1.082930475169     0.00000000     0.00000000
 C      2   1   0     2.414586774490   110.92565973     0.00000000
 C      3   2   1     1.331847982281    87.39077646    62.53105208
 C      4   3   2     1.469848484237   128.49575045   322.12697777
 C      5   4   3     1.333964649854   124.46736738    28.34628716
 H      1   2   3     1.079354188446   108.61105494   179.41048716
 H      1   2   3     1.086832298089   106.61074040    63.32537099
 H      3   2   1     1.069673964750    59.81066405   290.71192271
 H      3   2   1     1.072063894896   123.16119970   188.21620676
 H      4   3   2     1.075832383966   117.47602479   134.88683871
 H      5   4   3     1.076630960641   116.16955372   199.04360817
 H      6   5   4     1.075991637888   118.84290769   168.08335022

---------------------------
INTERNAL COORDINATES (A.U.)
---------------------------
 C      0   0   0     0.000000000000     0.00000000     0.00000000
 H      1   0   0     2.046442020147     0.00000000     0.00000000
 C      2   1   0     4.562907730374   110.92565973     0.00000000
 C      3   2   1     2.516827938527    87.39077646    62.53105208
 C      4   3   2     2.777611093567   128.49575045   322.12697777
 C      5   4   3     2.520827860557   124.46736738    28.34628716
 H      1   2   3     2.039683817664   108.61105494   179.41048716
 H      1   2   3     2.053815396888   106.61074040    63.32537099
 H      3   2   1     2.021390845964    59.81066405   290.71192271
 H      3   2   1     2.025907159419   123.16119970   188.21620676
 H      4   3   2     2.033028571699   117.47602479   134.88683871
 H      5   4   3     2.034537662911   116.16955372   199.04360817
 H      6   5   4     2.033329517998   118.84290769   168.08335022

---------------------
BASIS SET INFORMATION
---------------------
There are 2 groups of distinct atoms

 Group   1 Type C   : 10s4p contracted to 3s2p pattern {631/31}
 Group   2 Type H   : 4s contracted to 2s pattern {31}

Atom   0C    basis set group =>   1
Atom   1H    basis set group =>   2
Atom   2C    basis set group =>   1
Atom   3C    basis set group =>   1
Atom   4C    basis set group =>   1
Atom   5C    basis set group =>   1
Atom   6H    basis set group =>   2
Atom   7H    basis set group =>   2
Atom   8H    basis set group =>   2
Atom   9H    basis set group =>   2
Atom  10H    basis set group =>   2
Atom  11H    basis set group =>   2
Atom  12H    basis set group =>   2


           ************************************************************
           *        Program running with 8 parallel MPI-processes     *
           *              working on a common directory               *
           ************************************************************
------------------------------------------------------------------------------
                             ORCA STARTUP CALCULATIONS
------------------------------------------------------------------------------
------------------------------------------------------------------------------
                   ___                                                        
                  /   \      - P O W E R E D   B Y -                         
                 /     \                                                     
                 |  |  |   _    _      __       _____    __    __             
                 |  |  |  | |  | |    /  \     |  _  \  |  |  /  |          
                  \  \/   | |  | |   /    \    | | | |  |  | /  /          
                 / \  \   | |__| |  /  /\  \   | |_| |  |  |/  /          
                |  |  |   |  __  | /  /__\  \  |    /   |      \           
                |  |  |   | |  | | |   __   |  |    \   |  |\   \          
                \     /   | |  | | |  |  |  |  | |\  \  |  | \   \       
                 \___/    |_|  |_| |__|  |__|  |_| \__\ |__|  \__/        
                                                                              
                      - O R C A' S   B I G   F R I E N D -                    
                                      &                                       
                       - I N T E G R A L  F E E D E R -                       
                                                                              
 v1 FN, 2020, v2 2021, v3 2022-2024                                           
------------------------------------------------------------------------------


----------------------
SHARK INTEGRAL PACKAGE
----------------------

Number of atoms                             ...     13
Number of basis functions                   ...     61
Number of shells                            ...     41
Maximum angular momentum                    ...      1
Integral batch strategy                     ... SHARK/LIBINT Hybrid
RI-J (if used) integral strategy            ... SPLIT-RIJ (Revised 2003 algorithm where possible)
Printlevel                                  ...      1
Contraction scheme used                     ... SEGMENTED contraction
Prescreening option                         ... SCHWARTZ
   Thresh                                   ... 1.000e-10
   Tcut                                     ... 1.000e-11
   Tpresel                                  ... 1.000e-11 
Coulomb Range Separation                    ... NOT USED
Exchange Range Separation                   ... NOT USED
Multipole approximations                    ... NOT USED
Finite Nucleus Model                        ... NOT USED
CABS basis                                  ... NOT available
Auxiliary Coulomb fitting basis             ... NOT available
Auxiliary J/K fitting basis                 ... NOT available
Auxiliary Correlation fitting basis         ... NOT available
Auxiliary 'external' fitting basis          ... NOT available

Checking pre-screening integrals            ... done (  0.0 sec) Dimension = 41
   => SHARK Basis and OBASIS are compatible. Storing Pre-screening
Shell pair information
Shell pair cut-off parameter TPreSel        ...   1.0e-11
Total number of shell pairs                 ...       861
Shell pairs after pre-screening             ...       846
Total number of primitive shell pairs       ...      5382
Primitive shell pairs kept                  ...      3740
          la=0 lb=0:    481 shell pairs
          la=1 lb=0:    310 shell pairs
          la=1 lb=1:     55 shell pairs

Checking whether 4 symmetric matrices of dimension 61 fit in memory
:Max Core in MB      =   1200.00
 MB in use           =      2.04
 MB left             =   1197.96
 MB needed           =      0.06
 Data fit in memory  = YES
Calculating Nuclear repulsion               ... done (  0.0 sec) ENN=    161.512187399393 Eh

Diagonalization of the overlap matrix:
Smallest eigenvalue                        ... 3.403e-03
Time for diagonalization                   ...    0.001 sec
Threshold for overlap eigenvalues          ... 1.000e-07
Number of eigenvalues below threshold      ... 0
Time for construction of square roots      ...    0.000 sec
Total time needed                          ...    0.001 sec

-------------------
DFT GRID GENERATION
-------------------

General Integration Accuracy     IntAcc      ... 4.388
Radial Grid Type                 RadialGrid  ... OptM3 with GC (2021)
Angular Grid (max. ang.)         AngularGrid ... 4 (Lebedev-302)
Angular grid pruning method      GridPruning ... 4 (adaptive)
Weight generation scheme         WeightScheme... mBecke (2022)
Basis function cutoff            BFCut       ... 1.0000e-10
Integration weight cutoff        WCut        ... 1.0000e-14
Partially contracted basis set               ... off
Rotationally invariant grid construction     ... off
Angular grids for H and He will be reduced by one unit

Total number of grid points                  ...    56024
Total number of batches                      ...      882
Average number of points per batch           ...       63
Average number of grid points per atom       ...     4310
Grids setup in   0.2 sec
Initializing property integral containers    ... done (  0.0 sec)

SHARK setup successfully completed in   0.3 seconds

Maximum memory used throughout the entire STARTUP-calculation: 11.8 MB


           ************************************************************
           *        Program running with 8 parallel MPI-processes     *
           *              working on a common directory               *
           ************************************************************
-------------------------------------------------------------------------------
                                 ORCA GUESS
                   Start orbitals & Density for SCF / CASSCF
-------------------------------------------------------------------------------

------------
SCF SETTINGS
------------
Hamiltonian:
 Ab initio Hamiltonian  Method          .... Hartree-Fock(GTOs)


General Settings:
 Integral files         IntName         .... h-shift_029
 Hartree-Fock type      HFTyp           .... RHF
 Total Charge           Charge          ....    0
 Multiplicity           Mult            ....    1
 Number of Electrons    NEL             ....   38
 Basis Dimension        Dim             ....   61
 Nuclear Repulsion      ENuc            ....    161.5121873994 Eh

Convergence Acceleration:
 AO-DIIS                CNVDIIS         .... on
   Start iteration      DIISMaxIt       ....    12
   Startup error        DIISStart       ....  0.200000
   # of expansion vecs  DIISMaxEq       ....     5
   Bias factor          DIISBfac        ....   1.050
   Max. coefficient     DIISMaxC        ....  10.000
 MO-DIIS                CNVKDIIS        .... off
 Trust-Rad. Augm. Hess. CNVTRAH         .... auto
   Auto Start mean grad. ratio tolernc. ....  1.125000
   Auto Start start iteration           ....    50
   Auto Start num. interpolation iter.  ....    10
   Max. Number of Micro iterations      ....    24
   Max. Number of Macro iterations      .... Maxiter - #DIIS iter
   Number of Davidson start vectors     ....     2
   Converg. threshold    (grad. norm)   ....   5.000e-05
   Grad. Scal. Fac. for Micro threshold ....   0.100
   Minimum threshold for Micro iter.    ....   1.000e-02
   NR start threshold (gradient norm)   ....   1.000e-04
   Initial trust radius                 ....   0.400
   Minimum AH scaling param. (alpha)    ....   1.000
   Maximum AH scaling param. (alpha)    .... 1000.000
   Quad. conv. algorithm                .... NR
   White noise on init. David. guess    .... on
   Maximum white noise                  ....   0.010
   Pseudo random numbers                .... off
   Inactive MOs                         .... canonical
   Orbital update algorithm             .... Taylor
   Preconditioner                       .... Diag
   Full preconditioner red. dimension   ....   250
 SOSCF                 CNVSOSCF           .... on
   Start iteration     SOSCFMaxIt         ....   150
   Startup grad/error  SOSCFStart         ....  0.003300
   Hessian update      SOSCFHessUp        .... L-BFGS
   Autom. constraints  SOSCFAutoConstrain .... off
 Level Shifting         CNVShift        .... on
   Level shift para.    LevelShift      ....    0.2500
   Turn off err/grad.   ShiftErr        ....    0.0010
 Zerner damping         CNVZerner       .... off
 Static damping         CNVDamp         .... on
   Fraction old density DampFac         ....    0.7000
   Max. Damping (<1)    DampMax         ....    0.9800
   Min. Damping (>=0)   DampMin         ....    0.0000
   Turn off err/grad.   DampErr         ....    0.1000

SCF Procedure:
 Maximum # iterations   MaxIter         ....   125
 SCF integral mode      SCFMode         .... Direct
   Integral package                     .... SHARK and LIBINT hybrid scheme
 Reset frequency        DirectResetFreq ....    20
 Integral Threshold     Thresh          ....  1.000e-10 Eh
 Primitive CutOff       TCut            ....  1.000e-11 Eh

Convergence Tolerance:
 Convergence Check Mode ConvCheckMode   .... Total+1el-Energy
 Convergence forced     ConvForced      .... 0
 Energy Change          TolE            ....  1.000e-06 Eh
 1-El. energy change                    ....  1.000e-03 Eh
 Orbital Gradient       TolG            ....  5.000e-05
 Orbital Rotation angle TolX            ....  5.000e-05
 DIIS Error             TolErr          ....  1.000e-06

------------------------------
INITIAL GUESS: MODEL POTENTIAL
------------------------------
Loading Hartree-Fock densities                     ... done
Calculating cut-offs                               ... done
Initializing the effective Hamiltonian             ... done
Setting up the integral package (SHARK)            ... done
Starting the Coulomb interaction                   ... done (   0.0 sec)
Making the grid                                    ... done (   0.1 sec)
Mapping shells                                     ... done
Starting the XC term evaluation                    ... done (   0.0 sec)
Transforming the Hamiltonian                       ... done (   0.0 sec)
Diagonalizing the Hamiltonian                      ... done (   0.0 sec)
Back transforming the eigenvectors                 ... done (   0.0 sec)
Now organizing SCF variables                       ... done
                      ------------------
                      INITIAL GUESS DONE (   0.1 sec)
                      ------------------
             **** ENERGY FILE WAS UPDATED (h-shift_029.en.tmp) ****
Finished Guess after   0.3 sec
Maximum memory used throughout the entire GUESS-calculation: 4.2 MB


           ************************************************************
           *        Program running with 8 parallel MPI-processes     *
           *              working on a common directory               *
           ************************************************************

-------------------------------------------------------------------------------------------
                                      ORCA LEAN-SCF
                              memory conserving SCF solver
-------------------------------------------------------------------------------------------

----------------------------------------D-I-I-S--------------------------------------------
Iteration    Energy (Eh)           Delta-E    RMSDP     MaxDP     DIISErr   Damp  Time(sec)
-------------------------------------------------------------------------------------------
               ***  Starting incremental Fock matrix formation  ***
    1    -193.6418385137523330     0.00e+00  1.57e-02  5.31e-02  1.87e-01  0.700   0.0
    2    -193.7226086342648443    -8.08e-02  1.25e-02  4.02e-02  1.22e-01  0.700   0.0
                               ***Turning on AO-DIIS***
    3    -193.7725307114825739    -4.99e-02  7.68e-03  2.01e-02  7.28e-02  0.700   0.0
    4    -193.8040774465865468    -3.15e-02  1.83e-02  4.27e-02  4.92e-02  0.000   0.0
                              *** Initializing SOSCF ***
---------------------------------------S-O-S-C-F--------------------------------------
Iteration    Energy (Eh)           Delta-E    RMSDP     MaxDP     MaxGrad    Time(sec)
--------------------------------------------------------------------------------------
    5    -193.8723415402714920    -6.83e-02  1.71e-03  2.81e-03  2.78e-03     0.0
               *** Restarting incremental Fock matrix formation ***
    6    -193.8724658517616319    -1.24e-04  8.87e-04  1.87e-03  1.40e-03     0.0
    7    -193.8725033651980709    -3.75e-05  5.65e-04  1.25e-03  5.82e-04     0.0
    8    -193.8725109004551825    -7.54e-06  7.51e-05  1.78e-04  1.37e-04     0.0
    9    -193.8725111315030460    -2.31e-07  3.35e-05  7.96e-05  3.07e-05     0.0
                 **** Energy Check signals convergence ****

               *****************************************************
               *                     SUCCESS                       *
               *           SCF CONVERGED AFTER   9 CYCLES          *
               *****************************************************

             **** ENERGY FILE WAS UPDATED (h-shift_029.en.tmp) ****

----------------
TOTAL SCF ENERGY
----------------

Total Energy       :       -193.87251119269129 Eh           -5275.53923 eV

Components:
Nuclear Repulsion  :        161.51218739939279 Eh            4394.97006 eV
Electronic Energy  :       -355.38469859208408 Eh           -9670.50929 eV
One Electron Energy:       -579.97557476495047 Eh          -15781.93773 eV
Two Electron Energy:        224.59087617286639 Eh            6111.42844 eV

Virial components:
Potential Energy   :       -388.05594333925234 Eh          -10559.53905 eV
Kinetic Energy     :        194.18343214656105 Eh            5283.99982 eV
Virial Ratio       :          1.99839882862079

---------------
SCF CONVERGENCE
---------------

  Last Energy change         ...    2.3105e-07  Tolerance :   1.0000e-06
  Last MAX-Density change    ...    7.9559e-05  Tolerance :   1.0000e-05
  Last RMS-Density change    ...    3.3518e-05  Tolerance :   1.0000e-06
  Last DIIS Error            ...    2.7774e-03  Tolerance :   1.0000e-06
  Last Orbital Gradient      ...    3.0691e-05  Tolerance :   5.0000e-05
  Last Orbital Rotation      ...    3.0150e-05  Tolerance :   5.0000e-05


----------------
ORBITAL ENERGIES
----------------

  NO   OCC          E(Eh)            E(eV) 
   0   2.0000     -11.236160      -305.7515 
   1   2.0000     -11.236058      -305.7487 
   2   2.0000     -11.227771      -305.5232 
   3   2.0000     -11.220914      -305.3366 
   4   2.0000     -11.213838      -305.1440 
   5   2.0000      -1.102326       -29.9958 
   6   2.0000      -1.019661       -27.7464 
   7   2.0000      -0.941725       -25.6256 
   8   2.0000      -0.812971       -22.1221 
   9   2.0000      -0.719145       -19.5689 
  10   2.0000      -0.668422       -18.1887 
  11   2.0000      -0.601565       -16.3694 
  12   2.0000      -0.584427       -15.9031 
  13   2.0000      -0.567793       -15.4504 
  14   2.0000      -0.543378       -14.7861 
  15   2.0000      -0.507553       -13.8112 
  16   2.0000      -0.469760       -12.7828 
  17   2.0000      -0.408766       -11.1231 
  18   2.0000      -0.314680        -8.5629 
  19   0.0000       0.132743         3.6121 
  20   0.0000       0.229013         6.2318 
  21   0.0000       0.251166         6.8346 
  22   0.0000       0.268759         7.3133 
  23   0.0000       0.291401         7.9294 
  24   0.0000       0.322675         8.7804 
  25   0.0000       0.335758         9.1364 
  26   0.0000       0.348047         9.4708 
  27   0.0000       0.362768         9.8714 
  28   0.0000       0.368429        10.0255 
  29   0.0000       0.432307        11.7637 
*Only the first 10 virtual orbitals were printed.

                    ********************************
                    * MULLIKEN POPULATION ANALYSIS *
                    ********************************

-----------------------
MULLIKEN ATOMIC CHARGES
-----------------------
   0 C :   -0.513721
   1 H :    0.184276
   2 C :   -0.365443
   3 C :   -0.153259
   4 C :   -0.197386
   5 C :   -0.146283
   6 H :    0.158736
   7 H :    0.171839
   8 H :    0.173489
   9 H :    0.161768
  10 H :    0.172514
  11 H :    0.176164
  12 H :    0.177307
Sum of atomic charges:    0.0000000

--------------------------------
MULLIKEN REDUCED ORBITAL CHARGES
--------------------------------
  0 C s       :     3.367203  s :     3.367203
      pz      :     1.041392  p :     3.146518
      px      :     1.111317
      py      :     0.993809

  1 H s       :     0.815724  s :     0.815724

  2 C s       :     3.268013  s :     3.268013
      pz      :     1.015598  p :     3.097430
      px      :     1.082807
      py      :     0.999025

  3 C s       :     3.195898  s :     3.195898
      pz      :     0.995389  p :     2.957360
      px      :     0.965364
      py      :     0.996608

  4 C s       :     3.195921  s :     3.195921
      pz      :     1.012916  p :     3.001465
      px      :     0.925513
      py      :     1.063036

  5 C s       :     3.211525  s :     3.211525
      pz      :     0.937884  p :     2.934758
      px      :     1.031425
      py      :     0.965449

  6 H s       :     0.841264  s :     0.841264

  7 H s       :     0.828161  s :     0.828161

  8 H s       :     0.826511  s :     0.826511

  9 H s       :     0.838232  s :     0.838232

 10 H s       :     0.827486  s :     0.827486

 11 H s       :     0.823836  s :     0.823836

 12 H s       :     0.822693  s :     0.822693



                     *******************************
                     * LOEWDIN POPULATION ANALYSIS *
                     *******************************

----------------------
LOEWDIN ATOMIC CHARGES
----------------------
   0 C :   -0.320738
   1 H :    0.126951
   2 C :   -0.249717
   3 C :   -0.113915
   4 C :   -0.150465
   5 C :   -0.105099
   6 H :    0.110094
   7 H :    0.117236
   8 H :    0.118101
   9 H :    0.116092
  10 H :    0.116637
  11 H :    0.117435
  12 H :    0.117387

-------------------------------
LOEWDIN REDUCED ORBITAL CHARGES
-------------------------------
  0 C s       :     2.976447  s :     2.976447
      pz      :     1.108274  p :     3.344291
      px      :     1.145015
      py      :     1.091001

  1 H s       :     0.873049  s :     0.873049

  2 C s       :     2.988700  s :     2.988700
      pz      :     1.037813  p :     3.261017
      px      :     1.116533
      py      :     1.106670

  3 C s       :     2.945006  s :     2.945006
      pz      :     0.988253  p :     3.168909
      px      :     1.072375
      py      :     1.108281

  4 C s       :     2.941445  s :     2.941445
      pz      :     1.075993  p :     3.209020
      px      :     1.062394
      py      :     1.070633

  5 C s       :     2.952616  s :     2.952616
      pz      :     1.033022  p :     3.152483
      px      :     1.083966
      py      :     1.035495

  6 H s       :     0.889906  s :     0.889906

  7 H s       :     0.882764  s :     0.882764

  8 H s       :     0.881899  s :     0.881899

  9 H s       :     0.883908  s :     0.883908

 10 H s       :     0.883363  s :     0.883363

 11 H s       :     0.882565  s :     0.882565

 12 H s       :     0.882613  s :     0.882613



                      *****************************
                      * MAYER POPULATION ANALYSIS *
                      *****************************

  NA   - Mulliken gross atomic population
  ZA   - Total nuclear charge
  QA   - Mulliken gross atomic charge
  VA   - Mayer's total valence
  BVA  - Mayer's bonded valence
  FA   - Mayer's free valence

  ATOM       NA         ZA         QA         VA         BVA        FA
  0 C      6.5137     6.0000    -0.5137     3.7705     3.7705     0.0000
  1 H      0.8157     1.0000     0.1843     0.9288     0.9288    -0.0000
  2 C      6.3654     6.0000    -0.3654     3.8424     3.8424     0.0000
  3 C      6.1533     6.0000    -0.1533     3.8079     3.8079     0.0000
  4 C      6.1974     6.0000    -0.1974     3.8196     3.8196     0.0000
  5 C      6.1463     6.0000    -0.1463     3.7618     3.7618     0.0000
  6 H      0.8413     1.0000     0.1587     0.9335     0.9335    -0.0000
  7 H      0.8282     1.0000     0.1718     0.9216     0.9216    -0.0000
  8 H      0.8265     1.0000     0.1735     0.9379     0.9379     0.0000
  9 H      0.8382     1.0000     0.1618     0.9436     0.9436    -0.0000
 10 H      0.8275     1.0000     0.1725     0.9371     0.9371    -0.0000
 11 H      0.8238     1.0000     0.1762     0.9386     0.9386     0.0000
 12 H      0.8227     1.0000     0.1773     0.9384     0.9384    -0.0000

  Mayer bond orders larger than 0.100000
B(  0-C ,  1-H ) :   0.9377 B(  0-C ,  5-C ) :   0.9618 B(  0-C ,  6-H ) :   0.9603 
B(  0-C ,  7-H ) :   0.9455 B(  2-C ,  3-C ) :   1.8719 B(  2-C ,  8-H ) :   0.9610 
B(  2-C ,  9-H ) :   0.9627 B(  3-C ,  4-C ) :   1.0516 B(  3-C , 10-H ) :   0.9579 
B(  4-C ,  5-C ) :   1.8726 B(  4-C , 11-H ) :   0.9564 B(  5-C , 12-H ) :   0.9566 


-------
TIMINGS
-------

Total SCF time: 0 days 0 hours 0 min 0 sec 

Total time                  ....       0.645 sec
Sum of individual times     ....       0.601 sec  ( 93.3%)

SCF preparation             ....       0.257 sec  ( 39.8%)
Fock matrix formation       ....       0.290 sec  ( 44.9%)
  Startup                   ....       0.001 sec  (  0.5% of F)
  Coulomb+Exchange Fock     ....       0.309 sec  (106.7% of F)
Diagonalization             ....       0.000 sec  (  0.0%)
Density matrix formation    ....       0.008 sec  (  1.2%)
Total Energy calculation    ....       0.005 sec  (  0.7%)
Population analysis         ....       0.005 sec  (  0.7%)
Orbital Transformation      ....       0.004 sec  (  0.7%)
Orbital Orthonormalization  ....       0.000 sec  (  0.0%)
DIIS solution               ....       0.020 sec  (  3.1%)
SOSCF solution              ....       0.013 sec  (  2.1%)
Finished LeanSCF after   0.6 sec

Maximum memory used throughout the entire LEANSCF-calculation: 6.4 MB

-------------------------   --------------------
FINAL SINGLE POINT ENERGY      -193.872511192691
-------------------------   --------------------



           ************************************************************
           *        Program running with 8 parallel MPI-processes     *
           *              working on a common directory               *
           ************************************************************

------------------------------------------------------------------------------
                              ORCA PROPERTY CALCULATIONS
------------------------------------------------------------------------------

GBWName                                 ... h-shift_029.gbw
Number of atoms                         ...     13
Number of basis functions               ...     61
Max core memory                         ...   1200 MB

Electric properties:
Dipole moment                           ... YES
Quadrupole moment                       ...  NO
Static polarizability (Dipole/Dipole)   ...  NO
Static polarizability (Dipole/Quad.)    ...  NO
Static polarizability (Quad./Quad.)     ...  NO
Static polarizability (Velocity)        ...  NO
Static hyperpolarizability              ...  NO

Atomic electric properties:
Dipole moment                           ...  NO
Quadrupole moment                       ...  NO
Static polarizability                   ...  NO

Choice of electric origin               ... Center of mass
Position of electric origin             ...     1.868982    -1.405739     2.065001

General magnetic properties:
Magnetizability                         ...  NO

EPR properties:
g-Tensor (aka g-matrix)                 ...  NO
Zero-Field splitting spin-orbit         ...  NO
Zero-field splitting spin-spin          ...  NO
Hyperfine couplings                     ...  NO (   0 nuclei)
Quadrupole couplings                    ...  NO (   0 nuclei)
Contact density                         ...  NO (   0 nuclei)

NMR properties:
Chemical shifts                         ...  NO (   0 nuclei)
Spin-rotation constants                 ...  NO (   0 nuclei)
Spin-spin couplings                     ...  NO (   0 nuclei,    0 pairs)

Choice of magnetic origin               ... GIAO
Position of magnetic origin             ...     0.000000     0.000000     0.000000

Properties with geometric perturbations:
SCF Hessian                             ...  NO
IR spectrum                             ...  NO
VCD spectrum                            ...  NO
X-ray spectroscopy properties:
SCF XES/XAS/RIXS spectra                ...  NO

SCF SOC stabilization energy            ...  NO
Diagonal Born-Oppenheimer correction    ...  NO

-------------
DIPOLE MOMENT
-------------

Method             : SCF
Type of density    : Electron Density
Multiplicity       :   1
Irrep              :   0
Energy             :  -193.8725111926912916 Eh
Basis              : AO
                                X                 Y                 Z
Electronic contribution:      0.098170596      -1.792944447       1.798310947
Nuclear contribution   :     -0.144932886       1.780398479      -1.951346419
                        -----------------------------------------
Total Dipole Moment    :     -0.046762290      -0.012545968      -0.153035472
                        -----------------------------------------
Magnitude (a.u.)       :      0.160511585
Magnitude (Debye)      :      0.407988025



--------------------
Rotational spectrum 
--------------------
 
Rotational constants in cm-1:             0.281633             0.145114             0.099059 
Rotational constants in MHz :          8443.155730          4350.404685          2969.713957 

Dipole components along the rotational axes: 
x,y,z [a.u.] :     0.114468     0.053699    -0.098881 
x,y,z [Debye]:     0.290955     0.136492    -0.251335 

 

Dipole moment calculation done in   0.0 sec 

Maximum memory used throughout the entire PROP-calculation: 2.2 MB

--------------------------------
SUGGESTED CITATIONS FOR THIS RUN
--------------------------------

Below you find a list of papers that are relevant to this ORCA run
We neither can nor want to force you to cite these papers, but we appreciate if you do
You receive ORCA, which is the product of decades of hard work by many enthusiastic individuals, for free
The only thing we kindly ask in return is that you cite our papers,
We deeply appreciate it, if you show your appreciation for ORCA by not just citing the generic ORCA reference.

Please note that relegating all ORCA citations to the supporting information does *not* help us.
SI sections are not indexed - citations you put there will not count into any citation statistics
But we need these citations in order to attract the funding resources that allow us to do what we are doing

Therefore, if you are a happy ORCA user, please consider citing a few of the papers listed below in the main body of your paper

In addition to the list printed below, the program has created the file h-shift_029.bibtex that contains the list in bibtex format
You can import this file easily into all common literature databanks and citation aid programs


List of essential papers. We consider these as the minimum necessary citations

  1. Neese, F.
     Software update: the ORCA program system, version 6.0
     WIRES Comput. Molec. Sci. 2025 15(1), e70019
     doi.org/10.1002/wcms.7019

List of papers to cite with high priority. The work reported in these papers was absolutely
necessary for this run to complete.
Our perspective: the developers of density functionals and basis sets usually get cited in chemistry papers
Good! But without the algorithms to do something with them, the functionals or basis sets would not do anything.
Hence, in our opinion, the algorithm design and method developments papers are equally worthy of getting cited

  1. Neese, F.
     The SHARK Integral Generation and Digestion System
     J. Comp. Chem. 2022 44(3), 381
     doi.org/10.1002/jcc.26942

List of suggested additional citations. These are papers that are important in the 'surrounding' of 
of this run, or papers that preceded the highly important papers. If you like your results we are grateful for a citation.

  1. Neese, F.
     The ORCA program system
     WIRES Comput. Molec. Sci. 2012 2(1), 73-78
     doi.org/10.1002/wcms.81
  2. Neese, F.
     Software update: the ORCA program system, version 4.0
     WIRES Comput. Molec. Sci. 2018 8(1), 1-6
     doi.org/10.1002/wcms.1327
  3. Neese, F.; Wennmohs, F.; Becker, U.; Riplinger, C.
     The ORCA quantum chemistry program package
     J. Chem. Phys. 2020 152(22), 224108
     doi.org/10.1063/5.0004608
  4. Neese, F.
     Software update: The ORCA program system—Version 5.0
     WIRES Comput. Molec. Sci. 2022 12(1), e1606
     doi.org/10.1002/wcms.1606

List of optional additional citations

  1. Neese, F.
     Approximate second-order SCF convergence for spin unrestricted wavefunctions
     Chem. Phys. Lett. 2000 325(1-3), 93-98
     doi.org/10.1016/s0009-2614(00)00662-x

Timings for individual modules:

Sum of individual times          ...        2.233 sec (=   0.037 min)
Startup calculation              ...        0.623 sec (=   0.010 min)  27.9 %
SCF iterations                   ...        1.208 sec (=   0.020 min)  54.1 %
Property calculations            ...        0.402 sec (=   0.007 min)  18.0 %
                             ****ORCA TERMINATED NORMALLY****
TOTAL RUN TIME: 0 days 0 hours 0 minutes 2 seconds 730 msec
