[Molden Format]
[Title]
 Molden file created by orca_2mkl for BaseName=h-shift_043

[Atoms] AU
C    1   6          0.1776966176         0.0280284180        -0.0744533200 
H    2   1          2.3413650108        -0.0885733536        -0.1589051809 
C    3   6          4.5497613318         0.0168299009         2.3964561967 
C    4   6          3.6164218148        -2.0941793838         3.4631026644 
C    5   6          1.0398218052        -2.9939573647         3.3226884537 
C    6   6         -0.4982187363        -2.1869895034         1.4808933335 
H    7   1         -0.8972948807         0.1283842141        -1.8259195310 
H    8   1          0.0287219475         1.8333348164         0.8908168995 
H    9   1          3.6240015063         1.8193187176         2.5106315600 
H   10   1          6.4958882319         0.1229758179         1.8703715589 
H   11   1          4.9394039634        -3.4520572151         4.1970741845 
H   12   1          0.6015886456        -4.7039988891         4.3250388794 
H   13   1         -1.9898268170        -3.4185126865         0.8465765210 
[GTO]
  1 0
s   6 1.0 
     3047.5249000000         0.5363343823
      457.3695100000         0.9894506076
      103.9486900000         1.5972822308
       29.2101550000         2.0791870615
        9.2866630000         1.7741742532
        3.1639270000         0.6125798260
s   3 1.0 
        7.8682724000        -0.3995563516
        1.8812885000        -0.1841552393
        0.5442493000         0.5163903794
p   3 1.0 
        7.8682724000         1.2960827175
        1.8812885000         0.9937536282
        0.5442493000         0.4959527138
s   1 1.0 
        0.1687144000         0.1876178721
p   1 1.0 
        0.1687144000         0.1541275509

  2 0
s   3 1.0 
       18.7311370000         0.2149354183
        2.8253937000         0.3645711272
        0.6401217000         0.4150514277
s   1 1.0 
        0.1612778000         0.1813806839

  3 0
s   6 1.0 
     3047.5249000000         0.5363343823
      457.3695100000         0.9894506076
      103.9486900000         1.5972822308
       29.2101550000         2.0791870615
        9.2866630000         1.7741742532
        3.1639270000         0.6125798260
s   3 1.0 
        7.8682724000        -0.3995563516
        1.8812885000        -0.1841552393
        0.5442493000         0.5163903794
p   3 1.0 
        7.8682724000         1.2960827175
        1.8812885000         0.9937536282
        0.5442493000         0.4959527138
s   1 1.0 
        0.1687144000         0.1876178721
p   1 1.0 
        0.1687144000         0.1541275509

  4 0
s   6 1.0 
     3047.5249000000         0.5363343823
      457.3695100000         0.9894506076
      103.9486900000         1.5972822308
       29.2101550000         2.0791870615
        9.2866630000         1.7741742532
        3.1639270000         0.6125798260
s   3 1.0 
        7.8682724000        -0.3995563516
        1.8812885000        -0.1841552393
        0.5442493000         0.5163903794
p   3 1.0 
        7.8682724000         1.2960827175
        1.8812885000         0.9937536282
        0.5442493000         0.4959527138
s   1 1.0 
        0.1687144000         0.1876178721
p   1 1.0 
        0.1687144000         0.1541275509

  5 0
s   6 1.0 
     3047.5249000000         0.5363343823
      457.3695100000         0.9894506076
      103.9486900000         1.5972822308
       29.2101550000         2.0791870615
        9.2866630000         1.7741742532
        3.1639270000         0.6125798260
s   3 1.0 
        7.8682724000        -0.3995563516
        1.8812885000        -0.1841552393
        0.5442493000         0.5163903794
p   3 1.0 
        7.8682724000         1.2960827175
        1.8812885000         0.9937536282
        0.5442493000         0.4959527138
s   1 1.0 
        0.1687144000         0.1876178721
p   1 1.0 
        0.1687144000         0.1541275509

  6 0
s   6 1.0 
     3047.5249000000         0.5363343823
      457.3695100000         0.9894506076
      103.9486900000         1.5972822308
       29.2101550000         2.0791870615
        9.2866630000         1.7741742532
        3.1639270000         0.6125798260
s   3 1.0 
        7.8682724000        -0.3995563516
        1.8812885000        -0.1841552393
        0.5442493000         0.5163903794
p   3 1.0 
        7.8682724000         1.2960827175
        1.8812885000         0.9937536282
        0.5442493000         0.4959527138
s   1 1.0 
        0.1687144000         0.1876178721
p   1 1.0 
        0.1687144000         0.1541275509

  7 0
s   3 1.0 
       18.7311370000         0.2149354183
        2.8253937000         0.3645711272
        0.6401217000         0.4150514277
s   1 1.0 
        0.1612778000         0.1813806839

  8 0
s   3 1.0 
       18.7311370000         0.2149354183
        2.8253937000         0.3645711272
        0.6401217000         0.4150514277
s   1 1.0 
        0.1612778000         0.1813806839

  9 0
s   3 1.0 
       18.7311370000         0.2149354183
        2.8253937000         0.3645711272
        0.6401217000         0.4150514277
s   1 1.0 
        0.1612778000         0.1813806839

 10 0
s   3 1.0 
       18.7311370000         0.2149354183
        2.8253937000         0.3645711272
        0.6401217000         0.4150514277
s   1 1.0 
        0.1612778000         0.1813806839

 11 0
s   3 1.0 
       18.7311370000         0.2149354183
        2.8253937000         0.3645711272
        0.6401217000         0.4150514277
s   1 1.0 
        0.1612778000         0.1813806839

 12 0
s   3 1.0 
       18.7311370000         0.2149354183
        2.8253937000         0.3645711272
        0.6401217000         0.4150514277
s   1 1.0 
        0.1612778000         0.1813806839

 13 0
s   3 1.0 
       18.7311370000         0.2149354183
        2.8253937000         0.3645711272
        0.6401217000         0.4150514277
s   1 1.0 
        0.1612778000         0.1813806839

[5D]
[7F]
[9G]
[MO]
 Sym=     1a
 Ene= -1.12388651871795E+01
 Spin= Alpha
 Occup= 2.000000
  1      -0.000103129028
  2       0.000009183717
  3       0.000021858819
  4       0.000058663981
  5      -0.000032693691
  6      -0.000292887890
  7      -0.000539907750
  8      -0.000172767219
  9       0.000037736351
 10      -0.000100663332
 11       0.000843810633
 12       0.047506159248
 13       0.000561833036
 14       0.000061750441
 15       0.000223699050
 16      -0.000143190783
 17       0.004775458583
 18      -0.001384480102
 19      -0.002360893770
 20       0.001212688112
 21       0.994260562514
 22       0.024924255008
 23      -0.000048454901
 24       0.000062382334
 25      -0.000309641237
 26      -0.017389287318
 27       0.000889887590
 28      -0.001259411697
 29       0.001405535023
 30       0.037019611852
 31       0.000249403188
 32      -0.000191380292
 33      -0.000077800904
 34       0.000000180856
 35       0.003735780877
 36       0.002140771644
 37       0.001210758532
 38      -0.000060789745
 39       0.010423528783
 40      -0.000069566641
 41      -0.000118692368
 42       0.000044592108
 43      -0.000085095135
 44       0.000074115446
 45       0.000490414867
 46      -0.000231889728
 47       0.000366907742
 48      -0.000002321506
 49      -0.000049912252
 50       0.000050530190
 51      -0.000106484800
 52      -0.000233781194
 53       0.000474280045
 54      -0.000094294597
 55       0.000442452744
 56      -0.000208324507
 57       0.002273532568
 58      -0.000068348341
 59       0.000290887589
 60       0.000040603455
 61       0.000279792199
 Sym=     1a
 Ene= -1.12368387567675E+01
 Spin= Alpha
 Occup= 2.000000
  1       0.015016559736
  2      -0.000032231621
  3       0.000052283431
  4       0.000173664891
  5      -0.000037059999
  6       0.003683486684
  7      -0.000453643450
  8      -0.002231836935
  9       0.001304329679
 10      -0.000152977405
 11       0.000564469877
 12      -0.001253656608
 13       0.000009765824
 14       0.000024702756
 15       0.000008376122
 16      -0.000008028175
 17      -0.000154762997
 18       0.000144063264
 19       0.000133128165
 20       0.000191467111
 21      -0.013438603500
 22      -0.000632403009
 23       0.000152909129
 24       0.000072863434
 25       0.000040303463
 26       0.000391316949
 27      -0.000189897219
 28      -0.000162636827
 29      -0.000121709244
 30       0.080719528936
 31       0.001151131627
 32       0.000140479498
 33      -0.000110173773
 34       0.000147848708
 35       0.004965742016
 36      -0.001276288144
 37       0.001501422182
 38      -0.002236317605
 39       0.992660365992
 40       0.024883989488
 41       0.000321481528
 42      -0.000052132411
 43       0.000019819320
 44      -0.017466854619
 45      -0.002283326168
 46      -0.000788301510
 47      -0.000313757334
 48      -0.000091461030
 49       0.000101211850
 50      -0.000201098084
 51       0.000789231346
 52       0.000047530159
 53      -0.000256644628
 54       0.000012801080
 55      -0.000015767602
 56       0.000011277280
 57       0.000064837002
 58      -0.000084072070
 59       0.000528912881
 60      -0.000225585128
 61       0.002190774503
 Sym=     1a
 Ene= -1.12270816534648E+01
 Spin= Alpha
 Occup= 2.000000
  1      -0.002628047770
  2      -0.000082079473
  3       0.000030666855
  4       0.000078942510
  5      -0.000134085881
  6      -0.001493734643
  7      -0.000107194370
  8       0.000557386677
  9      -0.000061452043
 10      -0.000033214009
 11       0.000314608184
 12      -0.008639612626
 13      -0.000313534767
 14       0.000115291510
 15       0.000088021959
 16      -0.000091476110
 17      -0.000952068411
 18       0.000064919320
 19       0.000322344240
 20       0.000208074748
 21      -0.035936416306
 22      -0.001615206959
 23       0.000182709901
 24       0.000073131803
 25       0.000047885270
 26       0.006546916197
 27      -0.002669811035
 28      -0.000197794534
 29      -0.000964328587
 30       0.992175854203
 31       0.025295627740
 32       0.000163639605
 33       0.000143246694
 34      -0.000369802181
 35      -0.019692052187
 36      -0.000927103429
 37      -0.002215141170
 38       0.002898809066
 39      -0.081694886420
 40      -0.002983700416
 41      -0.000170881342
 42       0.000042735259
 43      -0.000153912612
 44       0.008964775465
 45       0.002959242316
 46      -0.000145186253
 47       0.001858325078
 48       0.000076266226
 49       0.000286951706
 50      -0.000031310116
 51      -0.000087392737
 52      -0.000036102742
 53      -0.000021162595
 54       0.000066803720
 55       0.000263365492
 56      -0.000107889018
 57       0.000223117851
 58      -0.000249186148
 59       0.001852008610
 60      -0.000092276348
 61       0.000185985853
 Sym=     1a
 Ene= -1.12229289472089E+01
 Spin= Alpha
 Occup= 2.000000
  1       0.000252632775
  2       0.000062735549
  3       0.000062264964
  4       0.000029733318
  5       0.000159564005
  6       0.000592020270
  7       0.000484009413
  8      -0.000132227546
  9      -0.001354689699
 10      -0.000125755070
 11      -0.002720447566
 12      -0.995028692190
 13      -0.025646210137
 14       0.000213545852
 15       0.000121466152
 16      -0.000016277229
 17       0.018836520511
 18      -0.001865207320
 19      -0.001343247556
 20       0.000360801281
 21       0.048309571115
 22       0.001989425055
 23       0.000108015417
 24       0.000229831413
 25      -0.000087068053
 26      -0.007303122884
 27      -0.000764984965
 28      -0.002904325603
 29       0.001429981119
 30      -0.006942692408
 31      -0.000106909016
 32       0.000120580026
 33       0.000081076106
 34       0.000001507282
 35       0.000608673092
 36      -0.000152786039
 37      -0.000000893099
 38      -0.000123987780
 39      -0.000068233366
 40      -0.000042357082
 41       0.000061514624
 42       0.000025222717
 43      -0.000000636970
 44       0.000376952963
 45       0.000071435077
 46       0.000453594924
 47      -0.000082662151
 48      -0.000132083776
 49      -0.000623808027
 50       0.000038331319
 51       0.000749138140
 52      -0.000064330871
 53      -0.003260691083
 54       0.000142798546
 55      -0.002615365243
 56       0.000099833004
 57      -0.000145392531
 58      -0.000032704297
 59      -0.000267293404
 60       0.000018475413
 61       0.000068433239
 Sym=     1a
 Ene= -1.12123724925886E+01
 Spin= Alpha
 Occup= 2.000000
  1       0.996114375349
  2       0.026192868748
  3      -0.000006575028
  4      -0.000026110904
  5       0.000304841575
  6      -0.019672015731
  7      -0.000476264791
  8       0.000772296411
  9      -0.001653969699
 10       0.000040313977
 11       0.003812727653
 12       0.000246686107
 13      -0.000094328531
 14       0.000171617797
 15      -0.000057079277
 16      -0.000056635138
 17       0.000254668556
 18      -0.001284077547
 19       0.000122424712
 20       0.000745132749
 21       0.000214699948
 22       0.000033399122
 23       0.000036868389
 24      -0.000041659658
 25       0.000053784532
 26      -0.000859118843
 27       0.000303100772
 28      -0.000458201904
 29       0.000110933706
 30       0.001386373688
 31      -0.000151962093
 32       0.000070388134
 33      -0.000077433112
 34       0.000085215356
 35       0.000333480797
 36      -0.000126017645
 37       0.000407180242
 38      -0.000337418099
 39      -0.015371611480
 40      -0.000901946667
 41      -0.000030098040
 42      -0.000115370382
 43       0.000083861163
 44       0.004974547577
 45       0.000591578459
 46       0.002325941881
 47      -0.001505614984
 48      -0.000020198785
 49       0.002682255899
 50       0.000112579905
 51       0.003548585829
 52      -0.000062196588
 53      -0.000664470929
 54       0.000174007571
 55       0.000733740089
 56      -0.000029870217
 57      -0.000059261873
 58       0.000044337759
 59       0.000434429232
 60      -0.000133705932
 61       0.000102684948
 Sym=     1a
 Ene= -1.11763108539824E+00
 Spin= Alpha
 Occup= 2.000000
  1       0.072127009237
  2      -0.131519884850
  3      -0.004307349227
  4       0.036076743106
  5      -0.035202898962
  6      -0.129354398632
  7      -0.014324663456
  8       0.004198412305
  9      -0.018387893163
 10      -0.048950335361
 11       0.002396264824
 12       0.076113312200
 13      -0.145243107735
 14       0.034860770119
 15       0.049521302814
 16      -0.021912776103
 17      -0.108756950207
 18       0.005008608838
 19       0.001960457685
 20       0.003594658719
 21       0.109699157463
 22      -0.216330215108
 23       0.038597479565
 24      -0.022230705656
 25       0.032704510712
 26      -0.135013950949
 27       0.006553316318
 28      -0.000640815894
 29       0.004926342055
 30       0.122181316934
 31      -0.240337327453
 32      -0.010709244341
 33      -0.041993573158
 34       0.059000537980
 35      -0.157171828488
 36      -0.003874229564
 37      -0.002973880117
 38       0.005836115197
 39       0.111371555113
 40      -0.220592463986
 41      -0.065777858831
 42      -0.002209862263
 43      -0.033257191015
 44      -0.126615691515
 45       0.001241236152
 46       0.005381374236
 47       0.001979918026
 48      -0.030325450749
 49      -0.008291820053
 50      -0.035769400854
 51       0.001633119067
 52      -0.039835416965
 53      -0.003323071313
 54      -0.032364651858
 55      -0.001595471942
 56      -0.050389515763
 57      -0.008028461330
 58      -0.053525594674
 59      -0.005766230904
 60      -0.048843147156
 61      -0.002938364347
 Sym=     1a
 Ene= -1.01488793805480E+00
 Spin= Alpha
 Occup= 2.000000
  1      -0.091826689376
  2       0.175314929262
  3      -0.021040646207
  4      -0.039233123309
  5       0.029431228437
  6       0.163310954538
  7      -0.002053873486
  8      -0.001782629963
  9       0.008458292913
 10       0.030235652429
 11       0.003542891591
 12       0.124819003851
 13      -0.241388962967
 14       0.018036421957
 15       0.070237242467
 16      -0.043386576075
 17      -0.205681579682
 18       0.009301467171
 19       0.003560736327
 20      -0.004483490347
 21       0.115984893677
 22      -0.232497474679
 23      -0.056736401834
 24      -0.070917202656
 25       0.032772738134
 26      -0.160670233632
 27      -0.011345751010
 28       0.007311912671
 29      -0.003451979061
 30      -0.024833021684
 31       0.048541920782
 32      -0.098583010688
 33       0.001695126849
 34      -0.059621448118
 35       0.034584074288
 36      -0.010691550591
 37      -0.008300457682
 38      -0.001446303823
 39      -0.107460460943
 40       0.214737153660
 41       0.021735305949
 42       0.019332878734
 43      -0.011329280648
 44       0.157005881076
 45       0.001386865579
 46       0.000117530397
 47      -0.004242325642
 48       0.053771115009
 49       0.011124273166
 50       0.050512523693
 51       0.002845863473
 52      -0.064053778968
 53      -0.004958088560
 54      -0.073600290722
 55      -0.017745232786
 56      -0.070771104225
 57      -0.012099952685
 58       0.012845933094
 59      -0.001076681251
 60       0.065604995476
 61       0.015107287697
 Sym=     1a
 Ene= -9.44995832701567E-01
 Spin= Alpha
 Occup= 2.000000
  1      -0.134795120204
  2       0.251593228813
  3       0.007105710799
  4       0.016766503877
  5       0.002407407295
  6       0.293275146641
  7       0.013222588071
  8      -0.000111842335
  9       0.016678183316
 10       0.097314510779
 11       0.017064683246
 12      -0.079257217644
 13       0.151711824895
 14      -0.004223400866
 15       0.009299659220
 16      -0.002757082490
 17       0.154168532445
 18      -0.011979184178
 19       0.003880194645
 20      -0.006068085641
 21       0.018532042945
 22      -0.037710943116
 23       0.093497469446
 24       0.092562318262
 25      -0.030408930569
 26      -0.041669059918
 27       0.021925039306
 28       0.002972361503
 29       0.000750794495
 30       0.122181727818
 31      -0.243379931558
 32       0.007646984698
 33       0.017925034794
 34       0.017086322566
 35      -0.184912292161
 36      -0.001457662777
 37       0.021207430468
 38      -0.008440207473
 39       0.019801922499
 40      -0.036187098248
 41      -0.036097929330
 42       0.115622567190
 43      -0.123018060559
 44      -0.063883624896
 45      -0.016537524233
 46       0.003244694796
 47      -0.018776131664
 48       0.091950735318
 49       0.029865091400
 50       0.099181412734
 51       0.022475990036
 52       0.067273489995
 53       0.018914810650
 54       0.057147406006
 55       0.019248477393
 56      -0.019379043947
 57      -0.011919769652
 58      -0.093219012168
 59      -0.024045674912
 60      -0.015671330163
 61      -0.009816638155
 Sym=     1a
 Ene= -8.09778910462079E-01
 Spin= Alpha
 Occup= 2.000000
  1       0.073510750413
  2      -0.140347622393
  3      -0.003183593306
  4      -0.068352104386
  5       0.034611823368
  6      -0.174005649976
  7       0.005703167208
  8      -0.015216725058
  9       0.011246437307
 10      -0.039533294772
 11      -0.018744879991
 12      -0.099539707527
 13       0.194715832850
 14       0.049965437537
 15       0.081039224263
 16      -0.018325344994
 17       0.202687293674
 18       0.014781062098
 19       0.029341312948
 20      -0.010069074515
 21       0.085339465766
 22      -0.173942440106
 23       0.067444939730
 24       0.139472684057
 25      -0.053674410029
 26      -0.169080782450
 27       0.014561128415
 28       0.043785589426
 29      -0.017862323444
 30       0.016570602552
 31      -0.034253250844
 32      -0.194474641212
 33       0.009435867289
 34      -0.103991766902
 35      -0.028766545391
 36      -0.044266151942
 37       0.000542602470
 38      -0.022716268879
 39      -0.089363298658
 40       0.179795976423
 41      -0.028636311353
 42      -0.097691034392
 43       0.053625705127
 44       0.181443061367
 45      -0.019412188997
 46      -0.021358677035
 47       0.001059339276
 48      -0.074740908636
 49      -0.027858171246
 50      -0.077561550602
 51      -0.031023757841
 52       0.106102300175
 53       0.040443091594
 54       0.113690072840
 55       0.047527588421
 56      -0.107666920930
 57      -0.045036143831
 58      -0.023803316978
 59      -0.012449745347
 60       0.107736304941
 61       0.043612538131
 Sym=     1a
 Ene= -7.26307718864342E-01
 Spin= Alpha
 Occup= 2.000000
  1       0.014792891151
  2      -0.020873511418
  3      -0.110911018825
  4      -0.120306615755
  5      -0.005628252835
  6      -0.058011546619
  7      -0.052794849886
  8      -0.040540302366
  9      -0.014498617758
 10      -0.081828682329
 11      -0.039626020140
 12       0.027972098937
 13      -0.051026926077
 14       0.038846252281
 15      -0.186218812622
 16       0.067223088186
 17      -0.074169361196
 18       0.024301102200
 19      -0.060938503731
 20       0.029434937391
 21      -0.069633691254
 22       0.140804287822
 23       0.184535139993
 24      -0.011836938674
 25       0.018482988864
 26       0.150085511542
 27       0.056221842979
 28      -0.026565914036
 29       0.015657442782
 30       0.079068163341
 31      -0.161230166233
 32       0.003828422568
 33       0.027892670984
 34      -0.034977700706
 35      -0.168775865467
 36      -0.002337485357
 37       0.029830967829
 38      -0.027080517871
 39      -0.074625520652
 40       0.150619042413
 41      -0.136365496171
 42      -0.013921122079
 43      -0.134560265022
 44       0.168308288887
 45      -0.049477322352
 46      -0.010810212301
 47      -0.046871363816
 48       0.017216500544
 49       0.006801662309
 50      -0.068197005169
 51      -0.035833721738
 52      -0.127844352282
 53      -0.072491630482
 54      -0.021919578362
 55      -0.012162540765
 56       0.137112298375
 57       0.067242554509
 58      -0.099754177534
 59      -0.040017246065
 60       0.152209236355
 61       0.079724526718
 Sym=     1a
 Ene= -6.77453094022131E-01
 Spin= Alpha
 Occup= 2.000000
  1       0.025014775195
  2      -0.048711899142
  3       0.084041542926
  4      -0.081164945309
  5       0.119560686711
  6      -0.068473937330
  7       0.043002639129
  8      -0.028577805043
  9       0.053796604618
 10       0.026986158307
 11       0.017108650222
 12       0.023987222721
 13      -0.048050136197
 14      -0.173872412747
 15      -0.095447098284
 16       0.043781590951
 17      -0.069706012375
 18      -0.064634414032
 19      -0.027954575525
 20       0.010495674458
 21      -0.023962030496
 22       0.048685498506
 23      -0.093058348691
 24       0.132148984471
 25      -0.093780107789
 26       0.048388764699
 27      -0.038291010223
 28       0.045825557501
 29      -0.037155886451
 30       0.026736036836
 31      -0.051043819175
 32       0.048355491094
 33       0.237710419122
 34      -0.160852159555
 35      -0.083498425968
 36       0.016887637858
 37       0.093906379536
 38      -0.060760067811
 39      -0.022955605466
 40       0.046465237982
 41       0.149093055079
 42       0.092211557132
 43       0.045247836421
 44       0.038488868903
 45       0.051828872538
 46       0.035840712428
 47       0.009784494601
 48      -0.107937016981
 49      -0.061729228598
 50      -0.036622218778
 51      -0.024651793660
 52      -0.025568885286
 53      -0.019807604538
 54      -0.127837361825
 55      -0.078938794711
 56      -0.077625141328
 57      -0.051036495059
 58      -0.189154765515
 59      -0.112569615731
 60      -0.075272482147
 61      -0.050535522353
 Sym=     1a
 Ene= -5.96385137983339E-01
 Spin= Alpha
 Occup= 2.000000
  1       0.014316383619
  2      -0.027402360077
  3      -0.094007874073
  4      -0.045800643513
  5      -0.080356782963
  6      -0.039328801721
  7      -0.039390052619
  8      -0.022137915555
  9      -0.029700974504
 10      -0.043466012273
 11      -0.036598312234
 12      -0.008983905249
 13       0.017186855033
 14      -0.271305200567
 15       0.134765516079
 16       0.080611076568
 17       0.043175719080
 18      -0.134812288001
 19       0.063740048950
 20       0.037344433563
 21      -0.018158527684
 22       0.042655071087
 23      -0.181205903809
 24       0.084520708273
 25       0.011871759179
 26       0.022853479940
 27      -0.059384574279
 28       0.020555986673
 29       0.021161779432
 30       0.009915656107
 31      -0.022931873578
 32       0.154780101946
 33      -0.026981592136
 34       0.134356910444
 35       0.014511099809
 36       0.048799598517
 37       0.012652392492
 38       0.033931253978
 39       0.001758221530
 40      -0.006016356341
 41      -0.203993744094
 42      -0.039261910072
 43      -0.159236995615
 44      -0.002031804792
 45      -0.096993951003
 46      -0.027930264888
 47      -0.066994388636
 48       0.057651348085
 49       0.048457850617
 50      -0.050190814060
 51      -0.028202891353
 52       0.160108079435
 53       0.105468372399
 54      -0.162373834835
 55      -0.111905674386
 56      -0.085576430778
 57      -0.072092709875
 58       0.023477249953
 59       0.026703219008
 60       0.140298890252
 61       0.096130121794
 Sym=     1a
 Ene= -5.83064111647367E-01
 Spin= Alpha
 Occup= 2.000000
  1       0.008001297637
  2      -0.010202345225
  3       0.021726281043
  4      -0.225104044796
  5       0.082998882978
  6      -0.044131874092
  7       0.016249366727
  8      -0.091241022177
  9       0.027968448454
 10       0.014377836371
 11       0.011926907544
 12       0.005914602927
 13      -0.017815956869
 14       0.143771030249
 15       0.254943410865
 16      -0.130251349512
 17       0.016833865019
 18       0.053845090255
 19       0.095401137074
 20      -0.050018356322
 21       0.009151429570
 22      -0.022868817457
 23      -0.135526802588
 24      -0.276124790151
 25       0.101329722821
 26      -0.000193419041
 27      -0.041280419844
 28      -0.098780358224
 29       0.029465892516
 30       0.009579806336
 31      -0.018852381944
 32       0.208182248047
 33       0.060985835694
 34       0.010237456746
 35      -0.027961993802
 36       0.083214714565
 37       0.024148696142
 38      -0.000912213815
 39      -0.021241971609
 40       0.043028087561
 41       0.041204845449
 42       0.145049459641
 43      -0.162791712898
 44       0.078404053197
 45       0.024561639316
 46       0.057794166387
 47      -0.065287291535
 48      -0.067738054786
 49      -0.050358707587
 50      -0.108521801568
 51      -0.082765634424
 52       0.086803148568
 53       0.061275945363
 54       0.112505420020
 55       0.085094098077
 56       0.074643351867
 57       0.057839937255
 58      -0.069953449981
 59      -0.049258935395
 60      -0.015697723046
 61      -0.014250703536
 Sym=     1a
 Ene= -5.59741676799503E-01
 Spin= Alpha
 Occup= 2.000000
  1       0.011479595211
  2      -0.028506396639
  3       0.083729575467
  4       0.171361951408
  5       0.269362030680
  6       0.006952892535
  7       0.058471114833
  8       0.082584051351
  9       0.157904951909
 10       0.008995204304
 11      -0.016947596164
 12       0.019182269480
 13      -0.042897617588
 14      -0.090162926899
 15       0.130625854755
 16       0.034226297587
 17      -0.020337774642
 18      -0.080277843893
 19       0.057692382720
 20       0.024342429576
 21      -0.010585328201
 22       0.023194423159
 23       0.128288200720
 24      -0.111937487447
 25       0.123991621000
 26       0.011586181398
 27       0.095085452629
 28      -0.077867909540
 29       0.073842376307
 30       0.030265576911
 31      -0.065796547465
 32      -0.070381505124
 33      -0.009146311641
 34       0.026254679843
 35      -0.046214610034
 36      -0.017442557940
 37       0.033943792335
 38       0.005215642336
 39      -0.022774536768
 40       0.049367376615
 41      -0.089170472193
 42      -0.010056377197
 43       0.045133150161
 44       0.041818717429
 45      -0.071891809966
 46      -0.028724016076
 47       0.017379659039
 48      -0.192799604515
 49      -0.140962155727
 50       0.174159210286
 51       0.137109553992
 52       0.100673366919
 53       0.080168141413
 54      -0.084670526227
 55      -0.048516007882
 56       0.150881205536
 57       0.094966512712
 58      -0.013739368547
 59       0.006259710717
 60       0.068871119702
 61       0.034673817093
 Sym=     1a
 Ene= -5.47403585051410E-01
 Spin= Alpha
 Occup= 2.000000
  1       0.000463312711
  2      -0.004939755579
  3       0.319801427688
  4      -0.089972084604
  5      -0.077375500442
  6       0.023888470167
  7       0.174890459253
  8      -0.051326289423
  9      -0.022482918030
 10       0.234464667728
 11       0.210485008312
 12       0.012065574695
 13      -0.026545599195
 14      -0.103043319392
 15      -0.055761786420
 16      -0.067526986326
 17      -0.020376620762
 18      -0.058886909071
 19      -0.026947282981
 20      -0.045788075981
 21       0.002633282111
 22      -0.008994169643
 23       0.098120083405
 24      -0.040932668144
 25      -0.064010701616
 26      -0.011961694900
 27       0.044159508271
 28      -0.035038420161
 29      -0.041279649903
 30       0.021705743314
 31      -0.048691770688
 32      -0.017902226859
 33      -0.164579759915
 34      -0.017306654333
 35      -0.053887404888
 36       0.003719199970
 37      -0.074541275899
 38      -0.023408467239
 39       0.010229181037
 40      -0.022736257291
 41      -0.014665472086
 42      -0.157741223682
 43      -0.092153144828
 44      -0.031286464403
 45      -0.009420085964
 46      -0.097884423666
 47      -0.051102532532
 48      -0.067011785792
 49      -0.042700151487
 50      -0.100470135556
 51      -0.094267686755
 52      -0.009836961134
 53      -0.014945039132
 54      -0.075218418539
 55      -0.055977935464
 56       0.043771771461
 57       0.032369654670
 58       0.062763414851
 59       0.054724455672
 60       0.076713794735
 61       0.049944150706
 Sym=     1a
 Ene= -5.08412761850970E-01
 Spin= Alpha
 Occup= 2.000000
  1      -0.013544946377
  2       0.029829017222