
                                 *****************
                                 * O   R   C   A *
                                 *****************

                                            #,                                       
                                            ###                                      
                                            ####                                     
                                            #####                                    
                                            ######                                   
                                           ########,                                 
                                     ,,################,,,,,                         
                               ,,#################################,,                 
                          ,,##########################################,,             
                       ,#########################################, ''#####,          
                    ,#############################################,,   '####,        
                  ,##################################################,,,,####,       
                ,###########''''           ''''###############################       
              ,#####''   ,,,,##########,,,,          '''####'''          '####       
            ,##' ,,,,###########################,,,                        '##       
           ' ,,###''''                  '''############,,,                           
         ,,##''                                '''############,,,,        ,,,,,,###''
      ,#''                                            '''#######################'''  
     '                                                          ''''####''''         
             ,#######,   #######,   ,#######,      ##                                
            ,#'     '#,  ##    ##  ,#'     '#,    #''#        ,####,    ,#,          
            ##       ##  ##   ,#'  ##            #'  '#       #'       ,# #          
            ##       ##  #######   ##           ,######,      #####,      #          
            '#,     ,#'  ##    ##  '#,     ,#' ,#      #,     #,   #      #          
             '#######'   ##     ##  '#######'  #'      '#     '####' #    #          



                #########################################################
                #                        -***-                          #
                #          Department of theory and spectroscopy        #
                #                                                       #
                #                      Frank Neese                      #
                #                                                       #
                #     Directorship, Architecture, Infrastructure        #
                #                    SHARK, DRIVERS                     #
                #        Core code/Algorithms in most modules           #
                #                                                       #
                #        Max Planck Institute fuer Kohlenforschung      #
                #                Kaiser Wilhelm Platz 1                 #
                #                 D-45470 Muelheim/Ruhr                 #
                #                      Germany                          #
                #                                                       #
                #                  All rights reserved                  #
                #                        -***-                          #
                #########################################################


                         Program Version 6.1.0  -  RELEASE   -
                                (GIT: $679e74b$)
                          ($2025-06-10 18:02:51 +0200$)


 With contributions from (in alphabetic order):
[Max-Planck-Institut fuer Kohlenforschung]                               
  Daniel Aravena         : Magnetic Suceptibility                        
  Michael Atanasov       : Ab Initio Ligand Field Theory (pilot matlab implementation)
  Alexander A. Auer      : GIAO ZORA, VPT2 properties, NMR spectrum      
  Ute Becker             : All parallelization in ORCA, NUMFREQ, NUMCALC 
  Giovanni Bistoni       : ED, misc. LED, open-shell LED, HFLD           
  Dmytro Bykov           : pre 5.0 version of the SCF Hessian            
  Marcos Casanova-Páez   : Triplet and SCS-CIS(D). UHF-(DLPNO)-IP/EA/STEOM-CCSD. UHF-CVS-IP/STEOM-CCSD   
  Vijay G. Chilkuri      : MRCI spin determinant printing, contributions to CSF-ICE 
  Pauline Colinet        : FMM embedding                                 
  Dipayan Datta          : RHF DLPNO-CCSD density                        
  Achintya Kumar Dutta   : EOM-CC, STEOM-CC                              
  Nicolas Foglia         : Exact transition moments, OPA infrastructure, MCD improvements    
  Dmitry Ganyushin       : Spin-Orbit,Spin-Spin,Magnetic field MRCI      
  Miquel Garcia-Rates    : C-PCM and meta-GGA Hessian, CCSD/C-PCM, Gaussian charge scheme 
  Tiago L. C. Gouveia    : GS-ROHF, GS-ROCIS                             
  Yang Guo               : DLPNO-NEVPT2, F12-NEVPT2, CIM, IAO-localization        
  Andreas Hansen         : Spin unrestricted coupled pair/coupled cluster methods 
  Ingolf Harden          : AUTO-CI MPn and infrastructure                
  Benjamin Helmich-Paris : MC-RPA, TRAH-(SCF,CASSCF), AVAS, COSX integrals, SCF dyn. polar., MC-PDFT, srDFT 
  Lee Huntington         : MR-EOM, pCC                                   
  Robert Izsak           : Overlap fitted RIJCOSX, COSX-SCS-MP3, EOM     
  Riya Kayal             : Wick's Theorem for AUTO-CI, AUTO-CI UHF-CCSDT 
  Emily Kempfer          : AUTO-CI RHF CISDT and CCSDT, approximate NEVPT4
  Christian Kollmar      : KDIIS, OOCD, Brueckner-CCSD(T), CCSD density, CASPT2, CASPT2-K, improved NEVPT2 
  Axel Koslowski         : Symmetry handling                             
  Simone Kossmann        : meta-GGA functionals, TD-DFT gradient, OOMP2, (MP2 Hessian; deprecated post 5.0) 
  Lucas Lang             : DCDCAS, Hyperfine gauge corrections, ICE-SOC+SSC
  Marvin Lechner         : AUTO-CI (C++ implementation), FIC-MRCC        
  Spencer Leger          : CASSCF response                               
  Dagmar Lenk            : GEPOL surface, SMD, ORCA-2-JSON               
  Dimitrios Liakos       : Extrapolation schemes; Compound Job, Property file
  Dimitrios Manganas     : Further ROCIS development; embedding schemes. LFT, Crystal Embedding 
  Dimitrios Pantazis     : SARC Basis sets                               
  Anastasios Papadopoulos: AUTO-CI, single reference methods and gradients 
  Taras Petrenko         : pre 6.0 DFT Hessian and TD-DFT gradient,  ECA, NRVS 
  Petra Pikulova         : Analytic Raman intensities                    
  Peter Pinski           : DLPNO-MP2, DLPNO-MP2 Gradient                 
  Shashank Vittal Rao    : ES-AILFT, MagRelax                            
  Christoph Reimann      : Effective Core Potentials                     
  Marius Retegan         : Local ZFS, SOC                                
  Christoph Riplinger    : Optimizer, TS searches, QM/MM, DLPNO-CCSD(T), (RO)-DLPNO pert. Triples 
  Michael Roemelt        : Original ROCIS implementation, recursive CI coupling coefficients
  Masaaki Saitow         : Open-shell DLPNO-CCSD energy and density      
  Barbara Sandhoefer     : DKH picture change effects                    
  Yorick L. A. Schmerwitz: GMF and freeze-and-release deltaSCF, NEB S-IDPP initial path                    
  Kantharuban Sivalingam : CASSCF convergence/infrastructure, NEVPT2, NEVPT3, NEVPT4(SD), FIC-MRCI and CEPA variants
  Bernardo de Souza      : ESD, SOC TD-DFT                               
  Georgi L. Stoychev     : AutoAux, RI-MP2 NMR, DLPNO-MP2 response, X2C  
  Van Anh Tran           : RI-MP2 g-tensors                              
  Willem Van den Heuvel  : Paramagnetic NMR                              
  Zikuan Wang            : NOTCH, Electric field optimization            
  Frank Wennmohs         : Technical directorship and infrastructure     
  Hang Xu                : AUTO-CI-Response properties                   
                                                                         
[FACCTs GmbH]                                                            
  Markus Bursch, Nicolas Foglia, Miquel Garcia-Rates, Ingolf Harden, Hagen Neugebauer, Anastasios Papadopoulos, 
  Christoph Riplinger, Bernardo de Souza, Georgi L. Stoychev                                                    
                                                                 
  APM, various basis sets, CI-OPT, improved COSX, DLPNO-Multilevel,           
  DOCKER, DRACO, updates on ESD, Fragmentator, GOAT, IRC, LR-CPCM, L-BFGS, MBIS, meta-GGA TD-DFT gradient, ML-optimized integration grids, 
  MM, NACMEs, nearIR, NEB, NEB-TS, NL-DFT gradient (VV10), 2- and 3-layer-ONIOM, interface openCOSMO-RS, QMMM,   
  Crystal-QMMM, RESP, rigid body optimization, SF, symmetry and pop. for TD-DFT, various functionals, SOLVATOR                                   
                                                                         
[Other institutions]                                                     
  V. Asgeirsson          : NEB                                           
  Christoph Bannwarth    : sTDA-DFT, sTD-DFT, PBEh-3c, B97-3c, D3        
  Giovanni Bistoni       : ETS/NOCV, ADLD/ADEX, COVALED                  
  Martin Brehm           : Molecular dynamics                            
  Ronald Cardenas        : ETS/NOCV                                      
  Martina Colucci        : COVALED                                       
  Sebastian Ehlert       : rSCAN, r2SCAN, r2SCAN-3c, D4, dhf basis sets  
  Marvin Friede          : D4 for Fr, Ra, Ac-Lr                          
  Lars Goerigk           : TD-DFT with DH, B97 family of functionals     
  Stefan Grimme          : VdW corrections, initial TS optimization, DFT functionals, gCP, sTDA/sTD-DF 
  Waldemar Hujo          : DFT-NL                                        
  H. Jonsson             : NEB                                           
  Holger Kruse           : gCP                                           
  Marcel Mueller         : wB97X-3c, vDZP basis set                      
  Hagen Neugebauer       : wr2SCAN, Native XTB                           
  Gianluca Regni         : ADLD/ADEX                                     
  Tobias Risthaus        : pre 6.0 range-separated hybrid DFT and stability analysis
  Lukas Wittmann         : regularized MP2, r2SCAN double-hybrids, wr2SCAN        
                                                                         
We gratefully acknowledge several colleagues who have allowed us to      
interface, adapt or use parts of their codes:                            
  Ed Valeev, F. Pavosevic, A. Kumar             : LibInt (2-el integral package), F12 methods 
  Garnet Chan, S. Sharma, J. Yang, R. Olivares  : DMRG                   
  Ulf Ekstrom                                   : XCFun DFT Library      
  Mihaly Kallay                                 : mrcc  (arbitrary order and MRCC methods)
  Frank Weinhold                                : gennbo (NPA and NBO analysis)           
  Simon Mueller                                 : openCOSMO-RS                            
  Christopher J. Cramer and Donald G. Truhlar   : smd solvation model                     
  S Lehtola, MJT Oliveira, MAL Marques          : LibXC Library                           
  Liviu Ungur et al                             : ANISO software                          


 Your calculation uses the libint2 library for the computation of 2-el integrals
 For citations please refer to: http://libint.valeyev.net

 Your ORCA version has been built with support for libXC version: 7.0.0
 For citations please refer to: https://libxc.gitlab.io

 This ORCA versions uses:
   CBLAS   interface :  Fast vector & matrix operations
   LAPACKE interface :  Fast linear algebra routines
   SCALAPACK package :  Parallel linear algebra routines
   Shared memory     :  Shared parallel matrices
   BLAS/LAPACK       :  OpenBLAS 0.3.29  USE64BITINT DYNAMIC_ARCH NO_AFFINITY Zen SINGLE_THREADED
        Core in use  :  Zen
   Copyright (c) 2011-2014, The OpenBLAS Project


  ***********************************
  * Starting time: Sun Apr  5 13:01:21 2026
  * Host name:     QC1
  * Process ID:    8309
  * Working dir.:  /home/user/QC/h-shift/split_2
  ***********************************

NOTE: MaxCore=1200 MB was set to SCF,MP2,MDCI,CIPSI,MRCI,RASCI and CIS
      => If you want to overwrite this, your respective input block should be placed after the MaxCore statement
================================================================================

----- Orbital basis set information -----
Your calculation utilizes the basis: 6-31G
   H-He, Li-Ne : W. J. Hehre, R. Ditchfield and J.A. Pople, J. Chem. Phys. 56, 2257 (1972).
                 Note: He and Ne are unpublished basis sets taken from the Gaussian program.
                 Note: Li and B from J. D. Dill and J. A. Pople, J. Chem. Phys. 62, 2921 (1975).
   Na - Ar     : M. M. Francl, W. J. Pietro, W. J. Hehre, J. S. Binkley, M. S. Gordon, 
                 D. J. DeFrees and J. A. Pople, J. Chem. Phys. 77, 3654 (1982).
   K - Zn      : V. A. Rassolov, J. A. Pople, M. A. Ratner, and T. L. Windus, J. Chem. Phys. 109, 1223 (1998).

================================================================================
                                        WARNINGS
                       Please study these warnings very carefully!
================================================================================


================================================================================
                                       INPUT FILE
================================================================================
NAME = h-shift_041.inp
|  1> ! HF 6-31G
|  2> %maxcore 1200
|  3> %pal nprocs 8 end
|  4> * xyz 0 1
|  5> C    0.09407500   0.01845000  -0.04385300
|  6> H    1.18065000  -0.04432500  -0.15935200
|  7> C    2.44329400   0.02303500   1.34116200
|  8> C    1.92844400  -1.10652500   1.84309400
|  9> C    0.55296000  -1.58673700   1.75690300
| 10> C   -0.25855800  -1.16409400   0.78281900
| 11> H   -0.45513500   0.06634800  -0.96915800
| 12> H   -0.01263200   0.96607800   0.47201500
| 13> H    1.91276300   0.95175000   1.29937400
| 14> H    3.46403000   0.07028300   1.02069400
| 15> H    2.62133500  -1.84547000   2.19827700
| 16> H    0.31683300  -2.48822000   2.29305700
| 17> H   -1.07228600  -1.79261900   0.46535900
| 18> *
| 19> 
| 20>                          ****END OF INPUT****
================================================================================

                       ****************************
                       * Single Point Calculation *
                       ****************************

---------------------------------
CARTESIAN COORDINATES (ANGSTROEM)
---------------------------------
  C      0.094075    0.018450   -0.043853
  H      1.180650   -0.044325   -0.159352
  C      2.443294    0.023035    1.341162
  C      1.928444   -1.106525    1.843094
  C      0.552960   -1.586737    1.756903
  C     -0.258558   -1.164094    0.782819
  H     -0.455135    0.066348   -0.969158
  H     -0.012632    0.966078    0.472015
  H      1.912763    0.951750    1.299374
  H      3.464030    0.070283    1.020694
  H      2.621335   -1.845470    2.198277
  H      0.316833   -2.488220    2.293057
  H     -1.072286   -1.792619    0.465359

----------------------------
CARTESIAN COORDINATES (A.U.)
----------------------------
  NO LB      ZA    FRAG     MASS         X           Y           Z
   0 C     6.0000    0    12.011    0.177776    0.034865   -0.082870
   1 H     1.0000    0     1.008    2.231105   -0.083762   -0.301132
   2 C     6.0000    0    12.011    4.617157    0.043530    2.534429
   3 C     6.0000    0    12.011    3.644231   -2.091029    3.482943
   4 C     6.0000    0    12.011    1.044943   -2.998498    3.320066
   5 C     6.0000    0    12.011   -0.488604   -2.199819    1.479314
   6 H     1.0000    0     1.008   -0.860081    0.125380   -1.831443
   7 H     1.0000    0     1.008   -0.023871    1.825623    0.891979
   8 H     1.0000    0     1.008    3.614598    1.798547    2.455461
   9 H     1.0000    0     1.008    6.546068    0.132816    1.928832
  10 H     1.0000    0     1.008    4.953605   -3.487433    4.154141
  11 H     1.0000    0     1.008    0.598728   -4.702054    4.333250
  12 H     1.0000    0     1.008   -2.026327   -3.387559    0.879401

--------------------------------
INTERNAL COORDINATES (ANGSTROEM)
--------------------------------
 C      0   0   0     0.000000000000     0.00000000     0.00000000
 H      1   0   0     1.094498035746     0.00000000     0.00000000
 C      2   1   0     1.962230747015   123.78999854     0.00000000
 C      3   2   1     1.338996657473    90.58872064    62.89737962
 C      4   3   2     1.459448076391   128.15684321   328.33905766
 C      5   4   3     1.336423663674   120.74938776    22.92404956
 H      1   2   3     1.077086433639   114.71510398   174.12729739
 H      1   2   3     1.084207085227   101.42276581    57.25219335
 H      3   2   1     1.070383543469    71.39728910   297.22042019
 H      3   2   1     1.070903400977   112.70634664   187.19964891
 H      4   3   2     1.073448934228   117.16497044   136.00850937
 H      5   4   3     1.075122630742   116.96436076   184.59558919
 H      6   5   4     1.076093762276   119.30715588   153.73109689

---------------------------
INTERNAL COORDINATES (A.U.)
---------------------------
 C      0   0   0     0.000000000000     0.00000000     0.00000000
 H      1   0   0     2.068301541674     0.00000000     0.00000000
 C      2   1   0     3.708078723419   123.78999854     0.00000000
 C      3   2   1     2.530336976860    90.58872064    62.89737962
 C      4   3   2     2.757957171057   128.15684321   328.33905766
 C      5   4   3     2.525474723236   120.74938776    22.92404956
 H      1   2   3     2.035398382139   114.71510398   174.12729739
 H      1   2   3     2.048854463537   101.42276581    57.25219335
 H      3   2   1     2.022731755413    71.39728910   297.22042019
 H      3   2   1     2.023714143731   112.70634664   187.19964891
 H      4   3   2     2.028524504440   117.16497044   136.00850937
 H      5   4   3     2.031687332484   116.96436076   184.59558919
 H      6   5   4     2.033522505122   119.30715588   153.73109689

---------------------
BASIS SET INFORMATION
---------------------
There are 2 groups of distinct atoms

 Group   1 Type C   : 10s4p contracted to 3s2p pattern {631/31}
 Group   2 Type H   : 4s contracted to 2s pattern {31}

Atom   0C    basis set group =>   1
Atom   1H    basis set group =>   2
Atom   2C    basis set group =>   1
Atom   3C    basis set group =>   1
Atom   4C    basis set group =>   1
Atom   5C    basis set group =>   1
Atom   6H    basis set group =>   2
Atom   7H    basis set group =>   2
Atom   8H    basis set group =>   2
Atom   9H    basis set group =>   2
Atom  10H    basis set group =>   2
Atom  11H    basis set group =>   2
Atom  12H    basis set group =>   2


           ************************************************************
           *        Program running with 8 parallel MPI-processes     *
           *              working on a common directory               *
           ************************************************************
------------------------------------------------------------------------------
                             ORCA STARTUP CALCULATIONS
------------------------------------------------------------------------------
------------------------------------------------------------------------------
                   ___                                                        
                  /   \      - P O W E R E D   B Y -                         
                 /     \                                                     
                 |  |  |   _    _      __       _____    __    __             
                 |  |  |  | |  | |    /  \     |  _  \  |  |  /  |          
                  \  \/   | |  | |   /    \    | | | |  |  | /  /          
                 / \  \   | |__| |  /  /\  \   | |_| |  |  |/  /          
                |  |  |   |  __  | /  /__\  \  |    /   |      \           
                |  |  |   | |  | | |   __   |  |    \   |  |\   \          
                \     /   | |  | | |  |  |  |  | |\  \  |  | \   \       
                 \___/    |_|  |_| |__|  |__|  |_| \__\ |__|  \__/        
                                                                              
                      - O R C A' S   B I G   F R I E N D -                    
                                      &                                       
                       - I N T E G R A L  F E E D E R -                       
                                                                              
 v1 FN, 2020, v2 2021, v3 2022-2024                                           
------------------------------------------------------------------------------


----------------------
SHARK INTEGRAL PACKAGE
----------------------

Number of atoms                             ...     13
Number of basis functions                   ...     61
Number of shells                            ...     41
Maximum angular momentum                    ...      1
Integral batch strategy                     ... SHARK/LIBINT Hybrid
RI-J (if used) integral strategy            ... SPLIT-RIJ (Revised 2003 algorithm where possible)
Printlevel                                  ...      1
Contraction scheme used                     ... SEGMENTED contraction
Prescreening option                         ... SCHWARTZ
   Thresh                                   ... 1.000e-10
   Tcut                                     ... 1.000e-11
   Tpresel                                  ... 1.000e-11 
Coulomb Range Separation                    ... NOT USED
Exchange Range Separation                   ... NOT USED
Multipole approximations                    ... NOT USED
Finite Nucleus Model                        ... NOT USED
CABS basis                                  ... NOT available
Auxiliary Coulomb fitting basis             ... NOT available
Auxiliary J/K fitting basis                 ... NOT available
Auxiliary Correlation fitting basis         ... NOT available
Auxiliary 'external' fitting basis          ... NOT available

Checking pre-screening integrals            ... done (  0.0 sec) Dimension = 41
   => SHARK Basis and OBASIS are compatible. Storing Pre-screening
Shell pair information
Shell pair cut-off parameter TPreSel        ...   1.0e-11
Total number of shell pairs                 ...       861
Shell pairs after pre-screening             ...       848
Total number of primitive shell pairs       ...      5382
Primitive shell pairs kept                  ...      3783
          la=0 lb=0:    483 shell pairs
          la=1 lb=0:    310 shell pairs
          la=1 lb=1:     55 shell pairs

Checking whether 4 symmetric matrices of dimension 61 fit in memory
:Max Core in MB      =   1200.00
 MB in use           =      2.05
 MB left             =   1197.95
 MB needed           =      0.06
 Data fit in memory  = YES
Calculating Nuclear repulsion               ... done (  0.0 sec) ENN=    164.221703237096 Eh

Diagonalization of the overlap matrix:
Smallest eigenvalue                        ... 3.462e-03
Time for diagonalization                   ...    0.000 sec
Threshold for overlap eigenvalues          ... 1.000e-07
Number of eigenvalues below threshold      ... 0
Time for construction of square roots      ...    0.000 sec
Total time needed                          ...    0.001 sec

-------------------
DFT GRID GENERATION
-------------------

General Integration Accuracy     IntAcc      ... 4.388
Radial Grid Type                 RadialGrid  ... OptM3 with GC (2021)
Angular Grid (max. ang.)         AngularGrid ... 4 (Lebedev-302)
Angular grid pruning method      GridPruning ... 4 (adaptive)
Weight generation scheme         WeightScheme... mBecke (2022)
Basis function cutoff            BFCut       ... 1.0000e-10
Integration weight cutoff        WCut        ... 1.0000e-14
Partially contracted basis set               ... off
Rotationally invariant grid construction     ... off
Angular grids for H and He will be reduced by one unit

Total number of grid points                  ...    55973
Total number of batches                      ...      882
Average number of points per batch           ...       63
Average number of grid points per atom       ...     4306
Grids setup in   0.2 sec
Initializing property integral containers    ... done (  0.0 sec)

SHARK setup successfully completed in   0.3 seconds

Maximum memory used throughout the entire STARTUP-calculation: 11.8 MB


           ************************************************************
           *        Program running with 8 parallel MPI-processes     *
           *              working on a common directory               *
           ************************************************************
-------------------------------------------------------------------------------
                                 ORCA GUESS
                   Start orbitals & Density for SCF / CASSCF
-------------------------------------------------------------------------------

------------
SCF SETTINGS
------------
Hamiltonian:
 Ab initio Hamiltonian  Method          .... Hartree-Fock(GTOs)


General Settings:
 Integral files         IntName         .... h-shift_041
 Hartree-Fock type      HFTyp           .... RHF
 Total Charge           Charge          ....    0
 Multiplicity           Mult            ....    1
 Number of Electrons    NEL             ....   38
 Basis Dimension        Dim             ....   61
 Nuclear Repulsion      ENuc            ....    164.2217032371 Eh

Convergence Acceleration:
 AO-DIIS                CNVDIIS         .... on
   Start iteration      DIISMaxIt       ....    12
   Startup error        DIISStart       ....  0.200000
   # of expansion vecs  DIISMaxEq       ....     5
   Bias factor          DIISBfac        ....   1.050
   Max. coefficient     DIISMaxC        ....  10.000
 MO-DIIS                CNVKDIIS        .... off
 Trust-Rad. Augm. Hess. CNVTRAH         .... auto
   Auto Start mean grad. ratio tolernc. ....  1.125000
   Auto Start start iteration           ....    50
   Auto Start num. interpolation iter.  ....    10
   Max. Number of Micro iterations      ....    24
   Max. Number of Macro iterations      .... Maxiter - #DIIS iter
   Number of Davidson start vectors     ....     2
   Converg. threshold    (grad. norm)   ....   5.000e-05
   Grad. Scal. Fac. for Micro threshold ....   0.100
   Minimum threshold for Micro iter.    ....   1.000e-02
   NR start threshold (gradient norm)   ....   1.000e-04
   Initial trust radius                 ....   0.400
   Minimum AH scaling param. (alpha)    ....   1.000
   Maximum AH scaling param. (alpha)    .... 1000.000
   Quad. conv. algorithm                .... NR
   White noise on init. David. guess    .... on
   Maximum white noise                  ....   0.010
   Pseudo random numbers                .... off
   Inactive MOs                         .... canonical
   Orbital update algorithm             .... Taylor
   Preconditioner                       .... Diag
   Full preconditioner red. dimension   ....   250
 SOSCF                 CNVSOSCF           .... on
   Start iteration     SOSCFMaxIt         ....   150
   Startup grad/error  SOSCFStart         ....  0.003300
   Hessian update      SOSCFHessUp        .... L-BFGS
   Autom. constraints  SOSCFAutoConstrain .... off
 Level Shifting         CNVShift        .... on
   Level shift para.    LevelShift      ....    0.2500
   Turn off err/grad.   ShiftErr        ....    0.0010
 Zerner damping         CNVZerner       .... off
 Static damping         CNVDamp         .... on
   Fraction old density DampFac         ....    0.7000
   Max. Damping (<1)    DampMax         ....    0.9800
   Min. Damping (>=0)   DampMin         ....    0.0000
   Turn off err/grad.   DampErr         ....    0.1000

SCF Procedure:
 Maximum # iterations   MaxIter         ....   125
 SCF integral mode      SCFMode         .... Direct
   Integral package                     .... SHARK and LIBINT hybrid scheme
 Reset frequency        DirectResetFreq ....    20
 Integral Threshold     Thresh          ....  1.000e-10 Eh
 Primitive CutOff       TCut            ....  1.000e-11 Eh

Convergence Tolerance:
 Convergence Check Mode ConvCheckMode   .... Total+1el-Energy
 Convergence forced     ConvForced      .... 0
 Energy Change          TolE            ....  1.000e-06 Eh
 1-El. energy change                    ....  1.000e-03 Eh
 Orbital Gradient       TolG            ....  5.000e-05
 Orbital Rotation angle TolX            ....  5.000e-05
 DIIS Error             TolErr          ....  1.000e-06

------------------------------
INITIAL GUESS: MODEL POTENTIAL
------------------------------
Loading Hartree-Fock densities                     ... done
Calculating cut-offs                               ... done
Initializing the effective Hamiltonian             ... done
Setting up the integral package (SHARK)            ... done
Starting the Coulomb interaction                   ... done (   0.0 sec)
Making the grid                                    ... done (   0.1 sec)
Mapping shells                                     ... done
Starting the XC term evaluation                    ... done (   0.0 sec)
Transforming the Hamiltonian                       ... done (   0.0 sec)
Diagonalizing the Hamiltonian                      ... done (   0.0 sec)
Back transforming the eigenvectors                 ... done (   0.0 sec)
Now organizing SCF variables                       ... done
                      ------------------
                      INITIAL GUESS DONE (   0.1 sec)
                      ------------------
             **** ENERGY FILE WAS UPDATED (h-shift_041.en.tmp) ****
Finished Guess after   0.4 sec
Maximum memory used throughout the entire GUESS-calculation: 4.2 MB


           ************************************************************
           *        Program running with 8 parallel MPI-processes     *
           *              working on a common directory               *
           ************************************************************

-------------------------------------------------------------------------------------------
                                      ORCA LEAN-SCF
                              memory conserving SCF solver
-------------------------------------------------------------------------------------------

----------------------------------------D-I-I-S--------------------------------------------
Iteration    Energy (Eh)           Delta-E    RMSDP     MaxDP     DIISErr   Damp  Time(sec)
-------------------------------------------------------------------------------------------
               ***  Starting incremental Fock matrix formation  ***
    1    -193.6124483232921420     0.00e+00  1.59e-02  5.15e-02  1.79e-01  0.700   0.1
    2    -193.6928045463486683    -8.04e-02  1.26e-02  3.90e-02  1.17e-01  0.700   0.1
                               ***Turning on AO-DIIS***
    3    -193.7424059727325698    -4.96e-02  7.66e-03  1.99e-02  7.04e-02  0.700   0.1
    4    -193.7737509335537993    -3.13e-02  1.82e-02  4.25e-02  4.78e-02  0.000   0.0
                              *** Initializing SOSCF ***
---------------------------------------S-O-S-C-F--------------------------------------
Iteration    Energy (Eh)           Delta-E    RMSDP     MaxDP     MaxGrad    Time(sec)
--------------------------------------------------------------------------------------
    5    -193.8416893518385109    -6.79e-02  1.82e-03  3.02e-03  2.90e-03     0.0
               *** Restarting incremental Fock matrix formation ***
    6    -193.8418454261621946    -1.56e-04  1.05e-03  2.23e-03  1.85e-03     0.0
    7    -193.8419034261362981    -5.80e-05  8.28e-04  2.07e-03  8.51e-04     0.0
    8    -193.8419190672802870    -1.56e-05  1.11e-04  2.85e-04  1.65e-04     0.0
    9    -193.8419194761099220    -4.09e-07  4.65e-05  9.94e-05  4.32e-05     0.0
                 **** Energy Check signals convergence ****

               *****************************************************
               *                     SUCCESS                       *
               *           SCF CONVERGED AFTER   9 CYCLES          *
               *****************************************************

             **** ENERGY FILE WAS UPDATED (h-shift_041.en.tmp) ****

----------------
TOTAL SCF ENERGY
----------------

Total Energy       :       -193.84191958382456 Eh           -5274.70679 eV

Components:
Nuclear Repulsion  :        164.22170323709554 Eh            4468.69973 eV
Electronic Energy  :       -358.06362282092010 Eh           -9743.40652 eV
One Electron Energy:       -585.32214798902169 Eh          -15927.42538 eV
Two Electron Energy:        227.25852516810158 Eh            6184.01886 eV

Virial components:
Potential Energy   :       -388.12079312974640 Eh          -10561.30371 eV
Kinetic Energy     :        194.27887354592184 Eh            5286.59691 eV
Virial Ratio       :          1.99775089306355

---------------
SCF CONVERGENCE
---------------

  Last Energy change         ...    4.0883e-07  Tolerance :   1.0000e-06
  Last MAX-Density change    ...    9.9355e-05  Tolerance :   1.0000e-05
  Last RMS-Density change    ...    4.6460e-05  Tolerance :   1.0000e-06
  Last DIIS Error            ...    2.9040e-03  Tolerance :   1.0000e-06
  Last Orbital Gradient      ...    4.3182e-05  Tolerance :   5.0000e-05
  Last Orbital Rotation      ...    3.9170e-05  Tolerance :   5.0000e-05


----------------
ORBITAL ENERGIES
----------------

  NO   OCC          E(Eh)            E(eV) 
   0   2.0000     -11.237083      -305.7766 
   1   2.0000     -11.236258      -305.7541 
   2   2.0000     -11.228020      -305.5300 
   3   2.0000     -11.221856      -305.3622 
   4   2.0000     -11.208324      -304.9940 
   5   2.0000      -1.113070       -30.2882 
   6   2.0000      -1.016220       -27.6527 
   7   2.0000      -0.945554       -25.7298 
   8   2.0000      -0.810362       -22.0511 
   9   2.0000      -0.725431       -19.7400 
  10   2.0000      -0.674468       -18.3532 
  11   2.0000      -0.598433       -16.2842 
  12   2.0000      -0.584025       -15.8921 
  13   2.0000      -0.561067       -15.2674 
  14   2.0000      -0.551200       -14.9989 
  15   2.0000      -0.508626       -13.8404 
  16   2.0000      -0.483630       -13.1603 
  17   2.0000      -0.392280       -10.6745 
  18   2.0000      -0.306641        -8.3441 
  19   0.0000       0.128966         3.5093 
  20   0.0000       0.211462         5.7542 
  21   0.0000       0.245471         6.6796 
  22   0.0000       0.276241         7.5169 
  23   0.0000       0.291952         7.9444 
  24   0.0000       0.327217         8.9040 
  25   0.0000       0.335810         9.1379 
  26   0.0000       0.353969         9.6320 
  27   0.0000       0.377072        10.2606 
  28   0.0000       0.382656        10.4126 
  29   0.0000       0.435601        11.8533 
*Only the first 10 virtual orbitals were printed.

                    ********************************
                    * MULLIKEN POPULATION ANALYSIS *
                    ********************************

-----------------------
MULLIKEN ATOMIC CHARGES
-----------------------
   0 C :   -0.525913
   1 H :    0.197287
   2 C :   -0.397652
   3 C :   -0.159919
   4 C :   -0.196832
   5 C :   -0.135891
   6 H :    0.156923
   7 H :    0.173240
   8 H :    0.186467
   9 H :    0.166992
  10 H :    0.175909
  11 H :    0.176800
  12 H :    0.182589
Sum of atomic charges:   -0.0000000

--------------------------------
MULLIKEN REDUCED ORBITAL CHARGES
--------------------------------
  0 C s       :     3.371889  s :     3.371889
      pz      :     1.060718  p :     3.154024
      px      :     1.105718
      py      :     0.987588

  1 H s       :     0.802713  s :     0.802713

  2 C s       :     3.290048  s :     3.290048
      pz      :     1.010530  p :     3.107603
      px      :     1.085872
      py      :     1.011202

  3 C s       :     3.199157  s :     3.199157
      pz      :     0.980787  p :     2.960762
      px      :     0.975546
      py      :     1.004429

  4 C s       :     3.199295  s :     3.199295
      pz      :     1.004428  p :     2.997537
      px      :     0.930371
      py      :     1.062738

  5 C s       :     3.209527  s :     3.209527
      pz      :     0.934734  p :     2.926365
      px      :     1.013428
      py      :     0.978203

  6 H s       :     0.843077  s :     0.843077

  7 H s       :     0.826760  s :     0.826760

  8 H s       :     0.813533  s :     0.813533

  9 H s       :     0.833008  s :     0.833008

 10 H s       :     0.824091  s :     0.824091

 11 H s       :     0.823200  s :     0.823200

 12 H s       :     0.817411  s :     0.817411



                     *******************************
                     * LOEWDIN POPULATION ANALYSIS *
                     *******************************

----------------------
LOEWDIN ATOMIC CHARGES
----------------------
   0 C :   -0.328965
   1 H :    0.143338
   2 C :   -0.263844
   3 C :   -0.116159
   4 C :   -0.153268
   5 C :   -0.101330
   6 H :    0.109604
   7 H :    0.115190
   8 H :    0.122087
   9 H :    0.117376
  10 H :    0.118657
  11 H :    0.117768
  12 H :    0.119547

-------------------------------
LOEWDIN REDUCED ORBITAL CHARGES
-------------------------------
  0 C s       :     2.979148  s :     2.979148
      pz      :     1.116398  p :     3.349817
      px      :     1.144114
      py      :     1.089305

  1 H s       :     0.856662  s :     0.856662

  2 C s       :     2.992571  s :     2.992571
      pz      :     1.046796  p :     3.271273
      px      :     1.116238
      py      :     1.108239

  3 C s       :     2.944575  s :     2.944575
      pz      :     0.991069  p :     3.171584
      px      :     1.074673
      py      :     1.105842

  4 C s       :     2.942644  s :     2.942644
      pz      :     1.078938  p :     3.210625
      px      :     1.059368
      py      :     1.072319

  5 C s       :     2.952632  s :     2.952632
      pz      :     1.036298  p :     3.148698
      px      :     1.061821
      py      :     1.050579

  6 H s       :     0.890396  s :     0.890396

  7 H s       :     0.884810  s :     0.884810

  8 H s       :     0.877913  s :     0.877913

  9 H s       :     0.882624  s :     0.882624

 10 H s       :     0.881343  s :     0.881343

 11 H s       :     0.882232  s :     0.882232

 12 H s       :     0.880453  s :     0.880453



                      *****************************
                      * MAYER POPULATION ANALYSIS *
                      *****************************

  NA   - Mulliken gross atomic population
  ZA   - Total nuclear charge
  QA   - Mulliken gross atomic charge
  VA   - Mayer's total valence
  BVA  - Mayer's bonded valence
  FA   - Mayer's free valence

  ATOM       NA         ZA         QA         VA         BVA        FA
  0 C      6.5259     6.0000    -0.5259     3.7578     3.7578    -0.0000
  1 H      0.8027     1.0000     0.1973     0.9134     0.9134    -0.0000
  2 C      6.3977     6.0000    -0.3977     3.8139     3.8139    -0.0000
  3 C      6.1599     6.0000    -0.1599     3.7965     3.7965    -0.0000
  4 C      6.1968     6.0000    -0.1968     3.8111     3.8111    -0.0000
  5 C      6.1359     6.0000    -0.1359     3.7434     3.7434    -0.0000
  6 H      0.8431     1.0000     0.1569     0.9392     0.9392     0.0000
  7 H      0.8268     1.0000     0.1732     0.9200     0.9200     0.0000
  8 H      0.8135     1.0000     0.1865     0.9284     0.9284     0.0000
  9 H      0.8330     1.0000     0.1670     0.9405     0.9405     0.0000
 10 H      0.8241     1.0000     0.1759     0.9359     0.9359     0.0000
 11 H      0.8232     1.0000     0.1768     0.9388     0.9388    -0.0000
 12 H      0.8174     1.0000     0.1826     0.9381     0.9381     0.0000

  Mayer bond orders larger than 0.100000
B(  0-C ,  1-H ) :   0.9002 B(  0-C ,  5-C ) :   0.9780 B(  0-C ,  6-H ) :   0.9622 
B(  0-C ,  7-H ) :   0.9455 B(  2-C ,  3-C ) :   1.8068 B(  2-C ,  8-H ) :   0.9591 
B(  2-C ,  9-H ) :   0.9594 B(  3-C ,  4-C ) :   1.0934 B(  3-C , 10-H ) :   0.9579 
B(  4-C ,  5-C ) :   1.8168 B(  4-C , 11-H ) :   0.9572 B(  5-C , 12-H ) :   0.9547 


-------
TIMINGS
-------

Total SCF time: 0 days 0 hours 0 min 0 sec 

Total time                  ....       0.721 sec
Sum of individual times     ....       0.676 sec  ( 93.8%)

SCF preparation             ....       0.270 sec  ( 37.5%)
Fock matrix formation       ....       0.350 sec  ( 48.6%)
  Startup                   ....       0.002 sec  (  0.5% of F)
  Coulomb+Exchange Fock     ....       0.371 sec  (105.8% of F)
Diagonalization             ....       0.000 sec  (  0.0%)
Density matrix formation    ....       0.008 sec  (  1.1%)
Total Energy calculation    ....       0.005 sec  (  0.7%)
Population analysis         ....       0.005 sec  (  0.7%)
Orbital Transformation      ....       0.005 sec  (  0.6%)
Orbital Orthonormalization  ....       0.000 sec  (  0.0%)
DIIS solution               ....       0.020 sec  (  2.7%)
SOSCF solution              ....       0.013 sec  (  1.9%)
Finished LeanSCF after   0.7 sec

Maximum memory used throughout the entire LEANSCF-calculation: 6.5 MB

-------------------------   --------------------
FINAL SINGLE POINT ENERGY      -193.841919583825
-------------------------   --------------------



           ************************************************************
           *        Program running with 8 parallel MPI-processes     *
           *              working on a common directory               *
           ************************************************************

------------------------------------------------------------------------------
                              ORCA PROPERTY CALCULATIONS
------------------------------------------------------------------------------

GBWName                                 ... h-shift_041.gbw
Number of atoms                         ...     13
Number of basis functions               ...     61
Max core memory                         ...   1200 MB

Electric properties:
Dipole moment                           ... YES
Quadrupole moment                       ...  NO
Static polarizability (Dipole/Dipole)   ...  NO
Static polarizability (Dipole/Quad.)    ...  NO
Static polarizability (Quad./Quad.)     ...  NO
Static polarizability (Velocity)        ...  NO
Static hyperpolarizability              ...  NO

Atomic electric properties:
Dipole moment                           ...  NO
Quadrupole moment                       ...  NO
Static polarizability                   ...  NO

Choice of electric origin               ... Center of mass
Position of electric origin             ...     1.808586    -1.386565     2.077764

General magnetic properties:
Magnetizability                         ...  NO

EPR properties:
g-Tensor (aka g-matrix)                 ...  NO
Zero-Field splitting spin-orbit         ...  NO
Zero-field splitting spin-spin          ...  NO
Hyperfine couplings                     ...  NO (   0 nuclei)
Quadrupole couplings                    ...  NO (   0 nuclei)
Contact density                         ...  NO (   0 nuclei)

NMR properties:
Chemical shifts                         ...  NO (   0 nuclei)
Spin-rotation constants                 ...  NO (   0 nuclei)
Spin-spin couplings                     ...  NO (   0 nuclei,    0 pairs)

Choice of magnetic origin               ... GIAO
Position of magnetic origin             ...     0.000000     0.000000     0.000000

Properties with geometric perturbations:
SCF Hessian                             ...  NO
IR spectrum                             ...  NO
VCD spectrum                            ...  NO
X-ray spectroscopy properties:
SCF XES/XAS/RIXS spectra                ...  NO

SCF SOC stabilization energy            ...  NO
Diagonal Born-Oppenheimer correction    ...  NO

-------------
DIPOLE MOMENT
-------------

Method             : SCF
Type of density    : Electron Density
Multiplicity       :   1
Irrep              :   0
Energy             :  -193.8419195838245628 Eh
Basis              : AO
                                X                 Y                 Z
Electronic contribution:     -0.267085237      -1.707496667       1.853159886
Nuclear contribution   :      0.280568679       1.645310732      -2.041262984
                        -----------------------------------------
Total Dipole Moment    :      0.013483442      -0.062185935      -0.188103098
                        -----------------------------------------
Magnitude (a.u.)       :      0.198574090
Magnitude (Debye)      :      0.504735224



--------------------
Rotational spectrum 
--------------------
 
Rotational constants in cm-1:             0.273638             0.162632             0.105756 
Rotational constants in MHz :          8203.472623          4875.571314          3170.480051 

Dipole components along the rotational axes: 
x,y,z [a.u.] :    -0.074423     0.055417    -0.175561 
x,y,z [Debye]:    -0.189168     0.140859    -0.446242 

 

Dipole moment calculation done in   0.0 sec 

Maximum memory used throughout the entire PROP-calculation: 2.2 MB

--------------------------------
SUGGESTED CITATIONS FOR THIS RUN
--------------------------------

Below you find a list of papers that are relevant to this ORCA run
We neither can nor want to force you to cite these papers, but we appreciate if you do
You receive ORCA, which is the product of decades of hard work by many enthusiastic individuals, for free
The only thing we kindly ask in return is that you cite our papers,
We deeply appreciate it, if you show your appreciation for ORCA by not just citing the generic ORCA reference.

Please note that relegating all ORCA citations to the supporting information does *not* help us.
SI sections are not indexed - citations you put there will not count into any citation statistics
But we need these citations in order to attract the funding resources that allow us to do what we are doing

Therefore, if you are a happy ORCA user, please consider citing a few of the papers listed below in the main body of your paper

In addition to the list printed below, the program has created the file h-shift_041.bibtex that contains the list in bibtex format
You can import this file easily into all common literature databanks and citation aid programs


List of essential papers. We consider these as the minimum necessary citations

  1. Neese, F.
     Software update: the ORCA program system, version 6.0
     WIRES Comput. Molec. Sci. 2025 15(1), e70019
     doi.org/10.1002/wcms.7019

List of papers to cite with high priority. The work reported in these papers was absolutely
necessary for this run to complete.
Our perspective: the developers of density functionals and basis sets usually get cited in chemistry papers
Good! But without the algorithms to do something with them, the functionals or basis sets would not do anything.
Hence, in our opinion, the algorithm design and method developments papers are equally worthy of getting cited

  1. Neese, F.
     The SHARK Integral Generation and Digestion System
     J. Comp. Chem. 2022 44(3), 381
     doi.org/10.1002/jcc.26942

List of suggested additional citations. These are papers that are important in the 'surrounding' of 
of this run, or papers that preceded the highly important papers. If you like your results we are grateful for a citation.

  1. Neese, F.
     The ORCA program system
     WIRES Comput. Molec. Sci. 2012 2(1), 73-78
     doi.org/10.1002/wcms.81
  2. Neese, F.
     Software update: the ORCA program system, version 4.0
     WIRES Comput. Molec. Sci. 2018 8(1), 1-6
     doi.org/10.1002/wcms.1327
  3. Neese, F.; Wennmohs, F.; Becker, U.; Riplinger, C.
     The ORCA quantum chemistry program package
     J. Chem. Phys. 2020 152(22), 224108
     doi.org/10.1063/5.0004608
  4. Neese, F.
     Software update: The ORCA program system—Version 5.0
     WIRES Comput. Molec. Sci. 2022 12(1), e1606
     doi.org/10.1002/wcms.1606

List of optional additional citations

  1. Neese, F.
     Approximate second-order SCF convergence for spin unrestricted wavefunctions
     Chem. Phys. Lett. 2000 325(1-3), 93-98
     doi.org/10.1016/s0009-2614(00)00662-x

Timings for individual modules:

Sum of individual times          ...        2.385 sec (=   0.040 min)
Startup calculation              ...        0.668 sec (=   0.011 min)  28.0 %
SCF iterations                   ...        1.336 sec (=   0.022 min)  56.0 %
Property calculations            ...        0.382 sec (=   0.006 min)  16.0 %
                             ****ORCA TERMINATED NORMALLY****
TOTAL RUN TIME: 0 days 0 hours 0 minutes 2 seconds 827 msec
