[Molden Format]
[Title]
 Molden file created by orca_2mkl for BaseName=h-shift_070

[Atoms] AU
C    1   6         -0.7549248035         0.0283156564         0.0604655671 
H    2   1          3.9147661077         0.0150819043         0.0687671340 
C    3   6          4.6058540726         0.0202011724         1.9950216741 
C    4   6          3.5155463441        -2.1613893835         3.4421947344 
C    5   6          1.1683949919        -3.0304101818         3.1640421653 
C    6   6         -0.6171240841        -2.2092353595         1.1993128012 
H    7   1         -1.9179699807         0.2951185303        -1.5773544040 
H    8   1          0.2837064742         1.6524502308         0.6715822118 
H    9   1          4.0193700081         1.8026267667         2.8301785801 
H   10   1          6.6461498055        -0.0077535463         1.9543698855 
H   11   1          4.7519317925        -3.1001656426         4.7565786291 
H   12   1          0.5744597372        -4.6086659851         4.3033675001 
H   13   1         -1.8468104534        -3.6852418612         0.5317046834 
[GTO]
  1 0
s   6 1.0 
     3047.5249000000         0.5363343823
      457.3695100000         0.9894506076
      103.9486900000         1.5972822308
       29.2101550000         2.0791870615
        9.2866630000         1.7741742532
        3.1639270000         0.6125798260
s   3 1.0 
        7.8682724000        -0.3995563516
        1.8812885000        -0.1841552393
        0.5442493000         0.5163903794
p   3 1.0 
        7.8682724000         1.2960827175
        1.8812885000         0.9937536282
        0.5442493000         0.4959527138
s   1 1.0 
        0.1687144000         0.1876178721
p   1 1.0 
        0.1687144000         0.1541275509

  2 0
s   3 1.0 
       18.7311370000         0.2149354183
        2.8253937000         0.3645711272
        0.6401217000         0.4150514277
s   1 1.0 
        0.1612778000         0.1813806839

  3 0
s   6 1.0 
     3047.5249000000         0.5363343823
      457.3695100000         0.9894506076
      103.9486900000         1.5972822308
       29.2101550000         2.0791870615
        9.2866630000         1.7741742532
        3.1639270000         0.6125798260
s   3 1.0 
        7.8682724000        -0.3995563516
        1.8812885000        -0.1841552393
        0.5442493000         0.5163903794
p   3 1.0 
        7.8682724000         1.2960827175
        1.8812885000         0.9937536282
        0.5442493000         0.4959527138
s   1 1.0 
        0.1687144000         0.1876178721
p   1 1.0 
        0.1687144000         0.1541275509

  4 0
s   6 1.0 
     3047.5249000000         0.5363343823
      457.3695100000         0.9894506076
      103.9486900000         1.5972822308
       29.2101550000         2.0791870615
        9.2866630000         1.7741742532
        3.1639270000         0.6125798260
s   3 1.0 
        7.8682724000        -0.3995563516
        1.8812885000        -0.1841552393
        0.5442493000         0.5163903794
p   3 1.0 
        7.8682724000         1.2960827175
        1.8812885000         0.9937536282
        0.5442493000         0.4959527138
s   1 1.0 
        0.1687144000         0.1876178721
p   1 1.0 
        0.1687144000         0.1541275509

  5 0
s   6 1.0 
     3047.5249000000         0.5363343823
      457.3695100000         0.9894506076
      103.9486900000         1.5972822308
       29.2101550000         2.0791870615
        9.2866630000         1.7741742532
        3.1639270000         0.6125798260
s   3 1.0 
        7.8682724000        -0.3995563516
        1.8812885000        -0.1841552393
        0.5442493000         0.5163903794
p   3 1.0 
        7.8682724000         1.2960827175
        1.8812885000         0.9937536282
        0.5442493000         0.4959527138
s   1 1.0 
        0.1687144000         0.1876178721
p   1 1.0 
        0.1687144000         0.1541275509

  6 0
s   6 1.0 
     3047.5249000000         0.5363343823
      457.3695100000         0.9894506076
      103.9486900000         1.5972822308
       29.2101550000         2.0791870615
        9.2866630000         1.7741742532
        3.1639270000         0.6125798260
s   3 1.0 
        7.8682724000        -0.3995563516
        1.8812885000        -0.1841552393
        0.5442493000         0.5163903794
p   3 1.0 
        7.8682724000         1.2960827175
        1.8812885000         0.9937536282
        0.5442493000         0.4959527138
s   1 1.0 
        0.1687144000         0.1876178721
p   1 1.0 
        0.1687144000         0.1541275509

  7 0
s   3 1.0 
       18.7311370000         0.2149354183
        2.8253937000         0.3645711272
        0.6401217000         0.4150514277
s   1 1.0 
        0.1612778000         0.1813806839

  8 0
s   3 1.0 
       18.7311370000         0.2149354183
        2.8253937000         0.3645711272
        0.6401217000         0.4150514277
s   1 1.0 
        0.1612778000         0.1813806839

  9 0
s   3 1.0 
       18.7311370000         0.2149354183
        2.8253937000         0.3645711272
        0.6401217000         0.4150514277
s   1 1.0 
        0.1612778000         0.1813806839

 10 0
s   3 1.0 
       18.7311370000         0.2149354183
        2.8253937000         0.3645711272
        0.6401217000         0.4150514277
s   1 1.0 
        0.1612778000         0.1813806839

 11 0
s   3 1.0 
       18.7311370000         0.2149354183
        2.8253937000         0.3645711272
        0.6401217000         0.4150514277
s   1 1.0 
        0.1612778000         0.1813806839

 12 0
s   3 1.0 
       18.7311370000         0.2149354183
        2.8253937000         0.3645711272
        0.6401217000         0.4150514277
s   1 1.0 
        0.1612778000         0.1813806839

 13 0
s   3 1.0 
       18.7311370000         0.2149354183
        2.8253937000         0.3645711272
        0.6401217000         0.4150514277
s   1 1.0 
        0.1612778000         0.1813806839

[5D]
[7F]
[9G]
[MO]
 Sym=     1a
 Ene= -1.12359708370159E+01
 Spin= Alpha
 Occup= 2.000000
  1      -0.055018673310
  2      -0.000561404784
  3      -0.000018726991
  4      -0.000175863662
  5       0.000130278307
  6      -0.005387643916
  7      -0.000751066439
  8       0.001966424375
  9      -0.001831624869
 10       0.000129074348
 11      -0.000618795510
 12      -0.001922788622
 13       0.000029878720
 14      -0.000049069389
 15      -0.000073915797
 16       0.000036032824
 17      -0.000405330693
 18       0.000085052396
 19       0.000476951466
 20      -0.000544002420
 21      -0.142214309334
 22      -0.003266728622
 23      -0.000148001643
 24      -0.000040114995
 25      -0.000098323770
 26       0.002317923920
 27       0.000452668883
 28       0.000462138969
 29       0.000090224462
 30      -0.058292986145
 31      -0.000711330394
 32      -0.000102277722
 33       0.000079432922
 34      -0.000120600889
 35      -0.004214412423
 36       0.001192713542
 37      -0.001487274810
 38       0.001793545364
 39      -0.982651299649
 40      -0.024573595749
 41      -0.000116533247
 42      -0.000141672390
 43       0.000039463539
 44       0.017105498845
 45       0.001485067784
 46       0.001638342360
 47       0.000492899354
 48       0.000080522575
 49      -0.000500421544
 50       0.000266958062
 51       0.000275556815
 52       0.000013817206
 53      -0.000080963304
 54       0.000011271757
 55      -0.000011786300
 56      -0.000014870629
 57      -0.000723966236
 58       0.000091006562
 59      -0.000472976470
 60       0.000255677005
 61      -0.002105102316
 Sym=     1a
 Ene= -1.12357726468198E+01
 Spin= Alpha
 Occup= 2.000000
  1       0.008711396511
  2       0.000113825306
  3       0.000019531464
  4       0.000047834524
  5       0.000011254768
  6       0.000440466988
  7      -0.000023796354
  8      -0.000415695162
  9       0.000065342858
 10       0.000185709407
 11      -0.000118516552
 12      -0.014853354474
 13       0.000018584791
 14      -0.000002848492
 15      -0.000149802936
 16       0.000041381207
 17      -0.003633397157
 18       0.001138427033
 19       0.002160039698
 20      -0.000786853521
 21      -0.980693190836
 22      -0.024532805846
 23       0.000179481286
 24      -0.000035620938
 25       0.000110225034
 26       0.017153424461
 27      -0.001626703190
 28       0.000927526630
 29      -0.001724141422
 30      -0.092818899899
 31      -0.001418952933
 32       0.000229786632
 33       0.000118792851
 34       0.000014262480
 35      -0.004814053438
 36      -0.002671397389
 37      -0.001809757650
 38       0.000437964446
 39       0.147043702463
 40       0.003871985365
 41       0.000159818057
 42      -0.000035250866
 43       0.000104478730
 44      -0.002007130422
 45       0.000081246451
 46       0.000066519322
 47       0.000043432858
 48      -0.000017340354
 49      -0.000014576847
 50      -0.000041702293
 51       0.000358228346
 52       0.000202965491
 53      -0.000899692223
 54       0.000088032833
 55      -0.000178726774
 56       0.000270623649
 57      -0.001974836880
 58       0.000040601454
 59      -0.000739769487
 60      -0.000027997862
 61       0.000337355731
 Sym=     1a
 Ene= -1.12275549100619E+01
 Spin= Alpha
 Occup= 2.000000
  1      -0.007083996323
  2      -0.000321305974
  3      -0.000047754221
  4       0.000122666228
  5      -0.000159903391
  6      -0.000824859296
  7      -0.000215683336
  8      -0.000069651004
  9       0.000153797260
 10       0.000054545734
 11       0.000172851760
 12      -0.003172305197
 13      -0.000071873095
 14       0.000102026110
 15       0.000106730545
 16      -0.000099426609
 17      -0.001737517557
 18       0.000431041852
 19       0.000658326009
 20      -0.000019775883
 21      -0.100901753397
 22      -0.003549299278
 23       0.000227686722
 24       0.000026857863
 25       0.000079024657
 26       0.009434618030
 27      -0.003295972151
 28       0.000186401894
 29      -0.001858610138
 30       0.990111980332
 31       0.025147799745
 32       0.000148103440
 33       0.000161561528
 34      -0.000235967567
 35      -0.019583043793
 36      -0.001524217824
 37      -0.002621128138
 38       0.002287881572
 39      -0.044036865738
 40      -0.001738490795
 41      -0.000125720793
 42       0.000038253598
 43      -0.000109120864
 44       0.006075468094
 45       0.002500048773
 46       0.000003739905
 47       0.001734066966
 48       0.000049923217
 49       0.000331169541
 50      -0.000038894190
 51       0.000290274641
 52       0.000018317722
 53      -0.000148875248
 54       0.000060901219
 55       0.000159579530
 56      -0.000010258073
 57       0.000332692713
 58      -0.000295986895
 59       0.001674786295
 60      -0.000076695977
 61       0.000352002127
 Sym=     1a
 Ene= -1.12211158518965E+01
 Spin= Alpha
 Occup= 2.000000
  1       0.994555735339
  2       0.024876148699
  3       0.000094576138
  4      -0.000207287261
  5       0.000055717918
  6      -0.016690774630
  7      -0.000484887144
  8       0.001681958817
  9      -0.000865098484
 10      -0.000166322712
 11       0.001260884568
 12      -0.000417346911
 13      -0.000060262544
 14       0.000113347550
 15      -0.000011486531
 16      -0.000066540934
 17      -0.000003774154
 18      -0.000482425105
 19      -0.000080890153
 20       0.000849701700
 21       0.000022625867
 22       0.000044955018
 23       0.000036541990
 24      -0.000018380048
 25       0.000023582926
 26      -0.000268744065
 27      -0.000266676139
 28      -0.000465322729
 29       0.000193549377
 30       0.004626434168
 31       0.000015689234
 32       0.000068317274
 33      -0.000081218223
 34       0.000088042590
 35      -0.000418357583
 36      -0.000310107010
 37       0.000037849471
 38      -0.000241655201
 39      -0.056540440734
 40      -0.002241686070
 41       0.000034635575
 42      -0.000286106423
 43       0.000127790996
 44       0.006845837471
 45      -0.000105290879
 46       0.002800716168
 47      -0.001383666383
 48      -0.000209753682
 49       0.002651931007
 50      -0.000117225740
 51       0.002736246753
 52       0.000005866364
 53      -0.000557175239
 54       0.000035597334
 55       0.000318520167
 56      -0.000008458216
 57      -0.000043224480
 58       0.000038132874
 59       0.000226834474
 60      -0.000115598346
 61      -0.000001977481
 Sym=     1a
 Ene= -1.12143970573829E+01
 Spin= Alpha
 Occup= 2.000000
  1       0.000414855007
  2      -0.000041776048
  3      -0.000093407280
  4      -0.000009997025
  5      -0.000116550908
  6       0.000291233527
  7       0.000431630855
  8      -0.000266312927
  9       0.000744753710
 10       0.000075311224
 11       0.003266939311
 12       0.996086496108
 13       0.026154958076
 14      -0.000086824077
 15       0.000002690967
 16       0.000069087551
 17      -0.019235331729
 18       0.000679887076
 19       0.000717225392
 20      -0.000583148246
 21      -0.015382934295
 22      -0.000813701910
 23      -0.000081387746
 24      -0.000107735691
 25       0.000074283998
 26       0.004074957752
 27       0.001522093072
 28       0.002210754912
 29      -0.001288710290
 30       0.001649491198
 31      -0.000160492416
 32      -0.000123148198
 33      -0.000090612747
 34       0.000029192818
 35       0.000660001063
 36       0.000757951420
 37       0.000416169784
 38      -0.000001787748
 39       0.000141125206
 40       0.000012396888
 41      -0.000062216777
 42      -0.000043512966
 43      -0.000014326098
 44      -0.000550786202
 45      -0.000137687760
 46      -0.000409762060
 47       0.000102382336
 48       0.000069164991
 49       0.000516971360
 50      -0.000041714133
 51      -0.000108585569
 52       0.000073642594
 53       0.003331921974
 54       0.000034228060
 55       0.003090033063
 56      -0.000138393309
 57       0.000042034896
 58       0.000032804149
 59       0.000446579722
 60      -0.000024383972
 61      -0.000017337915
 Sym=     1a
 Ene= -1.10153385198065E+00
 Spin= Alpha
 Occup= 2.000000
  1      -0.074983880739
  2       0.146266680389
  3       0.011974400059
  4      -0.055897022289
  5       0.033483480494
  6       0.099700122923
  7       0.000628773594
  8      -0.002934461456
  9      -0.001568996108
 10       0.039540723148
 11       0.001113174096
 12      -0.069287057950
 13       0.128328810392
 14      -0.025096982776
 15      -0.032292421314
 16       0.016951908615
 17       0.122430908091
 18      -0.013524641177
 19      -0.003778505617
 20       0.000536224628
 21      -0.113908783511
 22       0.226174614286
 23      -0.064179433282
 24      -0.003851588759
 25      -0.027326601810
 26       0.136334975631
 27       0.000941871694
 28      -0.004226177942
 29       0.004110430624
 30      -0.125526900997
 31       0.247561086208
 32       0.039595982409
 33       0.041343733840
 34      -0.028978220629
 35       0.163367226683
 36       0.000362751875
 37       0.003794080014
 38      -0.005337122588
 39      -0.110038294727
 40       0.218121766084
 41       0.036483476985
 42       0.028581655957
 43       0.012568650324
 44       0.138637928044
 45       0.006062391824
 46       0.000110648539
 47       0.003232627817
 48       0.032797543582
 49       0.001474223115
 50       0.039649688395
 51       0.006938898134
 52       0.035300867384
 53       0.000176746615
 54       0.031973941395
 55       0.005440229213
 56       0.052643660985
 57       0.004092713178
 58       0.058238373343
 59       0.008012119149
 60       0.052818206254
 61       0.008249153014
 Sym=     1a
 Ene= -1.02033326166985E+00
 Spin= Alpha
 Occup= 2.000000
  1       0.122283814641
  2      -0.239880576044
  3       0.001512442046
  4       0.078884312640
  5      -0.033483509777
  6      -0.185786457518
  7      -0.001959855401
  8       0.003156689647
  9      -0.004048237305
 10       0.052691809001
 11       0.005324085219
 12      -0.099333258026
 13       0.189011611841
 14      -0.012746469721
 15      -0.030647736442
 16       0.022989879309
 17       0.176436272432
 18       0.000553878989
 19      -0.000907353718
 20       0.003523487316
 21      -0.101564348098
 22       0.201653339387
 23       0.002312117891
 24       0.021346687927
 25      -0.018578789517
 26       0.149048395471
 27       0.000511923666
 28       0.005783851946
 29      -0.004952085598
 30      -0.020926959356
 31       0.041613959625
 32       0.101365775363
 33       0.005574869435
 34       0.045589025135
 35       0.025650325934
 36       0.007413747309
 37      -0.011797170932
 38       0.012019530165
 39       0.116421015975
 40      -0.232506992452
 41       0.021119560569
 42      -0.076457008870
 43       0.053547216334
 44      -0.161241508455
 45       0.010355969562
 46       0.004729502898
 47       0.006997920075
 48      -0.069991586728
 49      -0.016138035852
 50      -0.061831556714
 51      -0.005827204329
 52       0.057524915810
 53       0.005467024109
 54       0.058953980373
 55       0.008786938267
 56       0.062410643476
 57       0.016591737052
 58       0.010250771002
 59      -0.003784512609
 60      -0.069124240047
 61      -0.011638964111
 Sym=     1a
 Ene= -9.41407431768079E-01
 Spin= Alpha
 Occup= 2.000000
  1      -0.078822442941
  2       0.154082450532
  3       0.001057782472
  4      -0.011087755661
  5       0.001820956456
  6       0.136135968837
  7       0.005449201893
  8       0.001887282942
  9       0.000179115378
 10       0.099515994300
 11       0.022168760550
 12      -0.139001578276
 13       0.261337630723
 14       0.011843058558
 15       0.020881754415
 16      -0.010595023479
 17       0.294500739236
 18      -0.004869334859
 19       0.002074776102
 20      -0.000047441013
 21       0.029633533343
 22      -0.055762666623
 23       0.130438469149
 24       0.114082551324
 25      -0.040229834435
 26      -0.074068193426
 27       0.019083630381
 28       0.009359938115
 29      -0.000662275964
 30       0.118855726653
 31      -0.236416946602
 32      -0.035792162435
 33       0.012730575637
 34      -0.017504219626
 35      -0.184645187646
 36       0.005243114784
 37       0.015667581266
 38      -0.006618881872
 39      -0.002257009178
 40       0.003421892205
 41      -0.046891912033
 42       0.088585475129
 43      -0.084192819754
 44       0.000204141128
 45      -0.013383430386
 46       0.005675767979
 47      -0.014778505641
 48       0.057294802321
 49       0.018391714385
 50       0.060025477658
 51       0.017730502715
 52       0.099838986642
 53       0.024389803982
 54       0.101165638557
 55       0.028092649969
 56      -0.020486878474
 57      -0.007311333288
 58      -0.091022414627
 59      -0.025089627384
 60      -0.002685848471
 61      -0.004962852556
 Sym=     1a
 Ene= -8.13228658302830E-01
 Spin= Alpha
 Occup= 2.000000
  1       0.102065105662
  2      -0.203145977307
  3       0.008180380115
  4      -0.079924259467
  5       0.045474036755
  6      -0.190359432999
  7       0.002345438317
  8      -0.032122448510
  9       0.017406667848
 10       0.058525881519
 11       0.023009379476
 12      -0.060214667523
 13       0.114279977464
 14       0.031568277074
 15       0.064234206272
 16      -0.043822159579
 17       0.146037242412
 18       0.015933619180
 19       0.015051358407
 20      -0.008415482123
 21       0.091872067388
 22      -0.184065139832
 23       0.014780141643
 24       0.067189455969
 25      -0.059479047065
 26      -0.178769778888
 27      -0.014567896283
 28       0.011252427354
 29      -0.019656231528
 30      -0.029902807873
 31       0.062319454187
 32      -0.195875972197
 33      -0.026693637425
 34      -0.093570637045
 35       0.051613567456
 36      -0.046592627136
 37      -0.007366352874
 38      -0.021143874816
 39      -0.086117434027
 40       0.175896810904
 41       0.018754760545
 42      -0.151329570394
 43       0.084264989622
 44       0.163203088529
 45       0.001533510629
 46      -0.050452541696
 47       0.023417407642
 48      -0.113502347110
 49      -0.048525349329
 50      -0.109132310256
 51      -0.042238960082
 52       0.059990583329
 53       0.024077984965
 54       0.062765010636
 55       0.021142467098
 56      -0.107771738144
 57      -0.043675200139
 58       0.039528204635
 59       0.017752012264
 60       0.108910646797
 61       0.045088511405
 Sym=     1a
 Ene= -7.18243626445163E-01
 Spin= Alpha
 Occup= 2.000000
  1       0.038714423777
  2      -0.077341127941
  3      -0.065114947916
  4      -0.197177035911
  5       0.015648543146
  6      -0.080462912038
  7      -0.022152997692
  8      -0.064327297600
  9       0.008338459723
 10      -0.078962404012
 11      -0.043074982631
 12       0.020605930568
 13      -0.035788449312
 14       0.027010286763
 15      -0.110136578394
 16       0.099911471379
 17      -0.060871119559
 18       0.014314383062
 19      -0.039853607825
 20       0.036394052742
 21      -0.073814194311
 22       0.150191588933
 23       0.175402143833
 24       0.001515229116
 25       0.064686476922
 26       0.155311975769
 27       0.073401371398
 28      -0.006823132845
 29       0.031707283852
 30       0.078130164443
 31      -0.159744529396
 32       0.029540317162
 33       0.030057549575
 34      -0.028957437698
 35      -0.155388621190
 36       0.029428690388
 37       0.034753658563
 38      -0.019197156857
 39      -0.069874641857
 40       0.141917994348
 41      -0.130574737983
 42      -0.026394318569
 43      -0.125391746005
 44       0.140674875352
 45      -0.051694232311
 46      -0.039362960657
 47      -0.035410032618
 48      -0.040258389968
 49      -0.019691911425
 50      -0.142186698806
 51      -0.087181907926
 52      -0.054055663939
 53      -0.029468934037
 54      -0.002483545674
 55       0.001163407359
 56       0.151908416938
 57       0.076566681065
 58      -0.102322337842
 59      -0.041614107990
 60       0.141076847109
 61       0.067858351043
 Sym=     1a
 Ene= -6.67890639021609E-01
 Spin= Alpha
 Occup= 2.000000
  1       0.021726771780
  2      -0.043196646829
  3       0.113563167364
  4      -0.085622094791
  5       0.152843309663
  6      -0.061113195124
  7       0.048901297564
  8      -0.021221984921
  9       0.054949658565
 10       0.015861984659
 11       0.010172677838
 12       0.017200525262
 13      -0.031789376165
 14      -0.140998155653
 15      -0.068312567830
 16      -0.002191752656
 17      -0.051084771081
 18      -0.065090907366
 19      -0.023769946499
 20      -0.007160860869
 21      -0.023317203380
 22       0.048722506616
 23      -0.115494646509
 24       0.090604354569
 25      -0.124039552326
 26       0.034503680751
 27      -0.029014565724
 28       0.037385663869
 29      -0.043009345065
 30       0.021104564389
 31      -0.040645755872
 32       0.094433225793
 33       0.232293320715
 34      -0.153598273501
 35      -0.055056509896
 36       0.040169972472
 37       0.097332371342
 38      -0.061162422539
 39      -0.024726986164
 40       0.052737674307
 41       0.124662916250
 42       0.139279123288
 43       0.030213111948
 44       0.046115353616
 45       0.041701419094
 46       0.043966194542
 47       0.007873132219
 48      -0.135953544323
 49      -0.085317441730
 50      -0.001256108780
 51      -0.006385260521
 52      -0.027118249209
 53      -0.015757319167
 54      -0.097096273813
 55      -0.058172761845
 56      -0.083323590463
 57      -0.058472032882
 58      -0.188130685606
 59      -0.114038170557
 60      -0.080297509694
 61      -0.058735497394
 Sym=     1a
 Ene= -6.02551224107500E-01
 Spin= Alpha
 Occup= 2.000000
  1       0.007742126564
  2      -0.017120972203
  3      -0.167222602975
  4      -0.097639700503
  5      -0.204890506841
  6      -0.030211414909
  7      -0.074522130958
  8      -0.045935918190
  9      -0.095548614171
 10       0.095295095202
 11       0.064516594508
 12      -0.010693369593
 13       0.020616839829
 14      -0.111324322416
 15       0.026395214493
 16      -0.118787997310
 17       0.030693671400
 18      -0.042739456065
 19       0.013127263338
 20      -0.055829862955
 21      -0.003487466602
 22       0.009510274952
 23      -0.246763556583
 24      -0.016449385639
 25      -0.120573217244
 26       0.002462597669
 27      -0.101081914688
 28       0.001482309349
 29      -0.059744051156
 30      -0.009718848306
 31       0.022004268449
 32       0.224766661748
 33       0.036935355155
 34       0.036548757503
 35      -0.011839200897
 36       0.065125879876
 37      -0.005789277921
 38       0.012930117157
 39       0.015649997736
 40      -0.036197908120
 41      -0.117248898943
 42      -0.075181469242
 43      -0.150364151581
 44      -0.024785699411
 45      -0.032217210178
 46      -0.018350002208
 47      -0.060195268490
 48       0.144650851081
 49       0.100967417198
 50      -0.141404583419
 51      -0.091295521725
 52       0.010199637579
 53       0.001930450295
 54      -0.059194256221
 55      -0.050072176141
 56      -0.135517846785
 57      -0.094229011112
 58      -0.035323058363
 59      -0.033743659828
 60       0.090118440778
 61       0.072161830695
 Sym=     1a
 Ene= -5.84647994544836E-01
 Spin= Alpha
 Occup= 2.000000
  1       0.007149130295
  2      -0.019166535859
  3      -0.019370349295
  4       0.285189865709
  5      -0.166516238634
  6       0.017319162001
  7      -0.002283457585
  8       0.102643849549
  9      -0.058251169849
 10      -0.018345032493
 11      -0.010756639179
 12       0.006942416831
 13      -0.008484062827
 14      -0.107608368184
 15      -0.179179609557
 16       0.064435666820
 17      -0.037752928758
 18      -0.046415268048
 19      -0.074901686646
 20       0.024350198202
 21      -0.024123002120
 22       0.049021513495
 23       0.114892408634
 24       0.140743822539
 25      -0.113883775973
 26       0.083830387197
 27       0.043062939544
 28       0.054697212140
 29      -0.050834113177
 30       0.010756480142
 31      -0.021516243473
 32      -0.118550321292
 33       0.047533472671
 34      -0.167350623356
 35      -0.021826940364
 36      -0.043174949527
 37       0.020465536409
 38      -0.072647130929
 39       0.007642508622
 40      -0.018265069247
 41       0.032980296705
 42      -0.307313983470
 43       0.134614734581
 44       0.004502720285
 45       0.004404155864
 46      -0.111390611253
 47       0.036567719698
 48       0.110086451288
 49       0.086714347079
 50       0.098581105512
 51       0.071715813219
 52      -0.068038124898
 53      -0.051378546179
 54      -0.075075571786
 55      -0.055069825567
 56      -0.013082285194
 57      -0.012652700741
 58      -0.073556145551
 59      -0.050862858632
 60       0.094418527941
 61       0.070279053151
 Sym=     1a
 Ene= -5.67511609665345E-01
 Spin= Alpha
 Occup= 2.000000
  1       0.004649375855
  2      -0.009080932063
  3      -0.030749002212
  4       0.022229533550
  5      -0.005541041402
  6      -0.012674766522
  7      -0.017217495067
  8       0.004590959042
  9       0.006933581597
 10      -0.144580701009
 11      -0.113805267506
 12       0.000451982514
 13      -0.001928006867
 14      -0.177544481022
 15       0.239048707588
 16       0.288514367615
 17      -0.000607985225
 18      -0.088537276912
 19       0.122672211476
 20       0.145259985700
 21      -0.005850315331
 22       0.009881736695
 23      -0.049634115689
 24       0.102888502740
 25       0.072211545850
 26       0.029465672096
 27      -0.032063948395
 28       0.049028849127
 29       0.034404457567
 30       0.003152632792
 31      -0.004218950621
 32      -0.015716597428
 33       0.044970201990
 34       0.056192519586
 35      -0.021089413872
 36      -0.020490451811
 37       0.022438749014
 38       0.038062783163
 39      -0.001282385388
 40       0.003378843212
 41      -0.056704763441
 42      -0.031465365521
 43       0.007831016097
 44       0.004003123822
 45      -0.028661724431
 46      -0.016246672890
 47       0.005481038607
 48       0.010966740107
 49       0.011271919232
 50       0.003764064358
 51       0.013526994028
 52       0.252062942137
 53       0.196567528601
 54      -0.126168019597
 55      -0.097373368335
 56      -0.013647290492
 57      -0.011367461605
 58      -0.002297941116
 59      -0.004929292092
 60       0.038856637792
 61       0.028214686724
 Sym=     1a
 Ene= -5.42385923305934E-01
 Spin= Alpha
 Occup= 2.000000
  1      -0.012875010444
  2       0.028416878751
  3      -0.131033375708
  4      -0.070934678173
  5      -0.111610658474
  6       0.014854667019
  7      -0.084191223188
  8      -0.032608379794
  9      -0.067784843977
 10      -0.184642858688
 11      -0.143123497109
 12      -0.006213222958
 13       0.016287886270
 14       0.238775774585
 15      -0.066070016860
 16       0.204843235252
 17      -0.008287137952
 18       0.144653460648
 19      -0.029694142595
 20       0.109014949858
 21       0.007852409649
 22      -0.015800767360
 23      -0.064179960769
 24       0.102688639658
 25      -0.088590045888
 26      -0.014795535725
 27      -0.043404342039
 28       0.067163117129
 29      -0.059408294505
 30      -0.035045510796
 31       0.078123016538
 32      -0.022271361832
 33       0.102725081586
 34      -0.071646617213
 35       0.071168855478
 36      -0.014791297436
 37       0.023367920143
 38      -0.010327981777
 39       0.007954669655
 40      -0.014720173417
 41       0.112810748582
 42       0.087862833066
 43       0.085754758706
 44      -0.014529198829
 45       0.071518343417
 46       0.064417116949
 47       0.052698433483
 48       0.125905394915
 49       0.089562607495
 50      -0.110342728667
 51      -0.085074421924
 52      -0.024978483984
 53      -0.020933587572
 54       0.172975437879
 55       0.132591796523
 56      -0.108905484120
 57      -0.072195442157
 58      -0.032519285068
 59      -0.041994404137
 60      -0.122261938746
 61      -0.083347221043
 Sym=     1a
 Ene= -5.07466591450765E-01
 Spin= Alpha
 Occup= 2.000000
  1       0.011588879711
  2      -0.026001724458