
                                 *****************
                                 * O   R   C   A *
                                 *****************

                                            #,                                       
                                            ###                                      
                                            ####                                     
                                            #####                                    
                                            ######                                   
                                           ########,                                 
                                     ,,################,,,,,                         
                               ,,#################################,,                 
                          ,,##########################################,,             
                       ,#########################################, ''#####,          
                    ,#############################################,,   '####,        
                  ,##################################################,,,,####,       
                ,###########''''           ''''###############################       
              ,#####''   ,,,,##########,,,,          '''####'''          '####       
            ,##' ,,,,###########################,,,                        '##       
           ' ,,###''''                  '''############,,,                           
         ,,##''                                '''############,,,,        ,,,,,,###''
      ,#''                                            '''#######################'''  
     '                                                          ''''####''''         
             ,#######,   #######,   ,#######,      ##                                
            ,#'     '#,  ##    ##  ,#'     '#,    #''#        ,####,    ,#,          
            ##       ##  ##   ,#'  ##            #'  '#       #'       ,# #          
            ##       ##  #######   ##           ,######,      #####,      #          
            '#,     ,#'  ##    ##  '#,     ,#' ,#      #,     #,   #      #          
             '#######'   ##     ##  '#######'  #'      '#     '####' #    #          



                #########################################################
                #                        -***-                          #
                #          Department of theory and spectroscopy        #
                #                                                       #
                #                      Frank Neese                      #
                #                                                       #
                #     Directorship, Architecture, Infrastructure        #
                #                    SHARK, DRIVERS                     #
                #        Core code/Algorithms in most modules           #
                #                                                       #
                #        Max Planck Institute fuer Kohlenforschung      #
                #                Kaiser Wilhelm Platz 1                 #
                #                 D-45470 Muelheim/Ruhr                 #
                #                      Germany                          #
                #                                                       #
                #                  All rights reserved                  #
                #                        -***-                          #
                #########################################################


                         Program Version 6.1.0  -  RELEASE   -
                                (GIT: $679e74b$)
                          ($2025-06-10 18:02:51 +0200$)


 With contributions from (in alphabetic order):
[Max-Planck-Institut fuer Kohlenforschung]                               
  Daniel Aravena         : Magnetic Suceptibility                        
  Michael Atanasov       : Ab Initio Ligand Field Theory (pilot matlab implementation)
  Alexander A. Auer      : GIAO ZORA, VPT2 properties, NMR spectrum      
  Ute Becker             : All parallelization in ORCA, NUMFREQ, NUMCALC 
  Giovanni Bistoni       : ED, misc. LED, open-shell LED, HFLD           
  Dmytro Bykov           : pre 5.0 version of the SCF Hessian            
  Marcos Casanova-Páez   : Triplet and SCS-CIS(D). UHF-(DLPNO)-IP/EA/STEOM-CCSD. UHF-CVS-IP/STEOM-CCSD   
  Vijay G. Chilkuri      : MRCI spin determinant printing, contributions to CSF-ICE 
  Pauline Colinet        : FMM embedding                                 
  Dipayan Datta          : RHF DLPNO-CCSD density                        
  Achintya Kumar Dutta   : EOM-CC, STEOM-CC                              
  Nicolas Foglia         : Exact transition moments, OPA infrastructure, MCD improvements    
  Dmitry Ganyushin       : Spin-Orbit,Spin-Spin,Magnetic field MRCI      
  Miquel Garcia-Rates    : C-PCM and meta-GGA Hessian, CCSD/C-PCM, Gaussian charge scheme 
  Tiago L. C. Gouveia    : GS-ROHF, GS-ROCIS                             
  Yang Guo               : DLPNO-NEVPT2, F12-NEVPT2, CIM, IAO-localization        
  Andreas Hansen         : Spin unrestricted coupled pair/coupled cluster methods 
  Ingolf Harden          : AUTO-CI MPn and infrastructure                
  Benjamin Helmich-Paris : MC-RPA, TRAH-(SCF,CASSCF), AVAS, COSX integrals, SCF dyn. polar., MC-PDFT, srDFT 
  Lee Huntington         : MR-EOM, pCC                                   
  Robert Izsak           : Overlap fitted RIJCOSX, COSX-SCS-MP3, EOM     
  Riya Kayal             : Wick's Theorem for AUTO-CI, AUTO-CI UHF-CCSDT 
  Emily Kempfer          : AUTO-CI RHF CISDT and CCSDT, approximate NEVPT4
  Christian Kollmar      : KDIIS, OOCD, Brueckner-CCSD(T), CCSD density, CASPT2, CASPT2-K, improved NEVPT2 
  Axel Koslowski         : Symmetry handling                             
  Simone Kossmann        : meta-GGA functionals, TD-DFT gradient, OOMP2, (MP2 Hessian; deprecated post 5.0) 
  Lucas Lang             : DCDCAS, Hyperfine gauge corrections, ICE-SOC+SSC
  Marvin Lechner         : AUTO-CI (C++ implementation), FIC-MRCC        
  Spencer Leger          : CASSCF response                               
  Dagmar Lenk            : GEPOL surface, SMD, ORCA-2-JSON               
  Dimitrios Liakos       : Extrapolation schemes; Compound Job, Property file
  Dimitrios Manganas     : Further ROCIS development; embedding schemes. LFT, Crystal Embedding 
  Dimitrios Pantazis     : SARC Basis sets                               
  Anastasios Papadopoulos: AUTO-CI, single reference methods and gradients 
  Taras Petrenko         : pre 6.0 DFT Hessian and TD-DFT gradient,  ECA, NRVS 
  Petra Pikulova         : Analytic Raman intensities                    
  Peter Pinski           : DLPNO-MP2, DLPNO-MP2 Gradient                 
  Shashank Vittal Rao    : ES-AILFT, MagRelax                            
  Christoph Reimann      : Effective Core Potentials                     
  Marius Retegan         : Local ZFS, SOC                                
  Christoph Riplinger    : Optimizer, TS searches, QM/MM, DLPNO-CCSD(T), (RO)-DLPNO pert. Triples 
  Michael Roemelt        : Original ROCIS implementation, recursive CI coupling coefficients
  Masaaki Saitow         : Open-shell DLPNO-CCSD energy and density      
  Barbara Sandhoefer     : DKH picture change effects                    
  Yorick L. A. Schmerwitz: GMF and freeze-and-release deltaSCF, NEB S-IDPP initial path                    
  Kantharuban Sivalingam : CASSCF convergence/infrastructure, NEVPT2, NEVPT3, NEVPT4(SD), FIC-MRCI and CEPA variants
  Bernardo de Souza      : ESD, SOC TD-DFT                               
  Georgi L. Stoychev     : AutoAux, RI-MP2 NMR, DLPNO-MP2 response, X2C  
  Van Anh Tran           : RI-MP2 g-tensors                              
  Willem Van den Heuvel  : Paramagnetic NMR                              
  Zikuan Wang            : NOTCH, Electric field optimization            
  Frank Wennmohs         : Technical directorship and infrastructure     
  Hang Xu                : AUTO-CI-Response properties                   
                                                                         
[FACCTs GmbH]                                                            
  Markus Bursch, Nicolas Foglia, Miquel Garcia-Rates, Ingolf Harden, Hagen Neugebauer, Anastasios Papadopoulos, 
  Christoph Riplinger, Bernardo de Souza, Georgi L. Stoychev                                                    
                                                                 
  APM, various basis sets, CI-OPT, improved COSX, DLPNO-Multilevel,           
  DOCKER, DRACO, updates on ESD, Fragmentator, GOAT, IRC, LR-CPCM, L-BFGS, MBIS, meta-GGA TD-DFT gradient, ML-optimized integration grids, 
  MM, NACMEs, nearIR, NEB, NEB-TS, NL-DFT gradient (VV10), 2- and 3-layer-ONIOM, interface openCOSMO-RS, QMMM,   
  Crystal-QMMM, RESP, rigid body optimization, SF, symmetry and pop. for TD-DFT, various functionals, SOLVATOR                                   
                                                                         
[Other institutions]                                                     
  V. Asgeirsson          : NEB                                           
  Christoph Bannwarth    : sTDA-DFT, sTD-DFT, PBEh-3c, B97-3c, D3        
  Giovanni Bistoni       : ETS/NOCV, ADLD/ADEX, COVALED                  
  Martin Brehm           : Molecular dynamics                            
  Ronald Cardenas        : ETS/NOCV                                      
  Martina Colucci        : COVALED                                       
  Sebastian Ehlert       : rSCAN, r2SCAN, r2SCAN-3c, D4, dhf basis sets  
  Marvin Friede          : D4 for Fr, Ra, Ac-Lr                          
  Lars Goerigk           : TD-DFT with DH, B97 family of functionals     
  Stefan Grimme          : VdW corrections, initial TS optimization, DFT functionals, gCP, sTDA/sTD-DF 
  Waldemar Hujo          : DFT-NL                                        
  H. Jonsson             : NEB                                           
  Holger Kruse           : gCP                                           
  Marcel Mueller         : wB97X-3c, vDZP basis set                      
  Hagen Neugebauer       : wr2SCAN, Native XTB                           
  Gianluca Regni         : ADLD/ADEX                                     
  Tobias Risthaus        : pre 6.0 range-separated hybrid DFT and stability analysis
  Lukas Wittmann         : regularized MP2, r2SCAN double-hybrids, wr2SCAN        
                                                                         
We gratefully acknowledge several colleagues who have allowed us to      
interface, adapt or use parts of their codes:                            
  Ed Valeev, F. Pavosevic, A. Kumar             : LibInt (2-el integral package), F12 methods 
  Garnet Chan, S. Sharma, J. Yang, R. Olivares  : DMRG                   
  Ulf Ekstrom                                   : XCFun DFT Library      
  Mihaly Kallay                                 : mrcc  (arbitrary order and MRCC methods)
  Frank Weinhold                                : gennbo (NPA and NBO analysis)           
  Simon Mueller                                 : openCOSMO-RS                            
  Christopher J. Cramer and Donald G. Truhlar   : smd solvation model                     
  S Lehtola, MJT Oliveira, MAL Marques          : LibXC Library                           
  Liviu Ungur et al                             : ANISO software                          


 Your calculation uses the libint2 library for the computation of 2-el integrals
 For citations please refer to: http://libint.valeyev.net

 Your ORCA version has been built with support for libXC version: 7.0.0
 For citations please refer to: https://libxc.gitlab.io

 This ORCA versions uses:
   CBLAS   interface :  Fast vector & matrix operations
   LAPACKE interface :  Fast linear algebra routines
   SCALAPACK package :  Parallel linear algebra routines
   Shared memory     :  Shared parallel matrices
   BLAS/LAPACK       :  OpenBLAS 0.3.29  USE64BITINT DYNAMIC_ARCH NO_AFFINITY Zen SINGLE_THREADED
        Core in use  :  Zen
   Copyright (c) 2011-2014, The OpenBLAS Project


  ***********************************
  * Starting time: Sun Apr  5 13:03:43 2026
  * Host name:     QC1
  * Process ID:    15709
  * Working dir.:  /home/user/QC/h-shift/split_2
  ***********************************

NOTE: MaxCore=1200 MB was set to SCF,MP2,MDCI,CIPSI,MRCI,RASCI and CIS
      => If you want to overwrite this, your respective input block should be placed after the MaxCore statement
================================================================================

----- Orbital basis set information -----
Your calculation utilizes the basis: 6-31G
   H-He, Li-Ne : W. J. Hehre, R. Ditchfield and J.A. Pople, J. Chem. Phys. 56, 2257 (1972).
                 Note: He and Ne are unpublished basis sets taken from the Gaussian program.
                 Note: Li and B from J. D. Dill and J. A. Pople, J. Chem. Phys. 62, 2921 (1975).
   Na - Ar     : M. M. Francl, W. J. Pietro, W. J. Hehre, J. S. Binkley, M. S. Gordon, 
                 D. J. DeFrees and J. A. Pople, J. Chem. Phys. 77, 3654 (1982).
   K - Zn      : V. A. Rassolov, J. A. Pople, M. A. Ratner, and T. L. Windus, J. Chem. Phys. 109, 1223 (1998).

================================================================================
                                        WARNINGS
                       Please study these warnings very carefully!
================================================================================


================================================================================
                                       INPUT FILE
================================================================================
NAME = h-shift_091.inp
|  1> ! HF 6-31G
|  2> %maxcore 1200
|  3> %pal nprocs 8 end
|  4> * xyz 0 1
|  5> C   -0.47240100   0.00246900   0.02893300
|  6> H    2.19269500   0.01828800   0.02627900
|  7> C    2.50317800   0.00999700   1.06387100
|  8> C    1.85419700  -1.11386000   1.81974800
|  9> C    0.63395200  -1.60706900   1.61380000
| 10> C   -0.33281700  -1.19764700   0.58374800
| 11> H   -1.19072000   0.17207800  -0.74975800
| 12> H    0.10495600   0.85327500   0.32875100
| 13> H    2.23197500   0.97291400   1.48906100
| 14> H    3.58229600  -0.06461000   1.09733500
| 15> H    2.44948000  -1.56291400   2.59617100
| 16> H    0.31720000  -2.43145000   2.23002900
| 17> H   -0.99204500  -1.98334600   0.25490200
| 18> *
| 19> 
| 20>                          ****END OF INPUT****
================================================================================

                       ****************************
                       * Single Point Calculation *
                       ****************************

---------------------------------
CARTESIAN COORDINATES (ANGSTROEM)
---------------------------------
  C     -0.472401    0.002469    0.028933
  H      2.192695    0.018288    0.026279
  C      2.503178    0.009997    1.063871
  C      1.854197   -1.113860    1.819748
  C      0.633952   -1.607069    1.613800
  C     -0.332817   -1.197647    0.583748
  H     -1.190720    0.172078   -0.749758
  H      0.104956    0.853275    0.328751
  H      2.231975    0.972914    1.489061
  H      3.582296   -0.064610    1.097335
  H      2.449480   -1.562914    2.596171
  H      0.317200   -2.431450    2.230029
  H     -0.992045   -1.983346    0.254902

----------------------------
CARTESIAN COORDINATES (A.U.)
----------------------------
  NO LB      ZA    FRAG     MASS         X           Y           Z
   0 C     6.0000    0    12.011   -0.892709    0.004666    0.054675
   1 H     1.0000    0     1.008    4.143593    0.034559    0.049660
   2 C     6.0000    0    12.011    4.730321    0.018892    2.010425
   3 C     6.0000    0    12.011    3.503925   -2.104890    3.438825
   4 C     6.0000    0    12.011    1.197996   -3.036920    3.049640
   5 C     6.0000    0    12.011   -0.628933   -2.263225    1.103124
   6 H     1.0000    0     1.008   -2.250135    0.325180   -1.416837
   7 H     1.0000    0     1.008    0.198338    1.612456    0.621249
   8 H     1.0000    0     1.008    4.217821    1.838541    2.813917
   9 H     1.0000    0     1.008    6.769558   -0.122095    2.073663
  10 H     1.0000    0     1.008    4.628846   -2.953479    4.906052
  11 H     1.0000    0     1.008    0.599421   -4.594775    4.214144
  12 H     1.0000    0     1.008   -1.874693   -3.747981    0.481695

--------------------------------
INTERNAL COORDINATES (ANGSTROEM)
--------------------------------
 C      0   0   0     0.000000000000     0.00000000     0.00000000
 H      1   0   0     2.665144268833     0.00000000     0.00000000
 C      2   1   0     1.083081526218   106.59840574     0.00000000
 C      3   2   1     1.501859159155   111.34668882    52.68857778
 C      4   3   2     1.332166489749   126.51650231   326.53511778
 C      1   2   3     1.329504340248    84.30607919   295.36105639
 H      1   2   3     1.072897512404   131.90057051   167.98376944
 H      1   2   3     1.071028845647    57.07817854    71.03954842
 H      3   2   1     1.086989766372   107.24328953   291.08757165
 H      3   2   1     1.082211486572   108.42105878   175.49377724
 H      4   3   2     1.076496177389   115.86171427   145.88544716
 H      5   4   3     1.076881629106   117.67024717   178.82994995
 H      6   1   2     1.077053464922   117.82816120   221.17232538

---------------------------
INTERNAL COORDINATES (A.U.)
---------------------------
 C      0   0   0     0.000000000000     0.00000000     0.00000000
 H      1   0   0     5.036392775484     0.00000000     0.00000000
 C      2   1   0     2.046727465261   106.59840574     0.00000000
 C      3   2   1     2.838102502525   111.34668882    52.68857778
 C      4   3   2     2.517429830413   126.51650231   326.53511778
 C      1   2   3     2.512399096927    84.30607919   295.36105639
 H      1   2   3     2.027482468209   131.90057051   167.98376944
 H      1   2   3     2.023951199804    57.07817854    71.03954842
 H      3   2   1     2.054112968819   107.24328953   291.08757165
 H      3   2   1     2.045083328605   108.42105878   175.49377724
 H      4   3   2     2.034282959479   115.86171427   145.88544716
 H      5   4   3     2.035011357661   117.67024717   178.82994995
 H      6   1   2     2.035336080294   117.82816120   221.17232538

---------------------
BASIS SET INFORMATION
---------------------
There are 2 groups of distinct atoms

 Group   1 Type C   : 10s4p contracted to 3s2p pattern {631/31}
 Group   2 Type H   : 4s contracted to 2s pattern {31}

Atom   0C    basis set group =>   1
Atom   1H    basis set group =>   2
Atom   2C    basis set group =>   1
Atom   3C    basis set group =>   1
Atom   4C    basis set group =>   1
Atom   5C    basis set group =>   1
Atom   6H    basis set group =>   2
Atom   7H    basis set group =>   2
Atom   8H    basis set group =>   2
Atom   9H    basis set group =>   2
Atom  10H    basis set group =>   2
Atom  11H    basis set group =>   2
Atom  12H    basis set group =>   2


           ************************************************************
           *        Program running with 8 parallel MPI-processes     *
           *              working on a common directory               *
           ************************************************************
------------------------------------------------------------------------------
                             ORCA STARTUP CALCULATIONS
------------------------------------------------------------------------------
------------------------------------------------------------------------------
                   ___                                                        
                  /   \      - P O W E R E D   B Y -                         
                 /     \                                                     
                 |  |  |   _    _      __       _____    __    __             
                 |  |  |  | |  | |    /  \     |  _  \  |  |  /  |          
                  \  \/   | |  | |   /    \    | | | |  |  | /  /          
                 / \  \   | |__| |  /  /\  \   | |_| |  |  |/  /          
                |  |  |   |  __  | /  /__\  \  |    /   |      \           
                |  |  |   | |  | | |   __   |  |    \   |  |\   \          
                \     /   | |  | | |  |  |  |  | |\  \  |  | \   \       
                 \___/    |_|  |_| |__|  |__|  |_| \__\ |__|  \__/        
                                                                              
                      - O R C A' S   B I G   F R I E N D -                    
                                      &                                       
                       - I N T E G R A L  F E E D E R -                       
                                                                              
 v1 FN, 2020, v2 2021, v3 2022-2024                                           
------------------------------------------------------------------------------


----------------------
SHARK INTEGRAL PACKAGE
----------------------

Number of atoms                             ...     13
Number of basis functions                   ...     61
Number of shells                            ...     41
Maximum angular momentum                    ...      1
Integral batch strategy                     ... SHARK/LIBINT Hybrid
RI-J (if used) integral strategy            ... SPLIT-RIJ (Revised 2003 algorithm where possible)
Printlevel                                  ...      1
Contraction scheme used                     ... SEGMENTED contraction
Prescreening option                         ... SCHWARTZ
   Thresh                                   ... 1.000e-10
   Tcut                                     ... 1.000e-11
   Tpresel                                  ... 1.000e-11 
Coulomb Range Separation                    ... NOT USED
Exchange Range Separation                   ... NOT USED
Multipole approximations                    ... NOT USED
Finite Nucleus Model                        ... NOT USED
CABS basis                                  ... NOT available
Auxiliary Coulomb fitting basis             ... NOT available
Auxiliary J/K fitting basis                 ... NOT available
Auxiliary Correlation fitting basis         ... NOT available
Auxiliary 'external' fitting basis          ... NOT available

Checking pre-screening integrals            ... done (  0.0 sec) Dimension = 41
   => SHARK Basis and OBASIS are compatible. Storing Pre-screening
Shell pair information
Shell pair cut-off parameter TPreSel        ...   1.0e-11
Total number of shell pairs                 ...       861
Shell pairs after pre-screening             ...       846
Total number of primitive shell pairs       ...      5382
Primitive shell pairs kept                  ...      3722
          la=0 lb=0:    481 shell pairs
          la=1 lb=0:    310 shell pairs
          la=1 lb=1:     55 shell pairs

Checking whether 4 symmetric matrices of dimension 61 fit in memory
:Max Core in MB      =   1200.00
 MB in use           =      2.04
 MB left             =   1197.96
 MB needed           =      0.06
 Data fit in memory  = YES
Calculating Nuclear repulsion               ... done (  0.0 sec) ENN=    160.097944374373 Eh

Diagonalization of the overlap matrix:
Smallest eigenvalue                        ... 3.381e-03
Time for diagonalization                   ...    0.001 sec
Threshold for overlap eigenvalues          ... 1.000e-07
Number of eigenvalues below threshold      ... 0
Time for construction of square roots      ...    0.000 sec
Total time needed                          ...    0.001 sec

-------------------
DFT GRID GENERATION
-------------------

General Integration Accuracy     IntAcc      ... 4.388
Radial Grid Type                 RadialGrid  ... OptM3 with GC (2021)
Angular Grid (max. ang.)         AngularGrid ... 4 (Lebedev-302)
Angular grid pruning method      GridPruning ... 4 (adaptive)
Weight generation scheme         WeightScheme... mBecke (2022)
Basis function cutoff            BFCut       ... 1.0000e-10
Integration weight cutoff        WCut        ... 1.0000e-14
Partially contracted basis set               ... off
Rotationally invariant grid construction     ... off
Angular grids for H and He will be reduced by one unit

Total number of grid points                  ...    56079
Total number of batches                      ...      884
Average number of points per batch           ...       63
Average number of grid points per atom       ...     4314
Grids setup in   0.3 sec
Initializing property integral containers    ... done (  0.0 sec)

SHARK setup successfully completed in   0.3 seconds

Maximum memory used throughout the entire STARTUP-calculation: 11.9 MB


           ************************************************************
           *        Program running with 8 parallel MPI-processes     *
           *              working on a common directory               *
           ************************************************************
-------------------------------------------------------------------------------
                                 ORCA GUESS
                   Start orbitals & Density for SCF / CASSCF
-------------------------------------------------------------------------------

------------
SCF SETTINGS
------------
Hamiltonian:
 Ab initio Hamiltonian  Method          .... Hartree-Fock(GTOs)


General Settings:
 Integral files         IntName         .... h-shift_091
 Hartree-Fock type      HFTyp           .... RHF
 Total Charge           Charge          ....    0
 Multiplicity           Mult            ....    1
 Number of Electrons    NEL             ....   38
 Basis Dimension        Dim             ....   61
 Nuclear Repulsion      ENuc            ....    160.0979443744 Eh

Convergence Acceleration:
 AO-DIIS                CNVDIIS         .... on
   Start iteration      DIISMaxIt       ....    12
   Startup error        DIISStart       ....  0.200000
   # of expansion vecs  DIISMaxEq       ....     5
   Bias factor          DIISBfac        ....   1.050
   Max. coefficient     DIISMaxC        ....  10.000
 MO-DIIS                CNVKDIIS        .... off
 Trust-Rad. Augm. Hess. CNVTRAH         .... auto
   Auto Start mean grad. ratio tolernc. ....  1.125000
   Auto Start start iteration           ....    50
   Auto Start num. interpolation iter.  ....    10
   Max. Number of Micro iterations      ....    24
   Max. Number of Macro iterations      .... Maxiter - #DIIS iter
   Number of Davidson start vectors     ....     2
   Converg. threshold    (grad. norm)   ....   5.000e-05
   Grad. Scal. Fac. for Micro threshold ....   0.100
   Minimum threshold for Micro iter.    ....   1.000e-02
   NR start threshold (gradient norm)   ....   1.000e-04
   Initial trust radius                 ....   0.400
   Minimum AH scaling param. (alpha)    ....   1.000
   Maximum AH scaling param. (alpha)    .... 1000.000
   Quad. conv. algorithm                .... NR
   White noise on init. David. guess    .... on
   Maximum white noise                  ....   0.010
   Pseudo random numbers                .... off
   Inactive MOs                         .... canonical
   Orbital update algorithm             .... Taylor
   Preconditioner                       .... Diag
   Full preconditioner red. dimension   ....   250
 SOSCF                 CNVSOSCF           .... on
   Start iteration     SOSCFMaxIt         ....   150
   Startup grad/error  SOSCFStart         ....  0.003300
   Hessian update      SOSCFHessUp        .... L-BFGS
   Autom. constraints  SOSCFAutoConstrain .... off
 Level Shifting         CNVShift        .... on
   Level shift para.    LevelShift      ....    0.2500
   Turn off err/grad.   ShiftErr        ....    0.0010
 Zerner damping         CNVZerner       .... off
 Static damping         CNVDamp         .... on
   Fraction old density DampFac         ....    0.7000
   Max. Damping (<1)    DampMax         ....    0.9800
   Min. Damping (>=0)   DampMin         ....    0.0000
   Turn off err/grad.   DampErr         ....    0.1000

SCF Procedure:
 Maximum # iterations   MaxIter         ....   125
 SCF integral mode      SCFMode         .... Direct
   Integral package                     .... SHARK and LIBINT hybrid scheme
 Reset frequency        DirectResetFreq ....    20
 Integral Threshold     Thresh          ....  1.000e-10 Eh
 Primitive CutOff       TCut            ....  1.000e-11 Eh

Convergence Tolerance:
 Convergence Check Mode ConvCheckMode   .... Total+1el-Energy
 Convergence forced     ConvForced      .... 0
 Energy Change          TolE            ....  1.000e-06 Eh
 1-El. energy change                    ....  1.000e-03 Eh
 Orbital Gradient       TolG            ....  5.000e-05
 Orbital Rotation angle TolX            ....  5.000e-05
 DIIS Error             TolErr          ....  1.000e-06

------------------------------
INITIAL GUESS: MODEL POTENTIAL
------------------------------
Loading Hartree-Fock densities                     ... done
Calculating cut-offs                               ... done
Initializing the effective Hamiltonian             ... done
Setting up the integral package (SHARK)            ... done
Starting the Coulomb interaction                   ... done (   0.0 sec)
Making the grid                                    ... done (   0.1 sec)
Mapping shells                                     ... done
Starting the XC term evaluation                    ... done (   0.0 sec)
Transforming the Hamiltonian                       ... done (   0.0 sec)
Diagonalizing the Hamiltonian                      ... done (   0.0 sec)
Back transforming the eigenvectors                 ... done (   0.0 sec)
Now organizing SCF variables                       ... done
                      ------------------
                      INITIAL GUESS DONE (   0.1 sec)
                      ------------------
             **** ENERGY FILE WAS UPDATED (h-shift_091.en.tmp) ****
Finished Guess after   0.4 sec
Maximum memory used throughout the entire GUESS-calculation: 4.2 MB


           ************************************************************
           *        Program running with 8 parallel MPI-processes     *
           *              working on a common directory               *
           ************************************************************

-------------------------------------------------------------------------------------------
                                      ORCA LEAN-SCF
                              memory conserving SCF solver
-------------------------------------------------------------------------------------------

----------------------------------------D-I-I-S--------------------------------------------
Iteration    Energy (Eh)           Delta-E    RMSDP     MaxDP     DIISErr   Damp  Time(sec)
-------------------------------------------------------------------------------------------
               ***  Starting incremental Fock matrix formation  ***
    1    -193.6476299530283711     0.00e+00  1.57e-02  5.15e-02  1.81e-01  0.700   0.0
    2    -193.7287357058727650    -8.11e-02  1.25e-02  3.91e-02  1.19e-01  0.700   0.0
                               ***Turning on AO-DIIS***
    3    -193.7789036193357504    -5.02e-02  7.70e-03  2.01e-02  7.12e-02  0.700   0.0
    4    -193.8106088148672086    -3.17e-02  1.83e-02  4.38e-02  4.83e-02  0.000   0.0
                              *** Initializing SOSCF ***
---------------------------------------S-O-S-C-F--------------------------------------
Iteration    Energy (Eh)           Delta-E    RMSDP     MaxDP     MaxGrad    Time(sec)
--------------------------------------------------------------------------------------
    5    -193.8791895521810886    -6.86e-02  1.68e-03  2.62e-03  2.16e-03     0.0
               *** Restarting incremental Fock matrix formation ***
    6    -193.8793091455590059    -1.20e-04  8.57e-04  1.38e-03  1.33e-03     0.0
    7    -193.8793437308283671    -3.46e-05  5.28e-04  1.07e-03  5.33e-04     0.0
    8    -193.8793502264211099    -6.50e-06  6.91e-05  1.89e-04  1.33e-04     0.0
    9    -193.8793504366488776    -2.10e-07  3.14e-05  9.26e-05  3.58e-05     0.0
                 **** Energy Check signals convergence ****

               *****************************************************
               *                     SUCCESS                       *
               *           SCF CONVERGED AFTER   9 CYCLES          *
               *****************************************************

             **** ENERGY FILE WAS UPDATED (h-shift_091.en.tmp) ****

----------------
TOTAL SCF ENERGY
----------------

Total Energy       :       -193.87935049286276 Eh           -5275.72534 eV

Components:
Nuclear Repulsion  :        160.09794437437276 Eh            4356.48655 eV
Electronic Energy  :       -353.97729486723551 Eh           -9632.21189 eV
One Electron Energy:       -577.15975058163758 Eh          -15705.31526 eV
Two Electron Energy:        223.18245571440207 Eh            6073.10337 eV

Virial components:
Potential Energy   :       -388.03205072883111 Eh          -10558.88890 eV
Kinetic Energy     :        194.15270023596833 Eh            5283.16356 eV
Virial Ratio       :          1.99859208889306

---------------
SCF CONVERGENCE
---------------

  Last Energy change         ...    2.1023e-07  Tolerance :   1.0000e-06
  Last MAX-Density change    ...    9.2582e-05  Tolerance :   1.0000e-05
  Last RMS-Density change    ...    3.1429e-05  Tolerance :   1.0000e-06
  Last DIIS Error            ...    2.1577e-03  Tolerance :   1.0000e-06
  Last Orbital Gradient      ...    3.5832e-05  Tolerance :   5.0000e-05
  Last Orbital Rotation      ...    3.5660e-05  Tolerance :   5.0000e-05


----------------
ORBITAL ENERGIES
----------------

  NO   OCC          E(Eh)            E(eV) 
   0   2.0000     -11.236083      -305.7494 
   1   2.0000     -11.235199      -305.7253 
   2   2.0000     -11.227483      -305.5153 
   3   2.0000     -11.222037      -305.3672 
   4   2.0000     -11.216214      -305.2087 
   5   2.0000      -1.098830       -29.9007 
   6   2.0000      -1.022321       -27.8188 
   7   2.0000      -0.940818       -25.6010 
   8   2.0000      -0.814864       -22.1736 
   9   2.0000      -0.715651       -19.4739 
  10   2.0000      -0.666228       -18.1290 
  11   2.0000      -0.605462       -16.4755 
  12   2.0000      -0.585146       -15.9226 
  13   2.0000      -0.567012       -15.4292 
  14   2.0000      -0.539276       -14.6745 
  15   2.0000      -0.506793       -13.7905 
  16   2.0000      -0.468933       -12.7603 
  17   2.0000      -0.413320       -11.2470 
  18   2.0000      -0.315749        -8.5920 
  19   0.0000       0.132471         3.6047 
  20   0.0000       0.234536         6.3820 
  21   0.0000       0.254367         6.9217 
  22   0.0000       0.262765         7.1502 
  23   0.0000       0.291772         7.9395 
  24   0.0000       0.318497         8.6667 
  25   0.0000       0.337597         9.1865 
  26   0.0000       0.345859         9.4113 
  27   0.0000       0.356921         9.7123 
  28   0.0000       0.367456         9.9990 
  29   0.0000       0.426676        11.6104 
*Only the first 10 virtual orbitals were printed.

                    ********************************
                    * MULLIKEN POPULATION ANALYSIS *
                    ********************************

-----------------------
MULLIKEN ATOMIC CHARGES
-----------------------
   0 C :   -0.360080
   1 H :    0.179928
   2 C :   -0.505493
   3 C :   -0.149073
   4 C :   -0.196195
   5 C :   -0.150562
   6 H :    0.162025
   7 H :    0.170677
   8 H :    0.169927
   9 H :    0.159810
  10 H :    0.171784
  11 H :    0.173428
  12 H :    0.173825
Sum of atomic charges:   -0.0000000

--------------------------------
MULLIKEN REDUCED ORBITAL CHARGES
--------------------------------
  0 C s       :     3.265490  s :     3.265490
      pz      :     1.038883  p :     3.094591
      px      :     1.061251
      py      :     0.994457

  1 H s       :     0.820072  s :     0.820072

  2 C s       :     3.366035  s :     3.366035
      pz      :     1.066161  p :     3.139459
      px      :     1.072329
      py      :     1.000968

  3 C s       :     3.209435  s :     3.209435
      pz      :     1.003946  p :     2.939639
      px      :     0.980758
      py      :     0.954935

  4 C s       :     3.192207  s :     3.192207
      pz      :     0.995924  p :     3.003988
      px      :     0.942998
      py      :     1.065066

  5 C s       :     3.193925  s :     3.193925
      pz      :     0.946989  p :     2.956638
      px      :     1.014641
      py      :     0.995007

  6 H s       :     0.837975  s :     0.837975

  7 H s       :     0.829323  s :     0.829323

  8 H s       :     0.830073  s :     0.830073

  9 H s       :     0.840190  s :     0.840190

 10 H s       :     0.828216  s :     0.828216

 11 H s       :     0.826572  s :     0.826572

 12 H s       :     0.826175  s :     0.826175



                     *******************************
                     * LOEWDIN POPULATION ANALYSIS *
                     *******************************

----------------------
LOEWDIN ATOMIC CHARGES
----------------------
   0 C :   -0.244100
   1 H :    0.123174
   2 C :   -0.318364
   3 C :   -0.109265
   4 C :   -0.149019
   5 C :   -0.114325
   6 H :    0.116409
   7 H :    0.117173
   8 H :    0.117148
   9 H :    0.111736
  10 H :    0.115810
  11 H :    0.117101
  12 H :    0.116523

-------------------------------
LOEWDIN REDUCED ORBITAL CHARGES
-------------------------------
  0 C s       :     2.988298  s :     2.988298
      pz      :     1.070175  p :     3.255803
      px      :     1.077851
      py      :     1.107777

  1 H s       :     0.876826  s :     0.876826

  2 C s       :     2.975913  s :     2.975913
      pz      :     1.127685  p :     3.342451
      px      :     1.119948
      py      :     1.094818

  3 C s       :     2.950987  s :     2.950987
      pz      :     1.039689  p :     3.158278
      px      :     1.087782
      py      :     1.030807

  4 C s       :     2.940165  s :     2.940165
      pz      :     1.052561  p :     3.208853
      px      :     1.085625
      py      :     1.070668

  5 C s       :     2.945075  s :     2.945075
      pz      :     1.022110  p :     3.169250
      px      :     1.035946
      py      :     1.111194

  6 H s       :     0.883591  s :     0.883591

  7 H s       :     0.882827  s :     0.882827

  8 H s       :     0.882852  s :     0.882852

  9 H s       :     0.888264  s :     0.888264

 10 H s       :     0.884190  s :     0.884190

 11 H s       :     0.882899  s :     0.882899

 12 H s       :     0.883477  s :     0.883477



                      *****************************
                      * MAYER POPULATION ANALYSIS *
                      *****************************

  NA   - Mulliken gross atomic population
  ZA   - Total nuclear charge
  QA   - Mulliken gross atomic charge
  VA   - Mayer's total valence
  BVA  - Mayer's bonded valence
  FA   - Mayer's free valence

  ATOM       NA         ZA         QA         VA         BVA        FA
  0 C      6.3601     6.0000    -0.3601     3.8477     3.8477    -0.0000
  1 H      0.8201     1.0000     0.1799     0.9314     0.9314     0.0000
  2 C      6.5055     6.0000    -0.5055     3.7721     3.7721    -0.0000
  3 C      6.1491     6.0000    -0.1491     3.7709     3.7709    -0.0000
  4 C      6.1962     6.0000    -0.1962     3.8281     3.8281    -0.0000
  5 C      6.1506     6.0000    -0.1506     3.8083     3.8083    -0.0000
  6 H      0.8380     1.0000     0.1620     0.9440     0.9440    -0.0000
  7 H      0.8293     1.0000     0.1707     0.9396     0.9396    -0.0000
  8 H      0.8301     1.0000     0.1699     0.9229     0.9229    -0.0000
  9 H      0.8402     1.0000     0.1598     0.9316     0.9316    -0.0000
 10 H      0.8282     1.0000     0.1718     0.9389     0.9389    -0.0000
 11 H      0.8266     1.0000     0.1734     0.9389     0.9389     0.0000
 12 H      0.8262     1.0000     0.1738     0.9372     0.9372    -0.0000

  Mayer bond orders larger than 0.100000
B(  0-C ,  5-C ) :   1.8848 B(  0-C ,  6-H ) :   0.9627 B(  0-C ,  7-H ) :   0.9621 
B(  1-H ,  2-C ) :   0.9470 B(  2-C ,  3-C ) :   0.9560 B(  2-C ,  8-H ) :   0.9452 
B(  2-C ,  9-H ) :   0.9590 B(  3-C ,  4-C ) :   1.8888 B(  3-C , 10-H ) :   0.9586 
B(  4-C ,  5-C ) :   1.0418 B(  4-C , 11-H ) :   0.9569 B(  5-C , 12-H ) :   0.9575 


-------
TIMINGS
-------

Total SCF time: 0 days 0 hours 0 min 0 sec 

Total time                  ....       0.642 sec
Sum of individual times     ....       0.600 sec  ( 93.5%)

SCF preparation             ....       0.254 sec  ( 39.6%)
Fock matrix formation       ....       0.291 sec  ( 45.3%)
  Startup                   ....       0.001 sec  (  0.5% of F)
  Coulomb+Exchange Fock     ....       0.309 sec  (106.2% of F)
Diagonalization             ....       0.000 sec  (  0.0%)
Density matrix formation    ....       0.008 sec  (  1.2%)
Total Energy calculation    ....       0.005 sec  (  0.7%)
Population analysis         ....       0.005 sec  (  0.7%)
Orbital Transformation      ....       0.005 sec  (  0.7%)
Orbital Orthonormalization  ....       0.000 sec  (  0.0%)
DIIS solution               ....       0.020 sec  (  3.1%)
SOSCF solution              ....       0.013 sec  (  2.1%)
Finished LeanSCF after   0.6 sec

Maximum memory used throughout the entire LEANSCF-calculation: 6.4 MB

-------------------------   --------------------
FINAL SINGLE POINT ENERGY      -193.879350492863
-------------------------   --------------------



           ************************************************************
           *        Program running with 8 parallel MPI-processes     *
           *              working on a common directory               *
           ************************************************************

------------------------------------------------------------------------------
                              ORCA PROPERTY CALCULATIONS
------------------------------------------------------------------------------

GBWName                                 ... h-shift_091.gbw
Number of atoms                         ...     13
Number of basis functions               ...     61
Max core memory                         ...   1200 MB

Electric properties:
Dipole moment                           ... YES
Quadrupole moment                       ...  NO
Static polarizability (Dipole/Dipole)   ...  NO
Static polarizability (Dipole/Quad.)    ...  NO
Static polarizability (Quad./Quad.)     ...  NO
Static polarizability (Velocity)        ...  NO
Static hyperpolarizability              ...  NO

Atomic electric properties:
Dipole moment                           ...  NO
Quadrupole moment                       ...  NO
Static polarizability                   ...  NO

Choice of electric origin               ... Center of mass
Position of electric origin             ...     1.637993    -1.414105     1.906076

General magnetic properties:
Magnetizability                         ...  NO

EPR properties:
g-Tensor (aka g-matrix)                 ...  NO
Zero-Field splitting spin-orbit         ...  NO
Zero-field splitting spin-spin          ...  NO
Hyperfine couplings                     ...  NO (   0 nuclei)
Quadrupole couplings                    ...  NO (   0 nuclei)
Contact density                         ...  NO (   0 nuclei)

NMR properties:
Chemical shifts                         ...  NO (   0 nuclei)
Spin-rotation constants                 ...  NO (   0 nuclei)
Spin-spin couplings                     ...  NO (   0 nuclei,    0 pairs)

Choice of magnetic origin               ... GIAO
Position of magnetic origin             ...     0.000000     0.000000     0.000000

Properties with geometric perturbations:
SCF Hessian                             ...  NO
IR spectrum                             ...  NO
VCD spectrum                            ...  NO
X-ray spectroscopy properties:
SCF XES/XAS/RIXS spectra                ...  NO

SCF SOC stabilization energy            ...  NO
Diagonal Born-Oppenheimer correction    ...  NO

-------------
DIPOLE MOMENT
-------------

Method             : SCF
Type of density    : Electron Density
Multiplicity       :   1
Irrep              :   0
Energy             :  -193.8793504928627556 Eh
Basis              : AO
                                X                 Y                 Z
Electronic contribution:     -1.546325746      -1.812916643       0.744376207
Nuclear contribution   :      1.652625729       1.839510834      -0.747206598
                        -----------------------------------------
Total Dipole Moment    :      0.106299983       0.026594191      -0.002830391
                        -----------------------------------------
Magnitude (a.u.)       :      0.109612721
Magnitude (Debye)      :      0.278613394



--------------------
Rotational spectrum 
--------------------
 
Rotational constants in cm-1:             0.291027             0.134392             0.095262 
Rotational constants in MHz :          8724.772163          4028.957504          2855.886447 

Dipole components along the rotational axes: 
x,y,z [a.u.] :     0.097234     0.044560     0.023976 
x,y,z [Debye]:     0.247150     0.113262     0.060942 

 

Dipole moment calculation done in   0.0 sec 

Maximum memory used throughout the entire PROP-calculation: 2.2 MB

--------------------------------
SUGGESTED CITATIONS FOR THIS RUN
--------------------------------

Below you find a list of papers that are relevant to this ORCA run
We neither can nor want to force you to cite these papers, but we appreciate if you do
You receive ORCA, which is the product of decades of hard work by many enthusiastic individuals, for free
The only thing we kindly ask in return is that you cite our papers,
We deeply appreciate it, if you show your appreciation for ORCA by not just citing the generic ORCA reference.

Please note that relegating all ORCA citations to the supporting information does *not* help us.
SI sections are not indexed - citations you put there will not count into any citation statistics
But we need these citations in order to attract the funding resources that allow us to do what we are doing

Therefore, if you are a happy ORCA user, please consider citing a few of the papers listed below in the main body of your paper

In addition to the list printed below, the program has created the file h-shift_091.bibtex that contains the list in bibtex format
You can import this file easily into all common literature databanks and citation aid programs


List of essential papers. We consider these as the minimum necessary citations

  1. Neese, F.
     Software update: the ORCA program system, version 6.0
     WIRES Comput. Molec. Sci. 2025 15(1), e70019
     doi.org/10.1002/wcms.7019

List of papers to cite with high priority. The work reported in these papers was absolutely
necessary for this run to complete.
Our perspective: the developers of density functionals and basis sets usually get cited in chemistry papers
Good! But without the algorithms to do something with them, the functionals or basis sets would not do anything.
Hence, in our opinion, the algorithm design and method developments papers are equally worthy of getting cited

  1. Neese, F.
     The SHARK Integral Generation and Digestion System
     J. Comp. Chem. 2022 44(3), 381
     doi.org/10.1002/jcc.26942

List of suggested additional citations. These are papers that are important in the 'surrounding' of 
of this run, or papers that preceded the highly important papers. If you like your results we are grateful for a citation.

  1. Neese, F.
     The ORCA program system
     WIRES Comput. Molec. Sci. 2012 2(1), 73-78
     doi.org/10.1002/wcms.81
  2. Neese, F.
     Software update: the ORCA program system, version 4.0
     WIRES Comput. Molec. Sci. 2018 8(1), 1-6
     doi.org/10.1002/wcms.1327
  3. Neese, F.; Wennmohs, F.; Becker, U.; Riplinger, C.
     The ORCA quantum chemistry program package
     J. Chem. Phys. 2020 152(22), 224108
     doi.org/10.1063/5.0004608
  4. Neese, F.
     Software update: The ORCA program system—Version 5.0
     WIRES Comput. Molec. Sci. 2022 12(1), e1606
     doi.org/10.1002/wcms.1606

List of optional additional citations

  1. Neese, F.
     Approximate second-order SCF convergence for spin unrestricted wavefunctions
     Chem. Phys. Lett. 2000 325(1-3), 93-98
     doi.org/10.1016/s0009-2614(00)00662-x

Timings for individual modules:

Sum of individual times          ...        2.263 sec (=   0.038 min)
Startup calculation              ...        0.663 sec (=   0.011 min)  29.3 %
SCF iterations                   ...        1.216 sec (=   0.020 min)  53.7 %
Property calculations            ...        0.384 sec (=   0.006 min)  17.0 %
                             ****ORCA TERMINATED NORMALLY****
TOTAL RUN TIME: 0 days 0 hours 0 minutes 2 seconds 704 msec
