
                                 *****************
                                 * O   R   C   A *
                                 *****************

                                            #,                                       
                                            ###                                      
                                            ####                                     
                                            #####                                    
                                            ######                                   
                                           ########,                                 
                                     ,,################,,,,,                         
                               ,,#################################,,                 
                          ,,##########################################,,             
                       ,#########################################, ''#####,          
                    ,#############################################,,   '####,        
                  ,##################################################,,,,####,       
                ,###########''''           ''''###############################       
              ,#####''   ,,,,##########,,,,          '''####'''          '####       
            ,##' ,,,,###########################,,,                        '##       
           ' ,,###''''                  '''############,,,                           
         ,,##''                                '''############,,,,        ,,,,,,###''
      ,#''                                            '''#######################'''  
     '                                                          ''''####''''         
             ,#######,   #######,   ,#######,      ##                                
            ,#'     '#,  ##    ##  ,#'     '#,    #''#        ,####,    ,#,          
            ##       ##  ##   ,#'  ##            #'  '#       #'       ,# #          
            ##       ##  #######   ##           ,######,      #####,      #          
            '#,     ,#'  ##    ##  '#,     ,#' ,#      #,     #,   #      #          
             '#######'   ##     ##  '#######'  #'      '#     '####' #    #          



                #########################################################
                #                        -***-                          #
                #          Department of theory and spectroscopy        #
                #                                                       #
                #                      Frank Neese                      #
                #                                                       #
                #     Directorship, Architecture, Infrastructure        #
                #                    SHARK, DRIVERS                     #
                #        Core code/Algorithms in most modules           #
                #                                                       #
                #        Max Planck Institute fuer Kohlenforschung      #
                #                Kaiser Wilhelm Platz 1                 #
                #                 D-45470 Muelheim/Ruhr                 #
                #                      Germany                          #
                #                                                       #
                #                  All rights reserved                  #
                #                        -***-                          #
                #########################################################


                         Program Version 6.1.0  -  RELEASE   -
                                (GIT: $679e74b$)
                          ($2025-06-10 18:02:51 +0200$)


 With contributions from (in alphabetic order):
[Max-Planck-Institut fuer Kohlenforschung]                               
  Daniel Aravena         : Magnetic Suceptibility                        
  Michael Atanasov       : Ab Initio Ligand Field Theory (pilot matlab implementation)
  Alexander A. Auer      : GIAO ZORA, VPT2 properties, NMR spectrum      
  Ute Becker             : All parallelization in ORCA, NUMFREQ, NUMCALC 
  Giovanni Bistoni       : ED, misc. LED, open-shell LED, HFLD           
  Dmytro Bykov           : pre 5.0 version of the SCF Hessian            
  Marcos Casanova-Páez   : Triplet and SCS-CIS(D). UHF-(DLPNO)-IP/EA/STEOM-CCSD. UHF-CVS-IP/STEOM-CCSD   
  Vijay G. Chilkuri      : MRCI spin determinant printing, contributions to CSF-ICE 
  Pauline Colinet        : FMM embedding                                 
  Dipayan Datta          : RHF DLPNO-CCSD density                        
  Achintya Kumar Dutta   : EOM-CC, STEOM-CC                              
  Nicolas Foglia         : Exact transition moments, OPA infrastructure, MCD improvements    
  Dmitry Ganyushin       : Spin-Orbit,Spin-Spin,Magnetic field MRCI      
  Miquel Garcia-Rates    : C-PCM and meta-GGA Hessian, CCSD/C-PCM, Gaussian charge scheme 
  Tiago L. C. Gouveia    : GS-ROHF, GS-ROCIS                             
  Yang Guo               : DLPNO-NEVPT2, F12-NEVPT2, CIM, IAO-localization        
  Andreas Hansen         : Spin unrestricted coupled pair/coupled cluster methods 
  Ingolf Harden          : AUTO-CI MPn and infrastructure                
  Benjamin Helmich-Paris : MC-RPA, TRAH-(SCF,CASSCF), AVAS, COSX integrals, SCF dyn. polar., MC-PDFT, srDFT 
  Lee Huntington         : MR-EOM, pCC                                   
  Robert Izsak           : Overlap fitted RIJCOSX, COSX-SCS-MP3, EOM     
  Riya Kayal             : Wick's Theorem for AUTO-CI, AUTO-CI UHF-CCSDT 
  Emily Kempfer          : AUTO-CI RHF CISDT and CCSDT, approximate NEVPT4
  Christian Kollmar      : KDIIS, OOCD, Brueckner-CCSD(T), CCSD density, CASPT2, CASPT2-K, improved NEVPT2 
  Axel Koslowski         : Symmetry handling                             
  Simone Kossmann        : meta-GGA functionals, TD-DFT gradient, OOMP2, (MP2 Hessian; deprecated post 5.0) 
  Lucas Lang             : DCDCAS, Hyperfine gauge corrections, ICE-SOC+SSC
  Marvin Lechner         : AUTO-CI (C++ implementation), FIC-MRCC        
  Spencer Leger          : CASSCF response                               
  Dagmar Lenk            : GEPOL surface, SMD, ORCA-2-JSON               
  Dimitrios Liakos       : Extrapolation schemes; Compound Job, Property file
  Dimitrios Manganas     : Further ROCIS development; embedding schemes. LFT, Crystal Embedding 
  Dimitrios Pantazis     : SARC Basis sets                               
  Anastasios Papadopoulos: AUTO-CI, single reference methods and gradients 
  Taras Petrenko         : pre 6.0 DFT Hessian and TD-DFT gradient,  ECA, NRVS 
  Petra Pikulova         : Analytic Raman intensities                    
  Peter Pinski           : DLPNO-MP2, DLPNO-MP2 Gradient                 
  Shashank Vittal Rao    : ES-AILFT, MagRelax                            
  Christoph Reimann      : Effective Core Potentials                     
  Marius Retegan         : Local ZFS, SOC                                
  Christoph Riplinger    : Optimizer, TS searches, QM/MM, DLPNO-CCSD(T), (RO)-DLPNO pert. Triples 
  Michael Roemelt        : Original ROCIS implementation, recursive CI coupling coefficients
  Masaaki Saitow         : Open-shell DLPNO-CCSD energy and density      
  Barbara Sandhoefer     : DKH picture change effects                    
  Yorick L. A. Schmerwitz: GMF and freeze-and-release deltaSCF, NEB S-IDPP initial path                    
  Kantharuban Sivalingam : CASSCF convergence/infrastructure, NEVPT2, NEVPT3, NEVPT4(SD), FIC-MRCI and CEPA variants
  Bernardo de Souza      : ESD, SOC TD-DFT                               
  Georgi L. Stoychev     : AutoAux, RI-MP2 NMR, DLPNO-MP2 response, X2C  
  Van Anh Tran           : RI-MP2 g-tensors                              
  Willem Van den Heuvel  : Paramagnetic NMR                              
  Zikuan Wang            : NOTCH, Electric field optimization            
  Frank Wennmohs         : Technical directorship and infrastructure     
  Hang Xu                : AUTO-CI-Response properties                   
                                                                         
[FACCTs GmbH]                                                            
  Markus Bursch, Nicolas Foglia, Miquel Garcia-Rates, Ingolf Harden, Hagen Neugebauer, Anastasios Papadopoulos, 
  Christoph Riplinger, Bernardo de Souza, Georgi L. Stoychev                                                    
                                                                 
  APM, various basis sets, CI-OPT, improved COSX, DLPNO-Multilevel,           
  DOCKER, DRACO, updates on ESD, Fragmentator, GOAT, IRC, LR-CPCM, L-BFGS, MBIS, meta-GGA TD-DFT gradient, ML-optimized integration grids, 
  MM, NACMEs, nearIR, NEB, NEB-TS, NL-DFT gradient (VV10), 2- and 3-layer-ONIOM, interface openCOSMO-RS, QMMM,   
  Crystal-QMMM, RESP, rigid body optimization, SF, symmetry and pop. for TD-DFT, various functionals, SOLVATOR                                   
                                                                         
[Other institutions]                                                     
  V. Asgeirsson          : NEB                                           
  Christoph Bannwarth    : sTDA-DFT, sTD-DFT, PBEh-3c, B97-3c, D3        
  Giovanni Bistoni       : ETS/NOCV, ADLD/ADEX, COVALED                  
  Martin Brehm           : Molecular dynamics                            
  Ronald Cardenas        : ETS/NOCV                                      
  Martina Colucci        : COVALED                                       
  Sebastian Ehlert       : rSCAN, r2SCAN, r2SCAN-3c, D4, dhf basis sets  
  Marvin Friede          : D4 for Fr, Ra, Ac-Lr                          
  Lars Goerigk           : TD-DFT with DH, B97 family of functionals     
  Stefan Grimme          : VdW corrections, initial TS optimization, DFT functionals, gCP, sTDA/sTD-DF 
  Waldemar Hujo          : DFT-NL                                        
  H. Jonsson             : NEB                                           
  Holger Kruse           : gCP                                           
  Marcel Mueller         : wB97X-3c, vDZP basis set                      
  Hagen Neugebauer       : wr2SCAN, Native XTB                           
  Gianluca Regni         : ADLD/ADEX                                     
  Tobias Risthaus        : pre 6.0 range-separated hybrid DFT and stability analysis
  Lukas Wittmann         : regularized MP2, r2SCAN double-hybrids, wr2SCAN        
                                                                         
We gratefully acknowledge several colleagues who have allowed us to      
interface, adapt or use parts of their codes:                            
  Ed Valeev, F. Pavosevic, A. Kumar             : LibInt (2-el integral package), F12 methods 
  Garnet Chan, S. Sharma, J. Yang, R. Olivares  : DMRG                   
  Ulf Ekstrom                                   : XCFun DFT Library      
  Mihaly Kallay                                 : mrcc  (arbitrary order and MRCC methods)
  Frank Weinhold                                : gennbo (NPA and NBO analysis)           
  Simon Mueller                                 : openCOSMO-RS                            
  Christopher J. Cramer and Donald G. Truhlar   : smd solvation model                     
  S Lehtola, MJT Oliveira, MAL Marques          : LibXC Library                           
  Liviu Ungur et al                             : ANISO software                          


 Your calculation uses the libint2 library for the computation of 2-el integrals
 For citations please refer to: http://libint.valeyev.net

 Your ORCA version has been built with support for libXC version: 7.0.0
 For citations please refer to: https://libxc.gitlab.io

 This ORCA versions uses:
   CBLAS   interface :  Fast vector & matrix operations
   LAPACKE interface :  Fast linear algebra routines
   SCALAPACK package :  Parallel linear algebra routines
   Shared memory     :  Shared parallel matrices
   BLAS/LAPACK       :  OpenBLAS 0.3.29  USE64BITINT DYNAMIC_ARCH NO_AFFINITY Zen SINGLE_THREADED
        Core in use  :  Zen
   Copyright (c) 2011-2014, The OpenBLAS Project


  ***********************************
  * Starting time: Sun Apr  5 12:59:40 2026
  * Host name:     QC1
  * Process ID:    2890
  * Working dir.:  /home/user/QC/h-shift/split_2
  ***********************************

NOTE: MaxCore=1200 MB was set to SCF,MP2,MDCI,CIPSI,MRCI,RASCI and CIS
      => If you want to overwrite this, your respective input block should be placed after the MaxCore statement
================================================================================

----- Orbital basis set information -----
Your calculation utilizes the basis: 6-31G
   H-He, Li-Ne : W. J. Hehre, R. Ditchfield and J.A. Pople, J. Chem. Phys. 56, 2257 (1972).
                 Note: He and Ne are unpublished basis sets taken from the Gaussian program.
                 Note: Li and B from J. D. Dill and J. A. Pople, J. Chem. Phys. 62, 2921 (1975).
   Na - Ar     : M. M. Francl, W. J. Pietro, W. J. Hehre, J. S. Binkley, M. S. Gordon, 
                 D. J. DeFrees and J. A. Pople, J. Chem. Phys. 77, 3654 (1982).
   K - Zn      : V. A. Rassolov, J. A. Pople, M. A. Ratner, and T. L. Windus, J. Chem. Phys. 109, 1223 (1998).

================================================================================
                                        WARNINGS
                       Please study these warnings very carefully!
================================================================================


================================================================================
                                       INPUT FILE
================================================================================
NAME = h-shift_005.inp
|  1> ! HF 6-31G
|  2> %maxcore 1200
|  3> %pal nprocs 8 end
|  4> * xyz 0 1
|  5> C   -0.02100400   0.01063300  -0.18879600
|  6> H    0.99413800   0.01948000  -0.56610500
|  7> C    2.59499400   0.00391700   1.55031900
|  8> C    2.06704400  -1.19374800   1.78428600
|  9> C    0.66423700  -1.60829100   1.63146100
| 10> C   -0.23389400  -1.11885300   0.77786100
| 11> H   -0.69816800  -0.05597400  -1.02994100
| 12> H   -0.19402800   0.97033300   0.29168100
| 13> H    2.00968900   0.85332000   1.26262900
| 14> H    3.64964200   0.17252300   1.65139000
| 15> H    2.72688100  -1.97611500   2.12002400
| 16> H    0.36526700  -2.43482700   2.25345100
| 17> H   -1.20902400  -1.57444200   0.76213000
| 18> *
| 19> 
| 20>                          ****END OF INPUT****
================================================================================

                       ****************************
                       * Single Point Calculation *
                       ****************************

---------------------------------
CARTESIAN COORDINATES (ANGSTROEM)
---------------------------------
  C     -0.021004    0.010633   -0.188796
  H      0.994138    0.019480   -0.566105
  C      2.594994    0.003917    1.550319
  C      2.067044   -1.193748    1.784286
  C      0.664237   -1.608291    1.631461
  C     -0.233894   -1.118853    0.777861
  H     -0.698168   -0.055974   -1.029941
  H     -0.194028    0.970333    0.291681
  H      2.009689    0.853320    1.262629
  H      3.649642    0.172523    1.651390
  H      2.726881   -1.976115    2.120024
  H      0.365267   -2.434827    2.253451
  H     -1.209024   -1.574442    0.762130

----------------------------
CARTESIAN COORDINATES (A.U.)
----------------------------
  NO LB      ZA    FRAG     MASS         X           Y           Z
   0 C     6.0000    0    12.011   -0.039692    0.020093   -0.356773
   1 H     1.0000    0     1.008    1.878649    0.036812   -1.069783
   2 C     6.0000    0    12.011    4.903828    0.007402    2.929678
   3 C     6.0000    0    12.011    3.906147   -2.255857    3.371812
   4 C     6.0000    0    12.011    1.255226   -3.039230    3.083014
   5 C     6.0000    0    12.011   -0.441996   -2.114326    1.469944
   6 H     1.0000    0     1.008   -1.319346   -0.105776   -1.946306
   7 H     1.0000    0     1.008   -0.366660    1.833664    0.551197
   8 H     1.0000    0     1.008    3.797762    1.612541    2.386023
   9 H     1.0000    0     1.008    6.896824    0.326021    3.120675
  10 H     1.0000    0     1.008    5.153058   -3.734316    4.006265
  11 H     1.0000    0     1.008    0.690255   -4.601156    4.258405
  12 H     1.0000    0     1.008   -2.284724   -2.975264    1.440217

--------------------------------
INTERNAL COORDINATES (ANGSTROEM)
--------------------------------
 C      0   0   0     0.000000000000     0.00000000     0.00000000
 H      1   0   0     1.083029838487     0.00000000     0.00000000
 C      2   1   0     2.653720536809   106.71085866     0.00000000
 C      3   2   1     1.329613933371    84.61133132    64.27802713
 C      4   3   2     1.470737522035   127.90359565   319.67654572
 C      5   4   3     1.332224383880   127.30433631    29.11941386
 H      1   2   3     1.081902253612   108.44015397   184.05604522
 H      1   2   3     1.087115238650   107.21434259    68.42615316
 H      3   2   1     1.070902859990    56.72828967   288.52922499
 H      3   2   1     1.072812068436   131.85521644   191.89996063
 H      4   3   2     1.077127194858   117.76664606   139.12787049
 H      5   4   3     1.076761988694   114.90835923   205.74851045
 H      6   5   4     1.076423391692   117.68370961   176.84850550

---------------------------
INTERNAL COORDINATES (A.U.)
---------------------------
 C      0   0   0     0.000000000000     0.00000000     0.00000000
 H      1   0   0     2.046629789606     0.00000000     0.00000000
 C      2   1   0     5.014805050531   106.71085866     0.00000000
 C      3   2   1     2.512606197917    84.61133132    64.27802713
 C      4   3   2     2.779291131529   127.90359565   319.67654572
 C      5   4   3     2.517539234466   127.30433631    29.11941386
 H      1   2   3     2.044498962998   108.44015397   184.05604522
 H      1   2   3     2.054350077061   107.21434259    68.42615316
 H      3   2   1     2.023713121413    56.72828967   288.52922499
 H      3   2   1     2.027321002509   131.85521644   191.89996063
 H      4   3   2     2.035475409680   117.76664606   139.12787049
 H      5   4   3     2.034785270048   114.90835923   205.74851045
 H      6   5   4     2.034145414445   117.68370961   176.84850550

---------------------
BASIS SET INFORMATION
---------------------
There are 2 groups of distinct atoms

 Group   1 Type C   : 10s4p contracted to 3s2p pattern {631/31}
 Group   2 Type H   : 4s contracted to 2s pattern {31}

Atom   0C    basis set group =>   1
Atom   1H    basis set group =>   2
Atom   2C    basis set group =>   1
Atom   3C    basis set group =>   1
Atom   4C    basis set group =>   1
Atom   5C    basis set group =>   1
Atom   6H    basis set group =>   2
Atom   7H    basis set group =>   2
Atom   8H    basis set group =>   2
Atom   9H    basis set group =>   2
Atom  10H    basis set group =>   2
Atom  11H    basis set group =>   2
Atom  12H    basis set group =>   2


           ************************************************************
           *        Program running with 8 parallel MPI-processes     *
           *              working on a common directory               *
           ************************************************************
------------------------------------------------------------------------------
                             ORCA STARTUP CALCULATIONS
------------------------------------------------------------------------------
------------------------------------------------------------------------------
                   ___                                                        
                  /   \      - P O W E R E D   B Y -                         
                 /     \                                                     
                 |  |  |   _    _      __       _____    __    __             
                 |  |  |  | |  | |    /  \     |  _  \  |  |  /  |          
                  \  \/   | |  | |   /    \    | | | |  |  | /  /          
                 / \  \   | |__| |  /  /\  \   | |_| |  |  |/  /          
                |  |  |   |  __  | /  /__\  \  |    /   |      \           
                |  |  |   | |  | | |   __   |  |    \   |  |\   \          
                \     /   | |  | | |  |  |  |  | |\  \  |  | \   \       
                 \___/    |_|  |_| |__|  |__|  |_| \__\ |__|  \__/        
                                                                              
                      - O R C A' S   B I G   F R I E N D -                    
                                      &                                       
                       - I N T E G R A L  F E E D E R -                       
                                                                              
 v1 FN, 2020, v2 2021, v3 2022-2024                                           
------------------------------------------------------------------------------


----------------------
SHARK INTEGRAL PACKAGE
----------------------

Number of atoms                             ...     13
Number of basis functions                   ...     61
Number of shells                            ...     41
Maximum angular momentum                    ...      1
Integral batch strategy                     ... SHARK/LIBINT Hybrid
RI-J (if used) integral strategy            ... SPLIT-RIJ (Revised 2003 algorithm where possible)
Printlevel                                  ...      1
Contraction scheme used                     ... SEGMENTED contraction
Prescreening option                         ... SCHWARTZ
   Thresh                                   ... 1.000e-10
   Tcut                                     ... 1.000e-11
   Tpresel                                  ... 1.000e-11 
Coulomb Range Separation                    ... NOT USED
Exchange Range Separation                   ... NOT USED
Multipole approximations                    ... NOT USED
Finite Nucleus Model                        ... NOT USED
CABS basis                                  ... NOT available
Auxiliary Coulomb fitting basis             ... NOT available
Auxiliary J/K fitting basis                 ... NOT available
Auxiliary Correlation fitting basis         ... NOT available
Auxiliary 'external' fitting basis          ... NOT available

Checking pre-screening integrals            ... done (  0.0 sec) Dimension = 41
   => SHARK Basis and OBASIS are compatible. Storing Pre-screening
Shell pair information
Shell pair cut-off parameter TPreSel        ...   1.0e-11
Total number of shell pairs                 ...       861
Shell pairs after pre-screening             ...       846
Total number of primitive shell pairs       ...      5382
Primitive shell pairs kept                  ...      3724
          la=0 lb=0:    481 shell pairs
          la=1 lb=0:    310 shell pairs
          la=1 lb=1:     55 shell pairs

Checking whether 4 symmetric matrices of dimension 61 fit in memory
:Max Core in MB      =   1200.00
 MB in use           =      2.04
 MB left             =   1197.96
 MB needed           =      0.06
 Data fit in memory  = YES
Calculating Nuclear repulsion               ... done (  0.0 sec) ENN=    160.158287219093 Eh

Diagonalization of the overlap matrix:
Smallest eigenvalue                        ... 3.367e-03
Time for diagonalization                   ...    0.001 sec
Threshold for overlap eigenvalues          ... 1.000e-07
Number of eigenvalues below threshold      ... 0
Time for construction of square roots      ...    0.000 sec
Total time needed                          ...    0.002 sec

-------------------
DFT GRID GENERATION
-------------------

General Integration Accuracy     IntAcc      ... 4.388
Radial Grid Type                 RadialGrid  ... OptM3 with GC (2021)
Angular Grid (max. ang.)         AngularGrid ... 4 (Lebedev-302)
Angular grid pruning method      GridPruning ... 4 (adaptive)
Weight generation scheme         WeightScheme... mBecke (2022)
Basis function cutoff            BFCut       ... 1.0000e-10
Integration weight cutoff        WCut        ... 1.0000e-14
Partially contracted basis set               ... off
Rotationally invariant grid construction     ... off
Angular grids for H and He will be reduced by one unit

Total number of grid points                  ...    56081
Total number of batches                      ...      883
Average number of points per batch           ...       63
Average number of grid points per atom       ...     4314
Grids setup in   0.2 sec
Initializing property integral containers    ... done (  0.0 sec)

SHARK setup successfully completed in   0.3 seconds

Maximum memory used throughout the entire STARTUP-calculation: 11.8 MB


           ************************************************************
           *        Program running with 8 parallel MPI-processes     *
           *              working on a common directory               *
           ************************************************************
-------------------------------------------------------------------------------
                                 ORCA GUESS
                   Start orbitals & Density for SCF / CASSCF
-------------------------------------------------------------------------------

------------
SCF SETTINGS
------------
Hamiltonian:
 Ab initio Hamiltonian  Method          .... Hartree-Fock(GTOs)


General Settings:
 Integral files         IntName         .... h-shift_005
 Hartree-Fock type      HFTyp           .... RHF
 Total Charge           Charge          ....    0
 Multiplicity           Mult            ....    1
 Number of Electrons    NEL             ....   38
 Basis Dimension        Dim             ....   61
 Nuclear Repulsion      ENuc            ....    160.1582872191 Eh

Convergence Acceleration:
 AO-DIIS                CNVDIIS         .... on
   Start iteration      DIISMaxIt       ....    12
   Startup error        DIISStart       ....  0.200000
   # of expansion vecs  DIISMaxEq       ....     5
   Bias factor          DIISBfac        ....   1.050
   Max. coefficient     DIISMaxC        ....  10.000
 MO-DIIS                CNVKDIIS        .... off
 Trust-Rad. Augm. Hess. CNVTRAH         .... auto
   Auto Start mean grad. ratio tolernc. ....  1.125000
   Auto Start start iteration           ....    50
   Auto Start num. interpolation iter.  ....    10
   Max. Number of Micro iterations      ....    24
   Max. Number of Macro iterations      .... Maxiter - #DIIS iter
   Number of Davidson start vectors     ....     2
   Converg. threshold    (grad. norm)   ....   5.000e-05
   Grad. Scal. Fac. for Micro threshold ....   0.100
   Minimum threshold for Micro iter.    ....   1.000e-02
   NR start threshold (gradient norm)   ....   1.000e-04
   Initial trust radius                 ....   0.400
   Minimum AH scaling param. (alpha)    ....   1.000
   Maximum AH scaling param. (alpha)    .... 1000.000
   Quad. conv. algorithm                .... NR
   White noise on init. David. guess    .... on
   Maximum white noise                  ....   0.010
   Pseudo random numbers                .... off
   Inactive MOs                         .... canonical
   Orbital update algorithm             .... Taylor
   Preconditioner                       .... Diag
   Full preconditioner red. dimension   ....   250
 SOSCF                 CNVSOSCF           .... on
   Start iteration     SOSCFMaxIt         ....   150
   Startup grad/error  SOSCFStart         ....  0.003300
   Hessian update      SOSCFHessUp        .... L-BFGS
   Autom. constraints  SOSCFAutoConstrain .... off
 Level Shifting         CNVShift        .... on
   Level shift para.    LevelShift      ....    0.2500
   Turn off err/grad.   ShiftErr        ....    0.0010
 Zerner damping         CNVZerner       .... off
 Static damping         CNVDamp         .... on
   Fraction old density DampFac         ....    0.7000
   Max. Damping (<1)    DampMax         ....    0.9800
   Min. Damping (>=0)   DampMin         ....    0.0000
   Turn off err/grad.   DampErr         ....    0.1000

SCF Procedure:
 Maximum # iterations   MaxIter         ....   125
 SCF integral mode      SCFMode         .... Direct
   Integral package                     .... SHARK and LIBINT hybrid scheme
 Reset frequency        DirectResetFreq ....    20
 Integral Threshold     Thresh          ....  1.000e-10 Eh
 Primitive CutOff       TCut            ....  1.000e-11 Eh

Convergence Tolerance:
 Convergence Check Mode ConvCheckMode   .... Total+1el-Energy
 Convergence forced     ConvForced      .... 0
 Energy Change          TolE            ....  1.000e-06 Eh
 1-El. energy change                    ....  1.000e-03 Eh
 Orbital Gradient       TolG            ....  5.000e-05
 Orbital Rotation angle TolX            ....  5.000e-05
 DIIS Error             TolErr          ....  1.000e-06

------------------------------
INITIAL GUESS: MODEL POTENTIAL
------------------------------
Loading Hartree-Fock densities                     ... done
Calculating cut-offs                               ... done
Initializing the effective Hamiltonian             ... done
Setting up the integral package (SHARK)            ... done
Starting the Coulomb interaction                   ... done (   0.0 sec)
Making the grid                                    ... done (   0.1 sec)
Mapping shells                                     ... done
Starting the XC term evaluation                    ... done (   0.0 sec)
Transforming the Hamiltonian                       ... done (   0.0 sec)
Diagonalizing the Hamiltonian                      ... done (   0.0 sec)
Back transforming the eigenvectors                 ... done (   0.0 sec)
Now organizing SCF variables                       ... done
                      ------------------
                      INITIAL GUESS DONE (   0.1 sec)
                      ------------------
             **** ENERGY FILE WAS UPDATED (h-shift_005.en.tmp) ****
Finished Guess after   0.4 sec
Maximum memory used throughout the entire GUESS-calculation: 4.2 MB


           ************************************************************
           *        Program running with 8 parallel MPI-processes     *
           *              working on a common directory               *
           ************************************************************

-------------------------------------------------------------------------------------------
                                      ORCA LEAN-SCF
                              memory conserving SCF solver
-------------------------------------------------------------------------------------------

----------------------------------------D-I-I-S--------------------------------------------
Iteration    Energy (Eh)           Delta-E    RMSDP     MaxDP     DIISErr   Damp  Time(sec)
-------------------------------------------------------------------------------------------
               ***  Starting incremental Fock matrix formation  ***
    1    -193.6474705214731102     0.00e+00  1.57e-02  5.37e-02  1.90e-01  0.700   0.0
    2    -193.7285633814702237    -8.11e-02  1.25e-02  4.08e-02  1.25e-01  0.700   0.0
                               ***Turning on AO-DIIS***
    3    -193.7787240218102056    -5.02e-02  7.71e-03  2.05e-02  7.46e-02  0.700   0.0
    4    -193.8104255472920272    -3.17e-02  1.83e-02  4.36e-02  5.05e-02  0.000   0.0
                              *** Initializing SOSCF ***
---------------------------------------S-O-S-C-F--------------------------------------
Iteration    Energy (Eh)           Delta-E    RMSDP     MaxDP     MaxGrad    Time(sec)
--------------------------------------------------------------------------------------
    5    -193.8790024908128657    -6.86e-02  1.69e-03  2.83e-03  2.81e-03     0.0
               *** Restarting incremental Fock matrix formation ***
    6    -193.8791227056884168    -1.20e-04  8.60e-04  1.82e-03  1.34e-03     0.0
    7    -193.8791575795220865    -3.49e-05  5.31e-04  1.18e-03  5.40e-04     0.0
    8    -193.8791641506204542    -6.57e-06  6.95e-05  1.86e-04  1.33e-04     0.0
    9    -193.8791643607412993    -2.10e-07  3.14e-05  7.79e-05  3.56e-05     0.0
                 **** Energy Check signals convergence ****

               *****************************************************
               *                     SUCCESS                       *
               *           SCF CONVERGED AFTER   9 CYCLES          *
               *****************************************************

             **** ENERGY FILE WAS UPDATED (h-shift_005.en.tmp) ****

----------------
TOTAL SCF ENERGY
----------------

Total Energy       :       -193.87916441558616 Eh           -5275.72028 eV

Components:
Nuclear Repulsion  :        160.15828721909321 Eh            4358.12856 eV
Electronic Energy  :       -354.03745163467937 Eh           -9633.84883 eV
One Electron Energy:       -577.27919750825151 Eh          -15708.56557 eV
Two Electron Energy:        223.24174587357214 Eh            6074.71674 eV

Virial components:
Potential Energy   :       -388.03341196312351 Eh          -10558.92594 eV
Kinetic Energy     :        194.15424754753732 Eh            5283.20567 eV
Virial Ratio       :          1.99858317221783

---------------
SCF CONVERGENCE
---------------

  Last Energy change         ...    2.1012e-07  Tolerance :   1.0000e-06
  Last MAX-Density change    ...    7.7874e-05  Tolerance :   1.0000e-05
  Last RMS-Density change    ...    3.1435e-05  Tolerance :   1.0000e-06
  Last DIIS Error            ...    2.8133e-03  Tolerance :   1.0000e-06
  Last Orbital Gradient      ...    3.5621e-05  Tolerance :   5.0000e-05
  Last Orbital Rotation      ...    3.5153e-05  Tolerance :   5.0000e-05


----------------
ORBITAL ENERGIES
----------------

  NO   OCC          E(Eh)            E(eV) 
   0   2.0000     -11.236098      -305.7498 
   1   2.0000     -11.235266      -305.7271 
   2   2.0000     -11.227464      -305.5148 
   3   2.0000     -11.221957      -305.3650 
   4   2.0000     -11.216185      -305.2079 
   5   2.0000      -1.098945       -29.9038 
   6   2.0000      -1.022227       -27.8162 
   7   2.0000      -0.940941       -25.6043 
   8   2.0000      -0.814837       -22.1729 
   9   2.0000      -0.715863       -19.4796 
  10   2.0000      -0.666404       -18.1338 
  11   2.0000      -0.605101       -16.4656 
  12   2.0000      -0.585067       -15.9205 
  13   2.0000      -0.567142       -15.4327 
  14   2.0000      -0.539739       -14.6870 
  15   2.0000      -0.506626       -13.7860 
  16   2.0000      -0.468861       -12.7583 
  17   2.0000      -0.413538       -11.2529 
  18   2.0000      -0.315592        -8.5877 
  19   0.0000       0.132240         3.5984 
  20   0.0000       0.234510         6.3813 
  21   0.0000       0.254203         6.9172 
  22   0.0000       0.263045         7.1578 
  23   0.0000       0.291724         7.9382 
  24   0.0000       0.318836         8.6760 
  25   0.0000       0.337841         9.1931 
  26   0.0000       0.346206         9.4207 
  27   0.0000       0.357356         9.7241 
  28   0.0000       0.367356         9.9963 
  29   0.0000       0.427039        11.6203 
*Only the first 10 virtual orbitals were printed.

                    ********************************
                    * MULLIKEN POPULATION ANALYSIS *
                    ********************************

-----------------------
MULLIKEN ATOMIC CHARGES
-----------------------
   0 C :   -0.506044
   1 H :    0.180042
   2 C :   -0.360472
   3 C :   -0.150622
   4 C :   -0.195964
   5 C :   -0.149061
   6 H :    0.159851
   7 H :    0.170161
   8 H :    0.170794
   9 H :    0.161992
  10 H :    0.173637
  11 H :    0.173539
  12 H :    0.172147
Sum of atomic charges:    0.0000000

--------------------------------
MULLIKEN REDUCED ORBITAL CHARGES
--------------------------------
  0 C s       :     3.366136  s :     3.366136
      pz      :     1.028413  p :     3.139908
      px      :     1.111352
      py      :     1.000143

  1 H s       :     0.819958  s :     0.819958

  2 C s       :     3.265477  s :     3.265477
      pz      :     1.019700  p :     3.094995
      px      :     1.080650
      py      :     0.994645

  3 C s       :     3.193896  s :     3.193896
      pz      :     0.999297  p :     2.956726
      px      :     0.962737
      py      :     0.994692

  4 C s       :     3.192138  s :     3.192138
      pz      :     1.018013  p :     3.003826
      px      :     0.920870
      py      :     1.064943

  5 C s       :     3.209543  s :     3.209543
      pz      :     0.945721  p :     2.939518
      px      :     1.038156
      py      :     0.955641

  6 H s       :     0.840149  s :     0.840149

  7 H s       :     0.829839  s :     0.829839

  8 H s       :     0.829206  s :     0.829206

  9 H s       :     0.838008  s :     0.838008

 10 H s       :     0.826363  s :     0.826363

 11 H s       :     0.826461  s :     0.826461

 12 H s       :     0.827853  s :     0.827853



                     *******************************
                     * LOEWDIN POPULATION ANALYSIS *
                     *******************************

----------------------
LOEWDIN ATOMIC CHARGES
----------------------
   0 C :   -0.318477
   1 H :    0.123287
   2 C :   -0.244507
   3 C :   -0.114245
   4 C :   -0.149132
   5 C :   -0.108956
   6 H :    0.111695
   7 H :    0.117231
   8 H :    0.117206
   9 H :    0.116387
  10 H :    0.116490
  11 H :    0.117099
  12 H :    0.115923

-------------------------------
LOEWDIN REDUCED ORBITAL CHARGES
-------------------------------
  0 C s       :     2.975936  s :     2.975936
      pz      :     1.104017  p :     3.342541
      px      :     1.144108
      py      :     1.094416

  1 H s       :     0.876713  s :     0.876713

  2 C s       :     2.988232  s :     2.988232
      pz      :     1.035211  p :     3.256275
      px      :     1.113589
      py      :     1.107475

  3 C s       :     2.945019  s :     2.945019
      pz      :     0.987956  p :     3.169225
      px      :     1.070732
      py      :     1.110537

  4 C s       :     2.940140  s :     2.940140
      pz      :     1.073246  p :     3.208992
      px      :     1.064916
      py      :     1.070830

  5 C s       :     2.951045  s :     2.951045
      pz      :     1.032022  p :     3.157911
      px      :     1.094605
      py      :     1.031284

  6 H s       :     0.888305  s :     0.888305

  7 H s       :     0.882769  s :     0.882769

  8 H s       :     0.882794  s :     0.882794

  9 H s       :     0.883613  s :     0.883613

 10 H s       :     0.883510  s :     0.883510

 11 H s       :     0.882901  s :     0.882901

 12 H s       :     0.884077  s :     0.884077



                      *****************************
                      * MAYER POPULATION ANALYSIS *
                      *****************************

  NA   - Mulliken gross atomic population
  ZA   - Total nuclear charge
  QA   - Mulliken gross atomic charge
  VA   - Mayer's total valence
  BVA  - Mayer's bonded valence
  FA   - Mayer's free valence

  ATOM       NA         ZA         QA         VA         BVA        FA
  0 C      6.5060     6.0000    -0.5060     3.7721     3.7721     0.0000
  1 H      0.8200     1.0000     0.1800     0.9312     0.9312    -0.0000
  2 C      6.3605     6.0000    -0.3605     3.8474     3.8474     0.0000
  3 C      6.1506     6.0000    -0.1506     3.8087     3.8087     0.0000
  4 C      6.1960     6.0000    -0.1960     3.8278     3.8278     0.0000
  5 C      6.1491     6.0000    -0.1491     3.7705     3.7705     0.0000
  6 H      0.8401     1.0000     0.1599     0.9317     0.9317     0.0000
  7 H      0.8298     1.0000     0.1702     0.9227     0.9227     0.0000
  8 H      0.8292     1.0000     0.1708     0.9396     0.9396    -0.0000
  9 H      0.8380     1.0000     0.1620     0.9440     0.9440     0.0000
 10 H      0.8264     1.0000     0.1736     0.9372     0.9372     0.0000
 11 H      0.8265     1.0000     0.1735     0.9389     0.9389    -0.0000
 12 H      0.8279     1.0000     0.1721     0.9389     0.9389     0.0000

  Mayer bond orders larger than 0.100000
B(  0-C ,  1-H ) :   0.9466 B(  0-C ,  5-C ) :   0.9564 B(  0-C ,  6-H ) :   0.9591 
B(  0-C ,  7-H ) :   0.9451 B(  2-C ,  3-C ) :   1.8840 B(  2-C ,  8-H ) :   0.9619 
B(  2-C ,  9-H ) :   0.9627 B(  3-C ,  4-C ) :   1.0427 B(  3-C , 10-H ) :   0.9576 
B(  4-C ,  5-C ) :   1.8877 B(  4-C , 11-H ) :   0.9569 B(  5-C , 12-H ) :   0.9585 


-------
TIMINGS
-------

Total SCF time: 0 days 0 hours 0 min 0 sec 

Total time                  ....       0.610 sec
Sum of individual times     ....       0.567 sec  ( 93.0%)

SCF preparation             ....       0.253 sec  ( 41.4%)
Fock matrix formation       ....       0.260 sec  ( 42.6%)
  Startup                   ....       0.001 sec  (  0.5% of F)
  Coulomb+Exchange Fock     ....       0.278 sec  (107.1% of F)
Diagonalization             ....       0.000 sec  (  0.0%)
Density matrix formation    ....       0.008 sec  (  1.3%)
Total Energy calculation    ....       0.005 sec  (  0.8%)
Population analysis         ....       0.005 sec  (  0.8%)
Orbital Transformation      ....       0.004 sec  (  0.7%)
Orbital Orthonormalization  ....       0.000 sec  (  0.0%)
DIIS solution               ....       0.020 sec  (  3.3%)
SOSCF solution              ....       0.013 sec  (  2.2%)
Finished LeanSCF after   0.6 sec

Maximum memory used throughout the entire LEANSCF-calculation: 6.4 MB

-------------------------   --------------------
FINAL SINGLE POINT ENERGY      -193.879164415586
-------------------------   --------------------



           ************************************************************
           *        Program running with 8 parallel MPI-processes     *
           *              working on a common directory               *
           ************************************************************

------------------------------------------------------------------------------
                              ORCA PROPERTY CALCULATIONS
------------------------------------------------------------------------------

GBWName                                 ... h-shift_005.gbw
Number of atoms                         ...     13
Number of basis functions               ...     61
Max core memory                         ...   1200 MB

Electric properties:
Dipole moment                           ... YES
Quadrupole moment                       ...  NO
Static polarizability (Dipole/Dipole)   ...  NO
Static polarizability (Dipole/Quad.)    ...  NO
Static polarizability (Quad./Quad.)     ...  NO
Static polarizability (Velocity)        ...  NO
Static hyperpolarizability              ...  NO

Atomic electric properties:
Dipole moment                           ...  NO
Quadrupole moment                       ...  NO
Static polarizability                   ...  NO

Choice of electric origin               ... Center of mass
Position of electric origin             ...     1.903565    -1.414180     2.039611

General magnetic properties:
Magnetizability                         ...  NO

EPR properties:
g-Tensor (aka g-matrix)                 ...  NO
Zero-Field splitting spin-orbit         ...  NO
Zero-field splitting spin-spin          ...  NO
Hyperfine couplings                     ...  NO (   0 nuclei)
Quadrupole couplings                    ...  NO (   0 nuclei)
Contact density                         ...  NO (   0 nuclei)

NMR properties:
Chemical shifts                         ...  NO (   0 nuclei)
Spin-rotation constants                 ...  NO (   0 nuclei)
Spin-spin couplings                     ...  NO (   0 nuclei,    0 pairs)

Choice of magnetic origin               ... GIAO
Position of magnetic origin             ...     0.000000     0.000000     0.000000

Properties with geometric perturbations:
SCF Hessian                             ...  NO
IR spectrum                             ...  NO
VCD spectrum                            ...  NO
X-ray spectroscopy properties:
SCF XES/XAS/RIXS spectra                ...  NO

SCF SOC stabilization energy            ...  NO
Diagonal Born-Oppenheimer correction    ...  NO

-------------
DIPOLE MOMENT
-------------

Method             : SCF
Type of density    : Electron Density
Multiplicity       :   1
Irrep              :   0
Energy             :  -193.8791644155861604 Eh
Basis              : AO
                                X                 Y                 Z
Electronic contribution:      0.326256969      -1.814448350       1.683463538
Nuclear contribution   :     -0.388583327       1.839869967      -1.772464635
                        -----------------------------------------
Total Dipole Moment    :     -0.062326358       0.025421617      -0.089001097
                        -----------------------------------------
Magnitude (a.u.)       :      0.111588659
Magnitude (Debye)      :      0.283635830



--------------------
Rotational spectrum 
--------------------
 
Rotational constants in cm-1:             0.290528             0.134920             0.095379 
Rotational constants in MHz :          8709.798891          4044.813449          2859.401321 

Dipole components along the rotational axes: 
x,y,z [a.u.] :     0.098772     0.044835    -0.026191 
x,y,z [Debye]:     0.251058     0.113961    -0.066573 

 

Dipole moment calculation done in   0.0 sec 

Maximum memory used throughout the entire PROP-calculation: 2.2 MB

--------------------------------
SUGGESTED CITATIONS FOR THIS RUN
--------------------------------

Below you find a list of papers that are relevant to this ORCA run
We neither can nor want to force you to cite these papers, but we appreciate if you do
You receive ORCA, which is the product of decades of hard work by many enthusiastic individuals, for free
The only thing we kindly ask in return is that you cite our papers,
We deeply appreciate it, if you show your appreciation for ORCA by not just citing the generic ORCA reference.

Please note that relegating all ORCA citations to the supporting information does *not* help us.
SI sections are not indexed - citations you put there will not count into any citation statistics
But we need these citations in order to attract the funding resources that allow us to do what we are doing

Therefore, if you are a happy ORCA user, please consider citing a few of the papers listed below in the main body of your paper

In addition to the list printed below, the program has created the file h-shift_005.bibtex that contains the list in bibtex format
You can import this file easily into all common literature databanks and citation aid programs


List of essential papers. We consider these as the minimum necessary citations

  1. Neese, F.
     Software update: the ORCA program system, version 6.0
     WIRES Comput. Molec. Sci. 2025 15(1), e70019
     doi.org/10.1002/wcms.7019

List of papers to cite with high priority. The work reported in these papers was absolutely
necessary for this run to complete.
Our perspective: the developers of density functionals and basis sets usually get cited in chemistry papers
Good! But without the algorithms to do something with them, the functionals or basis sets would not do anything.
Hence, in our opinion, the algorithm design and method developments papers are equally worthy of getting cited

  1. Neese, F.
     The SHARK Integral Generation and Digestion System
     J. Comp. Chem. 2022 44(3), 381
     doi.org/10.1002/jcc.26942

List of suggested additional citations. These are papers that are important in the 'surrounding' of 
of this run, or papers that preceded the highly important papers. If you like your results we are grateful for a citation.

  1. Neese, F.
     The ORCA program system
     WIRES Comput. Molec. Sci. 2012 2(1), 73-78
     doi.org/10.1002/wcms.81
  2. Neese, F.
     Software update: the ORCA program system, version 4.0
     WIRES Comput. Molec. Sci. 2018 8(1), 1-6
     doi.org/10.1002/wcms.1327
  3. Neese, F.; Wennmohs, F.; Becker, U.; Riplinger, C.
     The ORCA quantum chemistry program package
     J. Chem. Phys. 2020 152(22), 224108
     doi.org/10.1063/5.0004608
  4. Neese, F.
     Software update: The ORCA program system—Version 5.0
     WIRES Comput. Molec. Sci. 2022 12(1), e1606
     doi.org/10.1002/wcms.1606

List of optional additional citations

  1. Neese, F.
     Approximate second-order SCF convergence for spin unrestricted wavefunctions
     Chem. Phys. Lett. 2000 325(1-3), 93-98
     doi.org/10.1016/s0009-2614(00)00662-x

Timings for individual modules:

Sum of individual times          ...        2.191 sec (=   0.037 min)
Startup calculation              ...        0.611 sec (=   0.010 min)  27.9 %
SCF iterations                   ...        1.199 sec (=   0.020 min)  54.7 %
Property calculations            ...        0.381 sec (=   0.006 min)  17.4 %
                             ****ORCA TERMINATED NORMALLY****
TOTAL RUN TIME: 0 days 0 hours 0 minutes 2 seconds 668 msec
