
                                 *****************
                                 * O   R   C   A *
                                 *****************

                                            #,                                       
                                            ###                                      
                                            ####                                     
                                            #####                                    
                                            ######                                   
                                           ########,                                 
                                     ,,################,,,,,                         
                               ,,#################################,,                 
                          ,,##########################################,,             
                       ,#########################################, ''#####,          
                    ,#############################################,,   '####,        
                  ,##################################################,,,,####,       
                ,###########''''           ''''###############################       
              ,#####''   ,,,,##########,,,,          '''####'''          '####       
            ,##' ,,,,###########################,,,                        '##       
           ' ,,###''''                  '''############,,,                           
         ,,##''                                '''############,,,,        ,,,,,,###''
      ,#''                                            '''#######################'''  
     '                                                          ''''####''''         
             ,#######,   #######,   ,#######,      ##                                
            ,#'     '#,  ##    ##  ,#'     '#,    #''#        ,####,    ,#,          
            ##       ##  ##   ,#'  ##            #'  '#       #'       ,# #          
            ##       ##  #######   ##           ,######,      #####,      #          
            '#,     ,#'  ##    ##  '#,     ,#' ,#      #,     #,   #      #          
             '#######'   ##     ##  '#######'  #'      '#     '####' #    #          



                #########################################################
                #                        -***-                          #
                #          Department of theory and spectroscopy        #
                #                                                       #
                #                      Frank Neese                      #
                #                                                       #
                #     Directorship, Architecture, Infrastructure        #
                #                    SHARK, DRIVERS                     #
                #        Core code/Algorithms in most modules           #
                #                                                       #
                #        Max Planck Institute fuer Kohlenforschung      #
                #                Kaiser Wilhelm Platz 1                 #
                #                 D-45470 Muelheim/Ruhr                 #
                #                      Germany                          #
                #                                                       #
                #                  All rights reserved                  #
                #                        -***-                          #
                #########################################################


                         Program Version 6.1.0  -  RELEASE   -
                                (GIT: $679e74b$)
                          ($2025-06-10 18:02:51 +0200$)


 With contributions from (in alphabetic order):
[Max-Planck-Institut fuer Kohlenforschung]                               
  Daniel Aravena         : Magnetic Suceptibility                        
  Michael Atanasov       : Ab Initio Ligand Field Theory (pilot matlab implementation)
  Alexander A. Auer      : GIAO ZORA, VPT2 properties, NMR spectrum      
  Ute Becker             : All parallelization in ORCA, NUMFREQ, NUMCALC 
  Giovanni Bistoni       : ED, misc. LED, open-shell LED, HFLD           
  Dmytro Bykov           : pre 5.0 version of the SCF Hessian            
  Marcos Casanova-Páez   : Triplet and SCS-CIS(D). UHF-(DLPNO)-IP/EA/STEOM-CCSD. UHF-CVS-IP/STEOM-CCSD   
  Vijay G. Chilkuri      : MRCI spin determinant printing, contributions to CSF-ICE 
  Pauline Colinet        : FMM embedding                                 
  Dipayan Datta          : RHF DLPNO-CCSD density                        
  Achintya Kumar Dutta   : EOM-CC, STEOM-CC                              
  Nicolas Foglia         : Exact transition moments, OPA infrastructure, MCD improvements    
  Dmitry Ganyushin       : Spin-Orbit,Spin-Spin,Magnetic field MRCI      
  Miquel Garcia-Rates    : C-PCM and meta-GGA Hessian, CCSD/C-PCM, Gaussian charge scheme 
  Tiago L. C. Gouveia    : GS-ROHF, GS-ROCIS                             
  Yang Guo               : DLPNO-NEVPT2, F12-NEVPT2, CIM, IAO-localization        
  Andreas Hansen         : Spin unrestricted coupled pair/coupled cluster methods 
  Ingolf Harden          : AUTO-CI MPn and infrastructure                
  Benjamin Helmich-Paris : MC-RPA, TRAH-(SCF,CASSCF), AVAS, COSX integrals, SCF dyn. polar., MC-PDFT, srDFT 
  Lee Huntington         : MR-EOM, pCC                                   
  Robert Izsak           : Overlap fitted RIJCOSX, COSX-SCS-MP3, EOM     
  Riya Kayal             : Wick's Theorem for AUTO-CI, AUTO-CI UHF-CCSDT 
  Emily Kempfer          : AUTO-CI RHF CISDT and CCSDT, approximate NEVPT4
  Christian Kollmar      : KDIIS, OOCD, Brueckner-CCSD(T), CCSD density, CASPT2, CASPT2-K, improved NEVPT2 
  Axel Koslowski         : Symmetry handling                             
  Simone Kossmann        : meta-GGA functionals, TD-DFT gradient, OOMP2, (MP2 Hessian; deprecated post 5.0) 
  Lucas Lang             : DCDCAS, Hyperfine gauge corrections, ICE-SOC+SSC
  Marvin Lechner         : AUTO-CI (C++ implementation), FIC-MRCC        
  Spencer Leger          : CASSCF response                               
  Dagmar Lenk            : GEPOL surface, SMD, ORCA-2-JSON               
  Dimitrios Liakos       : Extrapolation schemes; Compound Job, Property file
  Dimitrios Manganas     : Further ROCIS development; embedding schemes. LFT, Crystal Embedding 
  Dimitrios Pantazis     : SARC Basis sets                               
  Anastasios Papadopoulos: AUTO-CI, single reference methods and gradients 
  Taras Petrenko         : pre 6.0 DFT Hessian and TD-DFT gradient,  ECA, NRVS 
  Petra Pikulova         : Analytic Raman intensities                    
  Peter Pinski           : DLPNO-MP2, DLPNO-MP2 Gradient                 
  Shashank Vittal Rao    : ES-AILFT, MagRelax                            
  Christoph Reimann      : Effective Core Potentials                     
  Marius Retegan         : Local ZFS, SOC                                
  Christoph Riplinger    : Optimizer, TS searches, QM/MM, DLPNO-CCSD(T), (RO)-DLPNO pert. Triples 
  Michael Roemelt        : Original ROCIS implementation, recursive CI coupling coefficients
  Masaaki Saitow         : Open-shell DLPNO-CCSD energy and density      
  Barbara Sandhoefer     : DKH picture change effects                    
  Yorick L. A. Schmerwitz: GMF and freeze-and-release deltaSCF, NEB S-IDPP initial path                    
  Kantharuban Sivalingam : CASSCF convergence/infrastructure, NEVPT2, NEVPT3, NEVPT4(SD), FIC-MRCI and CEPA variants
  Bernardo de Souza      : ESD, SOC TD-DFT                               
  Georgi L. Stoychev     : AutoAux, RI-MP2 NMR, DLPNO-MP2 response, X2C  
  Van Anh Tran           : RI-MP2 g-tensors                              
  Willem Van den Heuvel  : Paramagnetic NMR                              
  Zikuan Wang            : NOTCH, Electric field optimization            
  Frank Wennmohs         : Technical directorship and infrastructure     
  Hang Xu                : AUTO-CI-Response properties                   
                                                                         
[FACCTs GmbH]                                                            
  Markus Bursch, Nicolas Foglia, Miquel Garcia-Rates, Ingolf Harden, Hagen Neugebauer, Anastasios Papadopoulos, 
  Christoph Riplinger, Bernardo de Souza, Georgi L. Stoychev                                                    
                                                                 
  APM, various basis sets, CI-OPT, improved COSX, DLPNO-Multilevel,           
  DOCKER, DRACO, updates on ESD, Fragmentator, GOAT, IRC, LR-CPCM, L-BFGS, MBIS, meta-GGA TD-DFT gradient, ML-optimized integration grids, 
  MM, NACMEs, nearIR, NEB, NEB-TS, NL-DFT gradient (VV10), 2- and 3-layer-ONIOM, interface openCOSMO-RS, QMMM,   
  Crystal-QMMM, RESP, rigid body optimization, SF, symmetry and pop. for TD-DFT, various functionals, SOLVATOR                                   
                                                                         
[Other institutions]                                                     
  V. Asgeirsson          : NEB                                           
  Christoph Bannwarth    : sTDA-DFT, sTD-DFT, PBEh-3c, B97-3c, D3        
  Giovanni Bistoni       : ETS/NOCV, ADLD/ADEX, COVALED                  
  Martin Brehm           : Molecular dynamics                            
  Ronald Cardenas        : ETS/NOCV                                      
  Martina Colucci        : COVALED                                       
  Sebastian Ehlert       : rSCAN, r2SCAN, r2SCAN-3c, D4, dhf basis sets  
  Marvin Friede          : D4 for Fr, Ra, Ac-Lr                          
  Lars Goerigk           : TD-DFT with DH, B97 family of functionals     
  Stefan Grimme          : VdW corrections, initial TS optimization, DFT functionals, gCP, sTDA/sTD-DF 
  Waldemar Hujo          : DFT-NL                                        
  H. Jonsson             : NEB                                           
  Holger Kruse           : gCP                                           
  Marcel Mueller         : wB97X-3c, vDZP basis set                      
  Hagen Neugebauer       : wr2SCAN, Native XTB                           
  Gianluca Regni         : ADLD/ADEX                                     
  Tobias Risthaus        : pre 6.0 range-separated hybrid DFT and stability analysis
  Lukas Wittmann         : regularized MP2, r2SCAN double-hybrids, wr2SCAN        
                                                                         
We gratefully acknowledge several colleagues who have allowed us to      
interface, adapt or use parts of their codes:                            
  Ed Valeev, F. Pavosevic, A. Kumar             : LibInt (2-el integral package), F12 methods 
  Garnet Chan, S. Sharma, J. Yang, R. Olivares  : DMRG                   
  Ulf Ekstrom                                   : XCFun DFT Library      
  Mihaly Kallay                                 : mrcc  (arbitrary order and MRCC methods)
  Frank Weinhold                                : gennbo (NPA and NBO analysis)           
  Simon Mueller                                 : openCOSMO-RS                            
  Christopher J. Cramer and Donald G. Truhlar   : smd solvation model                     
  S Lehtola, MJT Oliveira, MAL Marques          : LibXC Library                           
  Liviu Ungur et al                             : ANISO software                          


 Your calculation uses the libint2 library for the computation of 2-el integrals
 For citations please refer to: http://libint.valeyev.net

 Your ORCA version has been built with support for libXC version: 7.0.0
 For citations please refer to: https://libxc.gitlab.io

 This ORCA versions uses:
   CBLAS   interface :  Fast vector & matrix operations
   LAPACKE interface :  Fast linear algebra routines
   SCALAPACK package :  Parallel linear algebra routines
   Shared memory     :  Shared parallel matrices
   BLAS/LAPACK       :  OpenBLAS 0.3.29  USE64BITINT DYNAMIC_ARCH NO_AFFINITY Zen SINGLE_THREADED
        Core in use  :  Zen
   Copyright (c) 2011-2014, The OpenBLAS Project


  ***********************************
  * Starting time: Sun Apr  5 13:02:43 2026
  * Host name:     QC1
  * Process ID:    12601
  * Working dir.:  /home/user/QC/h-shift/split_2
  ***********************************

NOTE: MaxCore=1200 MB was set to SCF,MP2,MDCI,CIPSI,MRCI,RASCI and CIS
      => If you want to overwrite this, your respective input block should be placed after the MaxCore statement
================================================================================

----- Orbital basis set information -----
Your calculation utilizes the basis: 6-31G
   H-He, Li-Ne : W. J. Hehre, R. Ditchfield and J.A. Pople, J. Chem. Phys. 56, 2257 (1972).
                 Note: He and Ne are unpublished basis sets taken from the Gaussian program.
                 Note: Li and B from J. D. Dill and J. A. Pople, J. Chem. Phys. 62, 2921 (1975).
   Na - Ar     : M. M. Francl, W. J. Pietro, W. J. Hehre, J. S. Binkley, M. S. Gordon, 
                 D. J. DeFrees and J. A. Pople, J. Chem. Phys. 77, 3654 (1982).
   K - Zn      : V. A. Rassolov, J. A. Pople, M. A. Ratner, and T. L. Windus, J. Chem. Phys. 109, 1223 (1998).

================================================================================
                                        WARNINGS
                       Please study these warnings very carefully!
================================================================================


================================================================================
                                       INPUT FILE
================================================================================
NAME = h-shift_070.inp
|  1> ! HF 6-31G
|  2> %maxcore 1200
|  3> %pal nprocs 8 end
|  4> * xyz 0 1
|  5> C   -0.39948900   0.01498400   0.03199700
|  6> H    2.07160500   0.00798100   0.03639000
|  7> C    2.43731300   0.01069000   1.05572000
|  8> C    1.86034700  -1.14375800   1.82153100
|  9> C    0.61828800  -1.60362400   1.67433900
| 10> C   -0.32656800  -1.16907700   0.63464900
| 11> H   -1.01494600   0.15617000  -0.83470000
| 12> H    0.15013100   0.87443900   0.35538600
| 13> H    2.12695900   0.95390900   1.49766600
| 14> H    3.51699100  -0.00410300   1.03420800
| 15> H    2.51461400  -1.64053700   2.51707300
| 16> H    0.30399100  -2.43880100   2.27724400
| 17> H   -0.97729000  -1.95014600   0.28136600
| 18> *
| 19> 
| 20>                          ****END OF INPUT****
================================================================================

                       ****************************
                       * Single Point Calculation *
                       ****************************

---------------------------------
CARTESIAN COORDINATES (ANGSTROEM)
---------------------------------
  C     -0.399489    0.014984    0.031997
  H      2.071605    0.007981    0.036390
  C      2.437313    0.010690    1.055720
  C      1.860347   -1.143758    1.821531
  C      0.618288   -1.603624    1.674339
  C     -0.326568   -1.169077    0.634649
  H     -1.014946    0.156170   -0.834700
  H      0.150131    0.874439    0.355386
  H      2.126959    0.953909    1.497666
  H      3.516991   -0.004103    1.034208
  H      2.514614   -1.640537    2.517073
  H      0.303991   -2.438801    2.277244
  H     -0.977290   -1.950146    0.281366

----------------------------
CARTESIAN COORDINATES (A.U.)
----------------------------
  NO LB      ZA    FRAG     MASS         X           Y           Z
   0 C     6.0000    0    12.011   -0.754925    0.028316    0.060466
   1 H     1.0000    0     1.008    3.914766    0.015082    0.068767
   2 C     6.0000    0    12.011    4.605854    0.020201    1.995022
   3 C     6.0000    0    12.011    3.515546   -2.161389    3.442195
   4 C     6.0000    0    12.011    1.168395   -3.030410    3.164042
   5 C     6.0000    0    12.011   -0.617124   -2.209235    1.199313
   6 H     1.0000    0     1.008   -1.917970    0.295119   -1.577354
   7 H     1.0000    0     1.008    0.283706    1.652450    0.671582
   8 H     1.0000    0     1.008    4.019370    1.802627    2.830179
   9 H     1.0000    0     1.008    6.646150   -0.007754    1.954370
  10 H     1.0000    0     1.008    4.751932   -3.100166    4.756579
  11 H     1.0000    0     1.008    0.574460   -4.608666    4.303368
  12 H     1.0000    0     1.008   -1.846810   -3.685242    0.531705

--------------------------------
INTERNAL COORDINATES (ANGSTROEM)
--------------------------------
 C      0   0   0     0.000000000000     0.00000000     0.00000000
 H      1   0   0     2.471107827938     0.00000000     0.00000000
 C      2   1   0     1.082951212588   109.83789010     0.00000000
 C      3   2   1     1.500701981601   110.39965675    55.47751600
 C      4   3   2     1.332611264511   124.57189159   323.12375113
 C      1   2   3     1.330604132365    86.66753901   296.76297476
 H      1   2   3     1.072326673759   125.15232594   170.63807596
 H      1   2   3     1.070198807113    59.21442726    69.26029404
 H      3   2   1     1.086875316765   106.76670280   295.31913733
 H      3   2   1     1.079993603072   108.59123548   179.34807371
 H      4   3   2     1.076398325851   116.81363054   141.54730260
 H      5   4   3     1.076939025462   118.54143878   180.12115535
 H      6   1   2     1.076251263476   117.64540841   224.55913461

---------------------------
INTERNAL COORDINATES (A.U.)
---------------------------
 C      0   0   0     0.000000000000     0.00000000     0.00000000
 H      1   0   0     4.669717042191     0.00000000     0.00000000
 C      2   1   0     2.046481208189   109.83789010     0.00000000
 C      3   2   1     2.835915753859   110.39965675    55.47751600
 C      4   3   2     2.518270332904   124.57189159   323.12375113
 C      1   2   3     2.514477402833    86.66753901   296.76297476
 H      1   2   3     2.026403739502   125.15232594   170.63807596
 H      1   2   3     2.022382654293    59.21442726    69.26029404
 H      3   2   1     2.053896690405   106.76670280   295.31913733
 H      3   2   1     2.040892136193   108.59123548   179.34807371
 H      4   3   2     2.034098046869   116.81363054   141.54730260
 H      5   4   3     2.035119821055   118.54143878   180.12115535
 H      6   1   2     2.033820139257   117.64540841   224.55913461

---------------------
BASIS SET INFORMATION
---------------------
There are 2 groups of distinct atoms

 Group   1 Type C   : 10s4p contracted to 3s2p pattern {631/31}
 Group   2 Type H   : 4s contracted to 2s pattern {31}

Atom   0C    basis set group =>   1
Atom   1H    basis set group =>   2
Atom   2C    basis set group =>   1
Atom   3C    basis set group =>   1
Atom   4C    basis set group =>   1
Atom   5C    basis set group =>   1
Atom   6H    basis set group =>   2
Atom   7H    basis set group =>   2
Atom   8H    basis set group =>   2
Atom   9H    basis set group =>   2
Atom  10H    basis set group =>   2
Atom  11H    basis set group =>   2
Atom  12H    basis set group =>   2


           ************************************************************
           *        Program running with 8 parallel MPI-processes     *
           *              working on a common directory               *
           ************************************************************
------------------------------------------------------------------------------
                             ORCA STARTUP CALCULATIONS
------------------------------------------------------------------------------
------------------------------------------------------------------------------
                   ___                                                        
                  /   \      - P O W E R E D   B Y -                         
                 /     \                                                     
                 |  |  |   _    _      __       _____    __    __             
                 |  |  |  | |  | |    /  \     |  _  \  |  |  /  |          
                  \  \/   | |  | |   /    \    | | | |  |  | /  /          
                 / \  \   | |__| |  /  /\  \   | |_| |  |  |/  /          
                |  |  |   |  __  | /  /__\  \  |    /   |      \           
                |  |  |   | |  | | |   __   |  |    \   |  |\   \          
                \     /   | |  | | |  |  |  |  | |\  \  |  | \   \       
                 \___/    |_|  |_| |__|  |__|  |_| \__\ |__|  \__/        
                                                                              
                      - O R C A' S   B I G   F R I E N D -                    
                                      &                                       
                       - I N T E G R A L  F E E D E R -                       
                                                                              
 v1 FN, 2020, v2 2021, v3 2022-2024                                           
------------------------------------------------------------------------------


----------------------
SHARK INTEGRAL PACKAGE
----------------------

Number of atoms                             ...     13
Number of basis functions                   ...     61
Number of shells                            ...     41
Maximum angular momentum                    ...      1
Integral batch strategy                     ... SHARK/LIBINT Hybrid
RI-J (if used) integral strategy            ... SPLIT-RIJ (Revised 2003 algorithm where possible)
Printlevel                                  ...      1
Contraction scheme used                     ... SEGMENTED contraction
Prescreening option                         ... SCHWARTZ
   Thresh                                   ... 1.000e-10
   Tcut                                     ... 1.000e-11
   Tpresel                                  ... 1.000e-11 
Coulomb Range Separation                    ... NOT USED
Exchange Range Separation                   ... NOT USED
Multipole approximations                    ... NOT USED
Finite Nucleus Model                        ... NOT USED
CABS basis                                  ... NOT available
Auxiliary Coulomb fitting basis             ... NOT available
Auxiliary J/K fitting basis                 ... NOT available
Auxiliary Correlation fitting basis         ... NOT available
Auxiliary 'external' fitting basis          ... NOT available

Checking pre-screening integrals            ... done (  0.0 sec) Dimension = 41
   => SHARK Basis and OBASIS are compatible. Storing Pre-screening
Shell pair information
Shell pair cut-off parameter TPreSel        ...   1.0e-11
Total number of shell pairs                 ...       861
Shell pairs after pre-screening             ...       846
Total number of primitive shell pairs       ...      5382
Primitive shell pairs kept                  ...      3734
          la=0 lb=0:    481 shell pairs
          la=1 lb=0:    310 shell pairs
          la=1 lb=1:     55 shell pairs

Checking whether 4 symmetric matrices of dimension 61 fit in memory
:Max Core in MB      =   1200.00
 MB in use           =      2.04
 MB left             =   1197.96
 MB needed           =      0.06
 Data fit in memory  = YES
Calculating Nuclear repulsion               ... done (  0.0 sec) ENN=    161.203828614202 Eh

Diagonalization of the overlap matrix:
Smallest eigenvalue                        ... 3.384e-03
Time for diagonalization                   ...    0.000 sec
Threshold for overlap eigenvalues          ... 1.000e-07
Number of eigenvalues below threshold      ... 0
Time for construction of square roots      ...    0.000 sec
Total time needed                          ...    0.001 sec

-------------------
DFT GRID GENERATION
-------------------

General Integration Accuracy     IntAcc      ... 4.388
Radial Grid Type                 RadialGrid  ... OptM3 with GC (2021)
Angular Grid (max. ang.)         AngularGrid ... 4 (Lebedev-302)
Angular grid pruning method      GridPruning ... 4 (adaptive)
Weight generation scheme         WeightScheme... mBecke (2022)
Basis function cutoff            BFCut       ... 1.0000e-10
Integration weight cutoff        WCut        ... 1.0000e-14
Partially contracted basis set               ... off
Rotationally invariant grid construction     ... off
Angular grids for H and He will be reduced by one unit

Total number of grid points                  ...    56048
Total number of batches                      ...      883
Average number of points per batch           ...       63
Average number of grid points per atom       ...     4311
Grids setup in   0.2 sec
Initializing property integral containers    ... done (  0.0 sec)

SHARK setup successfully completed in   0.3 seconds

Maximum memory used throughout the entire STARTUP-calculation: 11.8 MB


           ************************************************************
           *        Program running with 8 parallel MPI-processes     *
           *              working on a common directory               *
           ************************************************************
-------------------------------------------------------------------------------
                                 ORCA GUESS
                   Start orbitals & Density for SCF / CASSCF
-------------------------------------------------------------------------------

------------
SCF SETTINGS
------------
Hamiltonian:
 Ab initio Hamiltonian  Method          .... Hartree-Fock(GTOs)


General Settings:
 Integral files         IntName         .... h-shift_070
 Hartree-Fock type      HFTyp           .... RHF
 Total Charge           Charge          ....    0
 Multiplicity           Mult            ....    1
 Number of Electrons    NEL             ....   38
 Basis Dimension        Dim             ....   61
 Nuclear Repulsion      ENuc            ....    161.2038286142 Eh

Convergence Acceleration:
 AO-DIIS                CNVDIIS         .... on
   Start iteration      DIISMaxIt       ....    12
   Startup error        DIISStart       ....  0.200000
   # of expansion vecs  DIISMaxEq       ....     5
   Bias factor          DIISBfac        ....   1.050
   Max. coefficient     DIISMaxC        ....  10.000
 MO-DIIS                CNVKDIIS        .... off
 Trust-Rad. Augm. Hess. CNVTRAH         .... auto
   Auto Start mean grad. ratio tolernc. ....  1.125000
   Auto Start start iteration           ....    50
   Auto Start num. interpolation iter.  ....    10
   Max. Number of Micro iterations      ....    24
   Max. Number of Macro iterations      .... Maxiter - #DIIS iter
   Number of Davidson start vectors     ....     2
   Converg. threshold    (grad. norm)   ....   5.000e-05
   Grad. Scal. Fac. for Micro threshold ....   0.100
   Minimum threshold for Micro iter.    ....   1.000e-02
   NR start threshold (gradient norm)   ....   1.000e-04
   Initial trust radius                 ....   0.400
   Minimum AH scaling param. (alpha)    ....   1.000
   Maximum AH scaling param. (alpha)    .... 1000.000
   Quad. conv. algorithm                .... NR
   White noise on init. David. guess    .... on
   Maximum white noise                  ....   0.010
   Pseudo random numbers                .... off
   Inactive MOs                         .... canonical
   Orbital update algorithm             .... Taylor
   Preconditioner                       .... Diag
   Full preconditioner red. dimension   ....   250
 SOSCF                 CNVSOSCF           .... on
   Start iteration     SOSCFMaxIt         ....   150
   Startup grad/error  SOSCFStart         ....  0.003300
   Hessian update      SOSCFHessUp        .... L-BFGS
   Autom. constraints  SOSCFAutoConstrain .... off
 Level Shifting         CNVShift        .... on
   Level shift para.    LevelShift      ....    0.2500
   Turn off err/grad.   ShiftErr        ....    0.0010
 Zerner damping         CNVZerner       .... off
 Static damping         CNVDamp         .... on
   Fraction old density DampFac         ....    0.7000
   Max. Damping (<1)    DampMax         ....    0.9800
   Min. Damping (>=0)   DampMin         ....    0.0000
   Turn off err/grad.   DampErr         ....    0.1000

SCF Procedure:
 Maximum # iterations   MaxIter         ....   125
 SCF integral mode      SCFMode         .... Direct
   Integral package                     .... SHARK and LIBINT hybrid scheme
 Reset frequency        DirectResetFreq ....    20
 Integral Threshold     Thresh          ....  1.000e-10 Eh
 Primitive CutOff       TCut            ....  1.000e-11 Eh

Convergence Tolerance:
 Convergence Check Mode ConvCheckMode   .... Total+1el-Energy
 Convergence forced     ConvForced      .... 0
 Energy Change          TolE            ....  1.000e-06 Eh
 1-El. energy change                    ....  1.000e-03 Eh
 Orbital Gradient       TolG            ....  5.000e-05
 Orbital Rotation angle TolX            ....  5.000e-05
 DIIS Error             TolErr          ....  1.000e-06

------------------------------
INITIAL GUESS: MODEL POTENTIAL
------------------------------
Loading Hartree-Fock densities                     ... done
Calculating cut-offs                               ... done
Initializing the effective Hamiltonian             ... done
Setting up the integral package (SHARK)            ... done
Starting the Coulomb interaction                   ... done (   0.0 sec)
Making the grid                                    ... done (   0.1 sec)
Mapping shells                                     ... done
Starting the XC term evaluation                    ... done (   0.0 sec)
Transforming the Hamiltonian                       ... done (   0.0 sec)
Diagonalizing the Hamiltonian                      ... done (   0.0 sec)
Back transforming the eigenvectors                 ... done (   0.0 sec)
Now organizing SCF variables                       ... done
                      ------------------
                      INITIAL GUESS DONE (   0.1 sec)
                      ------------------
             **** ENERGY FILE WAS UPDATED (h-shift_070.en.tmp) ****
Finished Guess after   0.3 sec
Maximum memory used throughout the entire GUESS-calculation: 4.2 MB


           ************************************************************
           *        Program running with 8 parallel MPI-processes     *
           *              working on a common directory               *
           ************************************************************

-------------------------------------------------------------------------------------------
                                      ORCA LEAN-SCF
                              memory conserving SCF solver
-------------------------------------------------------------------------------------------

----------------------------------------D-I-I-S--------------------------------------------
Iteration    Energy (Eh)           Delta-E    RMSDP     MaxDP     DIISErr   Damp  Time(sec)
-------------------------------------------------------------------------------------------
               ***  Starting incremental Fock matrix formation  ***
    1    -193.6438122238129438     0.00e+00  1.57e-02  5.26e-02  1.83e-01  0.700   0.0
    2    -193.7247565635592252    -8.09e-02  1.25e-02  3.99e-02  1.20e-01  0.700   0.0
                               ***Turning on AO-DIIS***
    3    -193.7747875614412294    -5.00e-02  7.69e-03  2.01e-02  7.20e-02  0.700   0.0
    4    -193.8063995815598162    -3.16e-02  1.83e-02  4.39e-02  4.89e-02  0.000   0.0
                              *** Initializing SOSCF ***
---------------------------------------S-O-S-C-F--------------------------------------
Iteration    Energy (Eh)           Delta-E    RMSDP     MaxDP     MaxGrad    Time(sec)
--------------------------------------------------------------------------------------
    5    -193.8747836729204153    -6.84e-02  1.70e-03  2.75e-03  2.18e-03     0.0
               *** Restarting incremental Fock matrix formation ***
    6    -193.8749048394398358    -1.21e-04  8.74e-04  1.46e-03  1.35e-03     0.0
    7    -193.8749407730213932    -3.59e-05  5.48e-04  1.12e-03  5.58e-04     0.0
    8    -193.8749478153161760    -7.04e-06  7.25e-05  2.15e-04  1.35e-04     0.0
    9    -193.8749480361222197    -2.21e-07  3.26e-05  9.77e-05  2.83e-05     0.0
                 **** Energy Check signals convergence ****

               *****************************************************
               *                     SUCCESS                       *
               *           SCF CONVERGED AFTER   9 CYCLES          *
               *****************************************************

             **** ENERGY FILE WAS UPDATED (h-shift_070.en.tmp) ****

----------------
TOTAL SCF ENERGY
----------------

Total Energy       :       -193.87494809368096 Eh           -5275.60554 eV

Components:
Nuclear Repulsion  :        161.20382861420237 Eh            4386.57919 eV
Electronic Energy  :       -355.07877670788332 Eh           -9662.18473 eV
One Electron Energy:       -579.36437008357098 Eh          -15765.30600 eV
Two Electron Energy:        224.28559337568765 Eh            6103.12127 eV

Virial components:
Potential Energy   :       -388.05221615171502 Eh          -10559.43763 eV
Kinetic Energy     :        194.17726805803403 Eh            5283.83209 eV
Virial Ratio       :          1.99844307231543

---------------
SCF CONVERGENCE
---------------

  Last Energy change         ...    2.2081e-07  Tolerance :   1.0000e-06
  Last MAX-Density change    ...    9.7722e-05  Tolerance :   1.0000e-05
  Last RMS-Density change    ...    3.2618e-05  Tolerance :   1.0000e-06
  Last DIIS Error            ...    2.1768e-03  Tolerance :   1.0000e-06
  Last Orbital Gradient      ...    2.8296e-05  Tolerance :   5.0000e-05
  Last Orbital Rotation      ...    3.1186e-05  Tolerance :   5.0000e-05


----------------
ORBITAL ENERGIES
----------------

  NO   OCC          E(Eh)            E(eV) 
   0   2.0000     -11.235971      -305.7463 
   1   2.0000     -11.235773      -305.7409 
   2   2.0000     -11.227555      -305.5173 
   3   2.0000     -11.221116      -305.3421 
   4   2.0000     -11.214397      -305.1593 
   5   2.0000      -1.101534       -29.9743 
   6   2.0000      -1.020333       -27.7647 
   7   2.0000      -0.941407       -25.6170 
   8   2.0000      -0.813229       -22.1291 
   9   2.0000      -0.718244       -19.5444 
  10   2.0000      -0.667891       -18.1742 
  11   2.0000      -0.602551       -16.3963 
  12   2.0000      -0.584648       -15.9091 
  13   2.0000      -0.567512       -15.4428 
  14   2.0000      -0.542386       -14.7591 
  15   2.0000      -0.507467       -13.8089 
  16   2.0000      -0.469158       -12.7665 
  17   2.0000      -0.409954       -11.1554 
  18   2.0000      -0.315467        -8.5843 
  19   0.0000       0.133177         3.6239 
  20   0.0000       0.230538         6.2733 
  21   0.0000       0.252261         6.8644 
  22   0.0000       0.267218         7.2714 
  23   0.0000       0.291651         7.9362 
  24   0.0000       0.321555         8.7500 
  25   0.0000       0.336029         9.1438 
  26   0.0000       0.347771         9.4633 
  27   0.0000       0.360683         9.8147 
  28   0.0000       0.368516        10.0278 
  29   0.0000       0.430716        11.7204 
*Only the first 10 virtual orbitals were printed.

                    ********************************
                    * MULLIKEN POPULATION ANALYSIS *
                    ********************************

-----------------------
MULLIKEN ATOMIC CHARGES
-----------------------
   0 C :   -0.364192
   1 H :    0.183177
   2 C :   -0.511583
   3 C :   -0.147351
   4 C :   -0.197254
   5 C :   -0.152329
   6 H :    0.161827
   7 H :    0.172719
   8 H :    0.171197
   9 H :    0.158922
  10 H :    0.175925
  11 H :    0.175859
  12 H :    0.173084
Sum of atomic charges:    0.0000000

--------------------------------
MULLIKEN REDUCED ORBITAL CHARGES
--------------------------------
  0 C s       :     3.267376  s :     3.267376
      pz      :     1.046379  p :     3.096816
      px      :     1.053254
      py      :     0.997183

  1 H s       :     0.816823  s :     0.816823

  2 C s       :     3.366854  s :     3.366854
      pz      :     1.063189  p :     3.144728
      px      :     1.086013
      py      :     0.995527

  3 C s       :     3.211111  s :     3.211111
      pz      :     0.989721  p :     2.936240
      px      :     0.983813
      py      :     0.962706

  4 C s       :     3.194840  s :     3.194840
      pz      :     1.003354  p :     3.002414
      px      :     0.935224
      py      :     1.063836

  5 C s       :     3.195215  s :     3.195215
      pz      :     0.938342  p :     2.957114
      px      :     1.022895
      py      :     0.995876

  6 H s       :     0.838173  s :     0.838173

  7 H s       :     0.827281  s :     0.827281

  8 H s       :     0.828803  s :     0.828803

  9 H s       :     0.841078  s :     0.841078

 10 H s       :     0.824075  s :     0.824075

 11 H s       :     0.824141  s :     0.824141

 12 H s       :     0.826916  s :     0.826916



                     *******************************
                     * LOEWDIN POPULATION ANALYSIS *
                     *******************************

----------------------
LOEWDIN ATOMIC CHARGES
----------------------
   0 C :   -0.248083
   1 H :    0.125887
   2 C :   -0.320095
   3 C :   -0.106205
   4 C :   -0.150076
   5 C :   -0.113887
   6 H :    0.116100
   7 H :    0.117846
   8 H :    0.117128
   9 H :    0.110415
  10 H :    0.116944
  11 H :    0.117401
  12 H :    0.116625

-------------------------------
LOEWDIN REDUCED ORBITAL CHARGES
-------------------------------
  0 C s       :     2.988476  s :     2.988476
      pz      :     1.080734  p :     3.259607
      px      :     1.071887
      py      :     1.106987

  1 H s       :     0.874113  s :     0.874113

  2 C s       :     2.976327  s :     2.976327
      pz      :     1.127709  p :     3.343767
      px      :     1.124236
      py      :     1.091823

  3 C s       :     2.952124  s :     2.952124
      pz      :     1.027243  p :     3.154081
      px      :     1.093096
      py      :     1.033741

  4 C s       :     2.941026  s :     2.941026
      pz      :     1.053786  p :     3.209050
      px      :     1.084770
      py      :     1.070494

  5 C s       :     2.944994  s :     2.944994
      pz      :     1.026109  p :     3.168893
      px      :     1.033403
      py      :     1.109380

  6 H s       :     0.883900  s :     0.883900

  7 H s       :     0.882154  s :     0.882154

  8 H s       :     0.882872  s :     0.882872

  9 H s       :     0.889585  s :     0.889585

 10 H s       :     0.883056  s :     0.883056

 11 H s       :     0.882599  s :     0.882599

 12 H s       :     0.883375  s :     0.883375



                      *****************************
                      * MAYER POPULATION ANALYSIS *
                      *****************************

  NA   - Mulliken gross atomic population
  ZA   - Total nuclear charge
  QA   - Mulliken gross atomic charge
  VA   - Mayer's total valence
  BVA  - Mayer's bonded valence
  FA   - Mayer's free valence

  ATOM       NA         ZA         QA         VA         BVA        FA
  0 C      6.3642     6.0000    -0.3642     3.8439     3.8439     0.0000
  1 H      0.8168     1.0000     0.1832     0.9297     0.9297     0.0000
  2 C      6.5116     6.0000    -0.5116     3.7711     3.7711     0.0000
  3 C      6.1474     6.0000    -0.1474     3.7641     3.7641     0.0000
  4 C      6.1973     6.0000    -0.1973     3.8216     3.8216     0.0000
  5 C      6.1523     6.0000    -0.1523     3.8079     3.8079     0.0000
  6 H      0.8382     1.0000     0.1618     0.9437     0.9437     0.0000
  7 H      0.8273     1.0000     0.1727     0.9384     0.9384     0.0000
  8 H      0.8288     1.0000     0.1712     0.9219     0.9219     0.0000
  9 H      0.8411     1.0000     0.1589     0.9330     0.9330     0.0000
 10 H      0.8241     1.0000     0.1759     0.9386     0.9386     0.0000
 11 H      0.8241     1.0000     0.1759     0.9386     0.9386     0.0000
 12 H      0.8269     1.0000     0.1731     0.9371     0.9371     0.0000

  Mayer bond orders larger than 0.100000
B(  0-C ,  5-C ) :   1.8761 B(  0-C ,  6-H ) :   0.9627 B(  0-C ,  7-H ) :   0.9613 
B(  1-H ,  2-C ) :   0.9404 B(  2-C ,  3-C ) :   0.9603 B(  2-C ,  8-H ) :   0.9453 
B(  2-C ,  9-H ) :   0.9600 B(  3-C ,  4-C ) :   1.8775 B(  3-C , 10-H ) :   0.9571 
B(  4-C ,  5-C ) :   1.0485 B(  4-C , 11-H ) :   0.9563 B(  5-C , 12-H ) :   0.9576 


-------
TIMINGS
-------

Total SCF time: 0 days 0 hours 0 min 0 sec 

Total time                  ....       0.669 sec
Sum of individual times     ....       0.624 sec  ( 93.2%)

SCF preparation             ....       0.255 sec  ( 38.1%)
Fock matrix formation       ....       0.315 sec  ( 47.0%)
  Startup                   ....       0.001 sec  (  0.4% of F)
  Coulomb+Exchange Fock     ....       0.336 sec  (106.8% of F)
Diagonalization             ....       0.000 sec  (  0.0%)
Density matrix formation    ....       0.008 sec  (  1.2%)
Total Energy calculation    ....       0.004 sec  (  0.7%)
Population analysis         ....       0.004 sec  (  0.7%)
Orbital Transformation      ....       0.005 sec  (  0.7%)
Orbital Orthonormalization  ....       0.000 sec  (  0.0%)
DIIS solution               ....       0.020 sec  (  2.9%)
SOSCF solution              ....       0.013 sec  (  2.0%)
Finished LeanSCF after   0.7 sec

Maximum memory used throughout the entire LEANSCF-calculation: 6.4 MB

-------------------------   --------------------
FINAL SINGLE POINT ENERGY      -193.874948093681
-------------------------   --------------------



           ************************************************************
           *        Program running with 8 parallel MPI-processes     *
           *              working on a common directory               *
           ************************************************************

------------------------------------------------------------------------------
                              ORCA PROPERTY CALCULATIONS
------------------------------------------------------------------------------

GBWName                                 ... h-shift_070.gbw
Number of atoms                         ...     13
Number of basis functions               ...     61
Max core memory                         ...   1200 MB

Electric properties:
Dipole moment                           ... YES
Quadrupole moment                       ...  NO
Static polarizability (Dipole/Dipole)   ...  NO
Static polarizability (Dipole/Quad.)    ...  NO
Static polarizability (Quad./Quad.)     ...  NO
Static polarizability (Velocity)        ...  NO
Static hyperpolarizability              ...  NO

Atomic electric properties:
Dipole moment                           ...  NO
Quadrupole moment                       ...  NO
Static polarizability                   ...  NO

Choice of electric origin               ... Center of mass
Position of electric origin             ...     1.639147    -1.409427     1.939083

General magnetic properties:
Magnetizability                         ...  NO

EPR properties:
g-Tensor (aka g-matrix)                 ...  NO
Zero-Field splitting spin-orbit         ...  NO
Zero-field splitting spin-spin          ...  NO
Hyperfine couplings                     ...  NO (   0 nuclei)
Quadrupole couplings                    ...  NO (   0 nuclei)
Contact density                         ...  NO (   0 nuclei)

NMR properties:
Chemical shifts                         ...  NO (   0 nuclei)
Spin-rotation constants                 ...  NO (   0 nuclei)
Spin-spin couplings                     ...  NO (   0 nuclei,    0 pairs)

Choice of magnetic origin               ... GIAO
Position of magnetic origin             ...     0.000000     0.000000     0.000000

Properties with geometric perturbations:
SCF Hessian                             ...  NO
IR spectrum                             ...  NO
VCD spectrum                            ...  NO
X-ray spectroscopy properties:
SCF XES/XAS/RIXS spectra                ...  NO

SCF SOC stabilization energy            ...  NO
Diagonal Born-Oppenheimer correction    ...  NO

-------------
DIPOLE MOMENT
-------------

Method             : SCF
Type of density    : Electron Density
Multiplicity       :   1
Irrep              :   0
Energy             :  -193.8749480936809562 Eh
Basis              : AO
                                X                 Y                 Z
Electronic contribution:     -1.507588837      -1.807300093       0.939264343
Nuclear contribution   :      1.644492550       1.806556127      -0.979753529
                        -----------------------------------------
Total Dipole Moment    :      0.136903713      -0.000743965      -0.040489185
                        -----------------------------------------
Magnitude (a.u.)       :      0.142767484
Magnitude (Debye)      :      0.362886104



--------------------
Rotational spectrum 
--------------------
 
Rotational constants in cm-1:             0.283610             0.142681             0.098248 
Rotational constants in MHz :          8502.405544          4277.480338          2945.402549 

Dipole components along the rotational axes: 
x,y,z [a.u.] :    -0.108564     0.051343    -0.077203 
x,y,z [Debye]:    -0.275947     0.130504    -0.196235 

 

Dipole moment calculation done in   0.0 sec 

Maximum memory used throughout the entire PROP-calculation: 2.2 MB

--------------------------------
SUGGESTED CITATIONS FOR THIS RUN
--------------------------------

Below you find a list of papers that are relevant to this ORCA run
We neither can nor want to force you to cite these papers, but we appreciate if you do
You receive ORCA, which is the product of decades of hard work by many enthusiastic individuals, for free
The only thing we kindly ask in return is that you cite our papers,
We deeply appreciate it, if you show your appreciation for ORCA by not just citing the generic ORCA reference.

Please note that relegating all ORCA citations to the supporting information does *not* help us.
SI sections are not indexed - citations you put there will not count into any citation statistics
But we need these citations in order to attract the funding resources that allow us to do what we are doing

Therefore, if you are a happy ORCA user, please consider citing a few of the papers listed below in the main body of your paper

In addition to the list printed below, the program has created the file h-shift_070.bibtex that contains the list in bibtex format
You can import this file easily into all common literature databanks and citation aid programs


List of essential papers. We consider these as the minimum necessary citations

  1. Neese, F.
     Software update: the ORCA program system, version 6.0
     WIRES Comput. Molec. Sci. 2025 15(1), e70019
     doi.org/10.1002/wcms.7019

List of papers to cite with high priority. The work reported in these papers was absolutely
necessary for this run to complete.
Our perspective: the developers of density functionals and basis sets usually get cited in chemistry papers
Good! But without the algorithms to do something with them, the functionals or basis sets would not do anything.
Hence, in our opinion, the algorithm design and method developments papers are equally worthy of getting cited

  1. Neese, F.
     The SHARK Integral Generation and Digestion System
     J. Comp. Chem. 2022 44(3), 381
     doi.org/10.1002/jcc.26942

List of suggested additional citations. These are papers that are important in the 'surrounding' of 
of this run, or papers that preceded the highly important papers. If you like your results we are grateful for a citation.

  1. Neese, F.
     The ORCA program system
     WIRES Comput. Molec. Sci. 2012 2(1), 73-78
     doi.org/10.1002/wcms.81
  2. Neese, F.
     Software update: the ORCA program system, version 4.0
     WIRES Comput. Molec. Sci. 2018 8(1), 1-6
     doi.org/10.1002/wcms.1327
  3. Neese, F.; Wennmohs, F.; Becker, U.; Riplinger, C.
     The ORCA quantum chemistry program package
     J. Chem. Phys. 2020 152(22), 224108
     doi.org/10.1063/5.0004608
  4. Neese, F.
     Software update: The ORCA program system—Version 5.0
     WIRES Comput. Molec. Sci. 2022 12(1), e1606
     doi.org/10.1002/wcms.1606

List of optional additional citations

  1. Neese, F.
     Approximate second-order SCF convergence for spin unrestricted wavefunctions
     Chem. Phys. Lett. 2000 325(1-3), 93-98
     doi.org/10.1016/s0009-2614(00)00662-x

Timings for individual modules:

Sum of individual times          ...        2.327 sec (=   0.039 min)
Startup calculation              ...        0.696 sec (=   0.012 min)  29.9 %
SCF iterations                   ...        1.244 sec (=   0.021 min)  53.4 %
Property calculations            ...        0.388 sec (=   0.006 min)  16.7 %
                             ****ORCA TERMINATED NORMALLY****
TOTAL RUN TIME: 0 days 0 hours 0 minutes 2 seconds 811 msec
