[Molden Format]
[Title]
 Molden file created by orca_2mkl for BaseName=h-shift_038

[Atoms] AU
C    1   6          0.1450742753         0.0361712479        -0.1223729953 
H    2   1          2.1506066062        -0.0584964725        -0.5207877355 
C    3   6          4.6898070459         0.0637291241         2.6723297561 
C    4   6          3.6938042103        -2.1043026467         3.5078853943 
C    5   6          1.0769681518        -3.0046418762         3.3050062863 
C    6   6         -0.4768043598        -2.2065954121         1.4764921613 
H    7   1         -0.8904521824         0.1141394585        -1.8708798952 
H    8   1         -0.1185614176         1.8081542156         0.8810035517 
H    9   1          3.6250616427         1.7561224963         2.3884116326 
H   10   1          6.6390538838         0.1707084103         2.1295021447 
H   11   1          4.9898218566        -3.5579102245         4.0803514704 
H   12   1          0.6012957380        -4.6825051441         4.3476702396 
H   13   1         -2.0963468997        -3.3239659086         0.9697583190 
[GTO]
  1 0
s   6 1.0 
     3047.5249000000         0.5363343823
      457.3695100000         0.9894506076
      103.9486900000         1.5972822308
       29.2101550000         2.0791870615
        9.2866630000         1.7741742532
        3.1639270000         0.6125798260
s   3 1.0 
        7.8682724000        -0.3995563516
        1.8812885000        -0.1841552393
        0.5442493000         0.5163903794
p   3 1.0 
        7.8682724000         1.2960827175
        1.8812885000         0.9937536282
        0.5442493000         0.4959527138
s   1 1.0 
        0.1687144000         0.1876178721
p   1 1.0 
        0.1687144000         0.1541275509

  2 0
s   3 1.0 
       18.7311370000         0.2149354183
        2.8253937000         0.3645711272
        0.6401217000         0.4150514277
s   1 1.0 
        0.1612778000         0.1813806839

  3 0
s   6 1.0 
     3047.5249000000         0.5363343823
      457.3695100000         0.9894506076
      103.9486900000         1.5972822308
       29.2101550000         2.0791870615
        9.2866630000         1.7741742532
        3.1639270000         0.6125798260
s   3 1.0 
        7.8682724000        -0.3995563516
        1.8812885000        -0.1841552393
        0.5442493000         0.5163903794
p   3 1.0 
        7.8682724000         1.2960827175
        1.8812885000         0.9937536282
        0.5442493000         0.4959527138
s   1 1.0 
        0.1687144000         0.1876178721
p   1 1.0 
        0.1687144000         0.1541275509

  4 0
s   6 1.0 
     3047.5249000000         0.5363343823
      457.3695100000         0.9894506076
      103.9486900000         1.5972822308
       29.2101550000         2.0791870615
        9.2866630000         1.7741742532
        3.1639270000         0.6125798260
s   3 1.0 
        7.8682724000        -0.3995563516
        1.8812885000        -0.1841552393
        0.5442493000         0.5163903794
p   3 1.0 
        7.8682724000         1.2960827175
        1.8812885000         0.9937536282
        0.5442493000         0.4959527138
s   1 1.0 
        0.1687144000         0.1876178721
p   1 1.0 
        0.1687144000         0.1541275509

  5 0
s   6 1.0 
     3047.5249000000         0.5363343823
      457.3695100000         0.9894506076
      103.9486900000         1.5972822308
       29.2101550000         2.0791870615
        9.2866630000         1.7741742532
        3.1639270000         0.6125798260
s   3 1.0 
        7.8682724000        -0.3995563516
        1.8812885000        -0.1841552393
        0.5442493000         0.5163903794
p   3 1.0 
        7.8682724000         1.2960827175
        1.8812885000         0.9937536282
        0.5442493000         0.4959527138
s   1 1.0 
        0.1687144000         0.1876178721
p   1 1.0 
        0.1687144000         0.1541275509

  6 0
s   6 1.0 
     3047.5249000000         0.5363343823
      457.3695100000         0.9894506076
      103.9486900000         1.5972822308
       29.2101550000         2.0791870615
        9.2866630000         1.7741742532
        3.1639270000         0.6125798260
s   3 1.0 
        7.8682724000        -0.3995563516
        1.8812885000        -0.1841552393
        0.5442493000         0.5163903794
p   3 1.0 
        7.8682724000         1.2960827175
        1.8812885000         0.9937536282
        0.5442493000         0.4959527138
s   1 1.0 
        0.1687144000         0.1876178721
p   1 1.0 
        0.1687144000         0.1541275509

  7 0
s   3 1.0 
       18.7311370000         0.2149354183
        2.8253937000         0.3645711272
        0.6401217000         0.4150514277
s   1 1.0 
        0.1612778000         0.1813806839

  8 0
s   3 1.0 
       18.7311370000         0.2149354183
        2.8253937000         0.3645711272
        0.6401217000         0.4150514277
s   1 1.0 
        0.1612778000         0.1813806839

  9 0
s   3 1.0 
       18.7311370000         0.2149354183
        2.8253937000         0.3645711272
        0.6401217000         0.4150514277
s   1 1.0 
        0.1612778000         0.1813806839

 10 0
s   3 1.0 
       18.7311370000         0.2149354183
        2.8253937000         0.3645711272
        0.6401217000         0.4150514277
s   1 1.0 
        0.1612778000         0.1813806839

 11 0
s   3 1.0 
       18.7311370000         0.2149354183
        2.8253937000         0.3645711272
        0.6401217000         0.4150514277
s   1 1.0 
        0.1612778000         0.1813806839

 12 0
s   3 1.0 
       18.7311370000         0.2149354183
        2.8253937000         0.3645711272
        0.6401217000         0.4150514277
s   1 1.0 
        0.1612778000         0.1813806839

 13 0
s   3 1.0 
       18.7311370000         0.2149354183
        2.8253937000         0.3645711272
        0.6401217000         0.4150514277
s   1 1.0 
        0.1612778000         0.1813806839

[5D]
[7F]
[9G]
[MO]
 Sym=     1a
 Ene= -1.12371540978999E+01
 Spin= Alpha
 Occup= 2.000000
  1      -0.012165378130
  2       0.000062152323
  3      -0.000048101552
  4      -0.000168044106
  5       0.000051146064
  6      -0.003455197853
  7       0.000385544724
  8       0.002192749846
  9      -0.001376894352
 10       0.000201692548
 11      -0.000589505908
 12      -0.008959213646
 13      -0.000118655145
 14      -0.000040545766
 15      -0.000027152081
 16       0.000038694756
 17      -0.001021992713
 18       0.000390993674
 19       0.000205158214
 20      -0.000299228315
 21      -0.184700372694
 22      -0.004352467944
 23      -0.000144681698
 24      -0.000093847116
 25      -0.000004365963
 26       0.003156944570
 27      -0.000252500149
 28       0.000525515520
 29      -0.000214652253
 30      -0.108424022917
 31      -0.001689990203
 32      -0.000096213692
 33       0.000129309040
 34      -0.000142006667
 35      -0.005460752492
 36       0.000689676300
 37      -0.001934045487
 38       0.002223872639
 39      -0.972703585340
 40      -0.024231402826
 41      -0.000188870692
 42      -0.000033516492
 43      -0.000030826741
 44       0.016827425601
 45       0.002061702681
 46       0.001046755628
 47       0.000293397918
 48       0.000080786227
 49      -0.000151444447
 50       0.000197676593
 51      -0.000797776364
 52       0.000018600581
 53       0.000355292275
 54      -0.000000076024
 55      -0.000151530520
 56       0.000060560838
 57      -0.000396610584
 58       0.000083790024
 59      -0.000749757202
 60       0.000241827930
 61      -0.002108142585
 Sym=     1a
 Ene= -1.12369876042357E+01
 Spin= Alpha
 Occup= 2.000000
  1      -0.002586383848
  2      -0.000007049507
  3       0.000002258884
  4       0.000030574930
  5      -0.000045130349
  6      -0.000935063628
  7      -0.000387063977
  8       0.000250404326
  9      -0.000135093216
 10      -0.000070930899
 11       0.000607809836
 12       0.049803807257
 13       0.000524305875
 14       0.000083096172
 15       0.000191904724
 16      -0.000140207158
 17       0.004905587423
 18      -0.001680110107
 19      -0.002068915676
 20       0.000871115583
 21       0.976359428912
 22       0.024475306265
 23      -0.000067042962
 24       0.000061904941
 25      -0.000212346955
 26      -0.016779011547
 27       0.000911963437
 28      -0.001210823717
 29       0.001109572319
 30       0.028418229935
 31       0.000290917349
 32      -0.000195805740
 33      -0.000041025129
 34      -0.000053082391
 35       0.002171091821
 36       0.002345809372
 37       0.000769624055
 38       0.000640027610
 39      -0.189070223631
 40      -0.005056166568
 41      -0.000198849326
 42       0.000026524282
 43      -0.000089453752
 44       0.003678055002
 45       0.001095252677
 46      -0.000058933628
 47       0.000505344549
 48       0.000022483302
 49      -0.000042717212
 50       0.000067906794
 51      -0.000224811461
 52      -0.000257415831
 53       0.000119761330
 54      -0.000089223795
 55       0.000515627059
 56      -0.000219022982
 57       0.002255881053
 58      -0.000061770172
 59       0.000158129741
 60       0.000095252169
 61      -0.000040172184
 Sym=     1a
 Ene= -1.12292129951418E+01
 Spin= Alpha
 Occup= 2.000000
  1      -0.002277470263
  2      -0.000074883763
  3       0.000026316547
  4       0.000087198003
  5      -0.000140758047
  6      -0.001572982952
  7      -0.000132908555
  8       0.000627007936
  9      -0.000124937781
 10       0.000010018830
 11       0.000216581170
 12      -0.005947011653
 13      -0.000248433783
 14       0.000129287227
 15       0.000102536714
 16      -0.000075754179
 17      -0.000958491311
 18       0.000151880594
 19       0.000139937588
 20       0.000239316540
 21      -0.048312965076
 22      -0.001858353390
 23       0.000171473600
 24       0.000053083257
 25       0.000045255037
 26       0.006319515793
 27      -0.002777350765
 28      -0.000079195303
 29      -0.000969053211
 30       0.989845631250
 31       0.025147712653
 32       0.000145648143
 33       0.000128858430
 34      -0.000334531468
 35      -0.019570459635
 36      -0.000912291536
 37      -0.002337668528
 38       0.002811269795
 39      -0.101691645901
 40      -0.003502545908
 41      -0.000175995256
 42       0.000024765352
 43      -0.000149981361
 44       0.009266765592
 45       0.003121154446
 46       0.000038231141
 47       0.001809779075
 48       0.000071976337
 49       0.000262087826
 50      -0.000020298144
 51      -0.000138966367
 52      -0.000018511207
 53       0.000170248392
 54       0.000054479133
 55       0.000234433228
 56      -0.000092573213
 57       0.000320487725
 58      -0.000263635606
 59       0.001776964740
 60      -0.000055270076
 61       0.000214134527
 Sym=     1a
 Ene= -1.12212937605372E+01
 Spin= Alpha
 Occup= 2.000000
  1      -0.000306237746
  2      -0.000074526082
  3      -0.000042712480
  4      -0.000020809476
  5      -0.000167270431
  6      -0.000275174566
  7      -0.000458441544
  8      -0.000024634829
  9       0.001344688959
 10      -0.000087974586
 11       0.001976047223
 12       0.994861988933
 13       0.025176994473
 14      -0.000151732348
 15      -0.000212793966
 16      -0.000133105950
 17      -0.017430866185
 18       0.001250267378
 19       0.001669770314
 20       0.000050390109
 21      -0.051376136454
 22      -0.002077568677
 23      -0.000131180369
 24      -0.000254844955
 25       0.000057435654
 26       0.006919104617
 27       0.001147003278
 28       0.002711216449
 29      -0.001127172158
 30       0.003512276444
 31       0.000014149218
 32      -0.000118087390
 33      -0.000082742036
 34      -0.000003287073
 35      -0.000283093252
 36       0.000277328052
 37       0.000137649440
 38       0.000079898719
 39       0.000123175880
 40       0.000082511823
 41      -0.000045992604
 42      -0.000016558629
 43      -0.000002198185
 44      -0.000570659471
 45      -0.000167872301
 46      -0.000575810498
 47       0.000143993639
 48       0.000109135539
 49       0.000549007969
 50      -0.000036632924
 51      -0.000698793477
 52      -0.000036442450
 53       0.002824173085
 54      -0.000167157274
 55       0.002747821677
 56      -0.000119945042
 57       0.000005526606
 58       0.000037623332
 59       0.000273863063
 60      -0.000021142877
 61      -0.000110774295
 Sym=     1a
 Ene= -1.12104503801796E+01
 Spin= Alpha
 Occup= 2.000000
  1       0.996120148853
  2       0.026267937089
  3       0.000048919773
  4      -0.000047642004
  5       0.000128773094
  6      -0.019443554312
  7      -0.000224343947
  8       0.000821680087
  9      -0.000859062379
 10       0.000060856294
 11       0.003607076263
 12       0.000306550478
 13      -0.000078227421
 14       0.000147549480
 15      -0.000034646564
 16      -0.000028869642
 17       0.000384861518
 18      -0.000974160743
 19      -0.000107143816
 20       0.000383031636
 21       0.000163477178
 22       0.000007508238
 23       0.000056731935
 24      -0.000043430714
 25       0.000048050019
 26      -0.000750059556
 27       0.000090758722
 28      -0.000396991028
 29       0.000132626032
 30       0.000993412009
 31      -0.000197412711
 32       0.000048142204
 33      -0.000086949002
 34       0.000095753307
 35       0.000736427527
 36      -0.000287780541
 37       0.000557464940
 38      -0.000604768695
 39      -0.012766188402
 40      -0.000746863391
 41      -0.000004500600
 42      -0.000098836467
 43       0.000097211258
 44       0.004138894656
 45       0.000137888260
 46       0.002108055932
 47      -0.001846095906
 48       0.000022687100
 49       0.003053930226
 50       0.000066107255
 51       0.003334168340
 52      -0.000025558674
 53      -0.000327825706
 54       0.000120453011
 55       0.000505804962
 56      -0.000018180496
 57       0.000010867700
 58       0.000046848156
 59       0.000504242266
 60      -0.000161649625
 61      -0.000045012264
 Sym=     1a
 Ene= -1.10702241872334E+00
 Spin= Alpha
 Occup= 2.000000
  1       0.073336700607
  2      -0.134660033029
  3      -0.003842867503
  4       0.035256216532
  5      -0.030603709555
  6      -0.130623623294
  7      -0.011121869838
  8       0.004684096700
  9      -0.013484998080
 10      -0.045788731189
 11       0.000816724730
 12       0.073494951193
 13      -0.142239131886
 14       0.034466958733
 15       0.051895808164
 16      -0.014041740092
 17      -0.099900765794
 18       0.000056721238
 19       0.002841206244
 20       0.003805382773
 21       0.107962178977
 22      -0.213348693577
 23       0.032942012129
 24      -0.022567145182
 25       0.028537906999
 26      -0.136568318491
 27       0.006755841455
 28      -0.000430146841
 29       0.004300111886
 30       0.123462472784
 31      -0.243331072989
 32      -0.003846631738
 33      -0.039784689304
 34       0.056980365914
 35      -0.160577804091
 36      -0.003942038735
 37      -0.002476468034
 38       0.004946929010
 39       0.113991134260
 40      -0.226217790702
 41      -0.062741959909
 42      -0.000968296145
 43      -0.035389574649
 44      -0.134151379781
 45       0.002110299541
 46       0.004326386985
 47       0.000194541042
 48      -0.032853132543
 49      -0.006595837334
 50      -0.036813193724
 51       0.000049648497
 52      -0.039392792960
 53      -0.005926288606
 54      -0.031973286986
 55      -0.000645496407
 56      -0.051747961150
 57      -0.008185780284
 58      -0.055973278736
 59      -0.006584508597
 60      -0.051563269907
 61      -0.003894565565
 Sym=     1a
 Ene= -1.01680644524426E+00
 Spin= Alpha
 Occup= 2.000000
  1       0.096774608667
  2      -0.184696763193
  3       0.012269294224
  4       0.034132588916
  5      -0.022142431428
  6      -0.171128980114
  7       0.002580885821
  8       0.002029973682
  9      -0.002163872417
 10      -0.048007785357
 11      -0.005024711432
 12      -0.124211366907
 13       0.242949723781
 14      -0.025072510188
 15      -0.077147590683
 16       0.027498004760
 17       0.192477376520
 18      -0.004926965242
 19      -0.003821087932
 20       0.000886158288
 21      -0.118325557764
 22       0.236300824725
 23       0.057464802934
 24       0.071751859598
 25      -0.027490840268
 26       0.167046341572
 27       0.010384944337
 28      -0.005393253471
 29       0.001869944627
 30       0.019817263032
 31      -0.038973089509
 32       0.094800915211
 33      -0.001718054352
 34       0.056233883836
 35      -0.025485196978
 36       0.011232484036
 37       0.010151909729
 38       0.000112339445
 39       0.100975738431
 40      -0.200958234246
 41      -0.016430268991
 42      -0.022292753126
 43       0.013023139806
 44      -0.149580401624
 45      -0.004063059174
 46      -0.004041457050
 47       0.002622587119
 48      -0.057662198771
 49      -0.009311335732
 50      -0.054689307161
 51      -0.005292082807
 52       0.062885321084
 53       0.006070150426
 54       0.071964535515
 55       0.016473815145
 56       0.071784981327
 57       0.012943159866
 58      -0.009731039108
 59       0.002777298696
 60      -0.062041471842
 61      -0.016220076079
 Sym=     1a
 Ene= -9.43605617403219E-01
 Spin= Alpha
 Occup= 2.000000
  1      -0.137150015332
  2       0.256727469537
  3       0.010479919203
  4       0.020257469187
  5      -0.013969157498
  6       0.293082847875
  7       0.008606023733
  8       0.000839456034
  9       0.005399818812
 10       0.102213190244
 11       0.019739615246
 12      -0.078688555448
 13       0.152193741509
 14      -0.004783285347
 15      -0.003370440709
 16      -0.004187077920
 17       0.141622150153
 18      -0.006051866370
 19       0.001983054419
 20      -0.006716403041
 21       0.005366234762
 22      -0.011661286242
 23       0.093119550977
 24       0.089611927722
 25      -0.022686060353
 26      -0.013663148309
 27       0.019402902420
 28       0.005188553742
 29       0.000384867887
 30       0.120545134683
 31      -0.239765968072
 32       0.024500069619
 33       0.017128642103
 34       0.022328135113
 35      -0.188830484137
 36      -0.000123435925
 37       0.016488007455
 38      -0.006110758377
 39       0.029022374592
 40      -0.054795145310
 41      -0.039252708779
 42       0.113159857822
 43      -0.125083643080
 44      -0.073015259996
 45      -0.010812781542
 46       0.007884648441
 47      -0.015906180130
 48       0.098384197690
 49       0.027894050807
 50       0.098322084006
 51       0.023720712006
 52       0.064200208112
 53       0.019576918371
 54       0.056607334935
 55       0.017833564886
 56      -0.009378066859
 57      -0.007396181969
 58      -0.092073372590
 59      -0.025276202011
 60      -0.020554199022
 61      -0.007807882788
 Sym=     1a
 Ene= -8.11292132499482E-01
 Spin= Alpha
 Occup= 2.000000
  1      -0.064462949612
  2       0.122924602426
  3       0.016435653518
  4       0.066806565739
  5      -0.047052515883
  6       0.153021753694
  7      -0.002611518590
  8       0.015401223842
  9      -0.017893581158
 10       0.054083781897
 11       0.022015289404
 12       0.101466479121
 13      -0.201183936974
 14      -0.041253704943
 15      -0.077340846349
 16       0.031423870118
 17      -0.193959773170
 18      -0.014595729756
 19      -0.030584369179
 20       0.013963538044
 21      -0.085317799540
 22       0.173894403960
 23      -0.071780534332
 24      -0.148031906645
 25       0.045033846578
 26       0.164600955091
 27      -0.019386315446
 28      -0.048604395162
 29       0.014593162387
 30      -0.025830567608
 31       0.053306628879
 32       0.188529043641
 33      -0.017085010453
 34       0.104268287225
 35       0.043719588051
 36       0.043264908361
 37      -0.005021554018
 38       0.025005114321
 39       0.092459191271
 40      -0.185726146527
 41       0.037528453886
 42       0.078072138973
 43      -0.043036283276
 44      -0.182470247828
 45       0.023580816844
 46       0.016830936510
 47       0.001944586747
 48       0.068421859692
 49       0.023403765561
 50       0.065055885054
 51       0.026443675809
 52      -0.108513856202
 53      -0.041267398604
 54      -0.113178235632
 55      -0.048019557737
 56       0.109460123756
 57       0.046218329230
 58       0.034984070081
 59       0.016110466123
 60      -0.110030292379
 61      -0.043988529153
 Sym=     1a
 Ene= -7.23047091793619E-01
 Spin= Alpha
 Occup= 2.000000
  1       0.016915302545
  2      -0.026901529247
  3      -0.102481371627
  4      -0.114001559419
  5       0.016801251009
  6      -0.055172357547
  7      -0.043475261152
  8      -0.040931313898
  9      -0.000124494261
 10      -0.076785960713
 11      -0.039641691976
 12       0.035219087157
 13      -0.068679481811
 14       0.026150250601
 15      -0.193402251417
 16       0.072046445435
 17      -0.079833753239
 18       0.010287035302
 19      -0.060939525030
 20       0.029692137585
 21      -0.070392282994
 22       0.142277802547
 23       0.176554847241
 24      -0.018311442061
 25       0.018649857416
 26       0.145566741908
 27       0.056585131450
 28      -0.033231953035
 29       0.014047613652
 30       0.079973704208
 31      -0.163022355475
 32       0.008732809210
 33       0.035847387309
 34      -0.039609481634
 35      -0.165900823648
 36      -0.000876060651
 37       0.035288984129
 38      -0.030235293019
 39      -0.074523456371
 40       0.151374639101
 41      -0.141854331016
 42      -0.005864345793
 43      -0.124664375151
 44       0.161753296047
 45      -0.058115842485
 46      -0.011205179070
 47      -0.046498897000
 48       0.004685973970
 49       0.003703801357
 50      -0.058420853060
 51      -0.030648779187
 52      -0.138852337298
 53      -0.083695450376
 54      -0.037363740541
 55      -0.017977417271
 56       0.136261402457
 57       0.065509762144
 58      -0.106087321580
 59      -0.043504710727
 60       0.151710921550
 61       0.076637632434
 Sym=     1a
 Ene= -6.70817872988202E-01
 Spin= Alpha
 Occup= 2.000000
  1      -0.019622257014
  2       0.037688182884
  3      -0.081913319076
  4       0.071397788351
  5      -0.124182286969
  6       0.055200094058
  7      -0.041797756576
  8       0.025081916683
  9      -0.056323686587
 10      -0.018578770002
 11      -0.012975438252
 12      -0.022548517514
 13       0.044876894474
 14       0.179000761374
 15       0.075730440383
 16      -0.037765130069
 17       0.062977899834
 18       0.067755062541
 19       0.018572752306
 20      -0.008304762897
 21       0.023353623979
 22      -0.048703268732
 23       0.100752376646
 24      -0.134119158676
 25       0.079239309934
 26      -0.046427863600
 27       0.035084475496
 28      -0.043580233176
 29       0.029864594294
 30      -0.021560873506
 31       0.040964406807
 32      -0.054620602021
 33      -0.240061730081
 34       0.161035796455
 35       0.064241563975
 36      -0.019957772829
 37      -0.098208159099
 38       0.062168464574
 39       0.021230982084
 40      -0.043777638051
 41      -0.164067795037
 42      -0.101020632381
 43      -0.044039120184
 44      -0.031576806561
 45      -0.054610917680
 46      -0.038909555014
 47      -0.007998966369
 48       0.105726200431
 49       0.061923446981
 50       0.024957488663
 51       0.015788612129
 52       0.007765535778
 53       0.010382834073
 54       0.128920054624
 55       0.081443152416
 56       0.079846503799
 57       0.056815818297
 58       0.187542476431
 59       0.113260873785
 60       0.087624126856
 61       0.059684291836
 Sym=     1a
 Ene= -5.99192740862410E-01
 Spin= Alpha
 Occup= 2.000000
  1      -0.011559934433
  2       0.023530596874
  3       0.123168095622
  4       0.016334700171
  5       0.054500952280
  6       0.026422292554
  7       0.049954343186
  8       0.010758871536
  9       0.012487158924
 10       0.068603517312
 11       0.048054148298
 12       0.008604368514
 13      -0.019402826139
 14       0.284282688170
 15      -0.105525295856
 16      -0.053297089856
 17      -0.033094961598
 18       0.132265426634
 19      -0.051978661271
 20      -0.025570357178
 21       0.019015988504
 22      -0.044318119258
 23       0.175535094055
 24      -0.099675946099
 25      -0.007954817269
 26      -0.025943087562
 27       0.057757621966
 28      -0.025449501661
 29      -0.018935737782
 30      -0.008895019967
 31       0.021254589513
 32      -0.142771040167
 33       0.033151652745
 34      -0.149409636343
 35      -0.022222964153
 36      -0.045418229843
 37      -0.013352667160
 38      -0.037965166476
 39      -0.003491736034
 40       0.008496843151
 41       0.222912456037
 42       0.025003318184
 43       0.139317991143
 44       0.012378873986
 45       0.107993040834
 46       0.023538606636
 47       0.056152482389
 48      -0.057661185516
 49      -0.051243831708
 50       0.020448111257
 51       0.008436008359
 52      -0.147255571181
 53      -0.095148920115
 54       0.165481854348
 55       0.116129231197
 56       0.090865223319
 57       0.075080701096
 58      -0.034424037437
 59      -0.036085986633
 60      -0.139530330050
 61      -0.094201709637
 Sym=     1a
 Ene= -5.83827607242083E-01
 Spin= Alpha
 Occup= 2.000000
  1       0.008827370260
  2      -0.012590668170
  3       0.022474618892
  4      -0.207516200305
  5       0.083080381273
  6      -0.040922159741
  7       0.014453945887
  8      -0.087886759249
  9       0.031833006380
 10       0.007106782932
 11       0.007113535470
 12       0.006822362573
 13      -0.018854991123
 14       0.121591315787
 15       0.271408477833
 16      -0.125641148474
 17       0.017393069365
 18       0.039523632966
 19       0.099945838885
 20      -0.049771239503
 21       0.006628363706
 22      -0.016630177896
 23      -0.143719143324
 24      -0.290955058518
 25       0.072585233368
 26       0.006138432839
 27      -0.040032641989
 28      -0.105604840021
 29       0.022623306114
 30       0.012596937927
 31      -0.026076410677
 32       0.218965883385
 33       0.051902794774
 34       0.015252788146
 35      -0.026306980654
 36       0.089065563623
 37       0.023522945787
 38      -0.002506215331
 39      -0.021497542134
 40       0.043272427943
 41       0.010958993430
 42       0.128446844608
 43      -0.174553048823
 44       0.076545417187
 45       0.009167331475
 46       0.047653511645
 47      -0.070840135318
 48      -0.067322730344
 49      -0.048962088086
 50      -0.096959409886
 51      -0.073196639414
 52       0.104254670734
 53       0.073924042080
 54       0.098085854978
 55       0.076504559546
 56       0.081181518795
 57       0.060484651046
 58      -0.070008860579
 59      -0.047426575374
 60       0.004929959098
 61      -0.000251634534
 Sym=     1a
 Ene= -5.66902877509283E-01
 Spin= Alpha
 Occup= 2.000000
  1       0.001202237224
  2      -0.003208972110
  3      -0.156510508405
  4       0.204122675445
  5       0.308554185278
  6      -0.000932659977
  7      -0.073551604255
  8       0.106986939903
  9       0.157884881524
 10      -0.155941708870
 11      -0.128551282166
 12       0.004000753423
 13      -0.007773056499
 14       0.021864498929
 15       0.076639494923
 16       0.018171650665
 17      -0.004766842622
 18      -0.000628113071
 19       0.028181487423
 20       0.020454094769
 21      -0.003442265021
 22       0.008676194366
 23       0.021740543708
 24      -0.066315742609
 25       0.077988567667
 26       0.009661778054
 27       0.018862683145
 28      -0.034628157001
 29       0.043932679450
 30       0.006777097837
 31      -0.012833266075
 32      -0.020386566797
 33       0.052189139133
 34       0.049109691050
 35      -0.015856486431
 36      -0.014088735031
 37       0.034740743691
 38       0.032493332483
 39      -0.013475803219
 40       0.027471178947
 41      -0.053988983181
 42       0.110196818738
 43       0.062181546633
 44       0.041773886870
 45      -0.030375888462
 46       0.049758126900
 47       0.032948574308
 48      -0.119993635261
 49      -0.088541511054
 50       0.234380175603
 51       0.183871236460
 52       0.037763383697
 53       0.038792489736
 54       0.009080717144
 55       0.012682499341
 56       0.060816019737
 57       0.041210780605
 58      -0.016022684783
 59      -0.010066189868
 60      -0.003713031364
 61      -0.006430644597
 Sym=     1a
 Ene= -5.46333728166498E-01
 Spin= Alpha
 Occup= 2.000000
  1      -0.006856583547
  2       0.018884740059
  3      -0.310433923439
  4      -0.062039495165
  5      -0.093081564318
  6      -0.016236363683
  7      -0.171978436800
  8      -0.026626219069
  9      -0.068071029158
 10      -0.187463072535
 11      -0.145305450162
 12      -0.018298479356
 13       0.040433192311
 14       0.148783942034
 15      -0.057626933511
 16       0.005857335382
 17       0.028444916434
 18       0.097749818864
 19      -0.026457903414
 20       0.008764361088
 21       0.006458527802
 22      -0.012048244751
 23      -0.157651976964
 24       0.087755774843
 25      -0.037281272764
 26      -0.004909238258
 27      -0.095389250539
 28       0.065698365593
 29      -0.021334246567
 30      -0.034443745635
 31       0.076358942340
 32       0.078726568969
 33       0.112302770536
 34      -0.001416137481
 35       0.069795770503
 36       0.016370764476
 37       0.026811239034
 38       0.013932837998
 39       0.007171501048
 40      -0.015166088877
 41       0.077093505222
 42       0.127112098889
 43       0.007050768380
 44      -0.007164036203
 45       0.059047603183
 46       0.085737870525
 47       0.008294243087
 48       0.173821496183
 49       0.131155610736
 50      -0.034023571687
 51      -0.022901118993
 52      -0.085710710555
 53      -0.065861921873
 54       0.120573112442
 55       0.084098219461
 56      -0.129026997819
 57      -0.087756418985
 58      -0.031580846197
 59      -0.040194987649
 60      -0.099936177114
 61      -0.061187079181
 Sym=     1a
 Ene= -5.08177198393843E-01
 Spin= Alpha
 Occup= 2.000000
  1       0.017138315636
  2      -0.037433945823