
                                 *****************
                                 * O   R   C   A *
                                 *****************

                                            #,                                       
                                            ###                                      
                                            ####                                     
                                            #####                                    
                                            ######                                   
                                           ########,                                 
                                     ,,################,,,,,                         
                               ,,#################################,,                 
                          ,,##########################################,,             
                       ,#########################################, ''#####,          
                    ,#############################################,,   '####,        
                  ,##################################################,,,,####,       
                ,###########''''           ''''###############################       
              ,#####''   ,,,,##########,,,,          '''####'''          '####       
            ,##' ,,,,###########################,,,                        '##       
           ' ,,###''''                  '''############,,,                           
         ,,##''                                '''############,,,,        ,,,,,,###''
      ,#''                                            '''#######################'''  
     '                                                          ''''####''''         
             ,#######,   #######,   ,#######,      ##                                
            ,#'     '#,  ##    ##  ,#'     '#,    #''#        ,####,    ,#,          
            ##       ##  ##   ,#'  ##            #'  '#       #'       ,# #          
            ##       ##  #######   ##           ,######,      #####,      #          
            '#,     ,#'  ##    ##  '#,     ,#' ,#      #,     #,   #      #          
             '#######'   ##     ##  '#######'  #'      '#     '####' #    #          



                #########################################################
                #                        -***-                          #
                #          Department of theory and spectroscopy        #
                #                                                       #
                #                      Frank Neese                      #
                #                                                       #
                #     Directorship, Architecture, Infrastructure        #
                #                    SHARK, DRIVERS                     #
                #        Core code/Algorithms in most modules           #
                #                                                       #
                #        Max Planck Institute fuer Kohlenforschung      #
                #                Kaiser Wilhelm Platz 1                 #
                #                 D-45470 Muelheim/Ruhr                 #
                #                      Germany                          #
                #                                                       #
                #                  All rights reserved                  #
                #                        -***-                          #
                #########################################################


                         Program Version 6.1.0  -  RELEASE   -
                                (GIT: $679e74b$)
                          ($2025-06-10 18:02:51 +0200$)


 With contributions from (in alphabetic order):
[Max-Planck-Institut fuer Kohlenforschung]                               
  Daniel Aravena         : Magnetic Suceptibility                        
  Michael Atanasov       : Ab Initio Ligand Field Theory (pilot matlab implementation)
  Alexander A. Auer      : GIAO ZORA, VPT2 properties, NMR spectrum      
  Ute Becker             : All parallelization in ORCA, NUMFREQ, NUMCALC 
  Giovanni Bistoni       : ED, misc. LED, open-shell LED, HFLD           
  Dmytro Bykov           : pre 5.0 version of the SCF Hessian            
  Marcos Casanova-Páez   : Triplet and SCS-CIS(D). UHF-(DLPNO)-IP/EA/STEOM-CCSD. UHF-CVS-IP/STEOM-CCSD   
  Vijay G. Chilkuri      : MRCI spin determinant printing, contributions to CSF-ICE 
  Pauline Colinet        : FMM embedding                                 
  Dipayan Datta          : RHF DLPNO-CCSD density                        
  Achintya Kumar Dutta   : EOM-CC, STEOM-CC                              
  Nicolas Foglia         : Exact transition moments, OPA infrastructure, MCD improvements    
  Dmitry Ganyushin       : Spin-Orbit,Spin-Spin,Magnetic field MRCI      
  Miquel Garcia-Rates    : C-PCM and meta-GGA Hessian, CCSD/C-PCM, Gaussian charge scheme 
  Tiago L. C. Gouveia    : GS-ROHF, GS-ROCIS                             
  Yang Guo               : DLPNO-NEVPT2, F12-NEVPT2, CIM, IAO-localization        
  Andreas Hansen         : Spin unrestricted coupled pair/coupled cluster methods 
  Ingolf Harden          : AUTO-CI MPn and infrastructure                
  Benjamin Helmich-Paris : MC-RPA, TRAH-(SCF,CASSCF), AVAS, COSX integrals, SCF dyn. polar., MC-PDFT, srDFT 
  Lee Huntington         : MR-EOM, pCC                                   
  Robert Izsak           : Overlap fitted RIJCOSX, COSX-SCS-MP3, EOM     
  Riya Kayal             : Wick's Theorem for AUTO-CI, AUTO-CI UHF-CCSDT 
  Emily Kempfer          : AUTO-CI RHF CISDT and CCSDT, approximate NEVPT4
  Christian Kollmar      : KDIIS, OOCD, Brueckner-CCSD(T), CCSD density, CASPT2, CASPT2-K, improved NEVPT2 
  Axel Koslowski         : Symmetry handling                             
  Simone Kossmann        : meta-GGA functionals, TD-DFT gradient, OOMP2, (MP2 Hessian; deprecated post 5.0) 
  Lucas Lang             : DCDCAS, Hyperfine gauge corrections, ICE-SOC+SSC
  Marvin Lechner         : AUTO-CI (C++ implementation), FIC-MRCC        
  Spencer Leger          : CASSCF response                               
  Dagmar Lenk            : GEPOL surface, SMD, ORCA-2-JSON               
  Dimitrios Liakos       : Extrapolation schemes; Compound Job, Property file
  Dimitrios Manganas     : Further ROCIS development; embedding schemes. LFT, Crystal Embedding 
  Dimitrios Pantazis     : SARC Basis sets                               
  Anastasios Papadopoulos: AUTO-CI, single reference methods and gradients 
  Taras Petrenko         : pre 6.0 DFT Hessian and TD-DFT gradient,  ECA, NRVS 
  Petra Pikulova         : Analytic Raman intensities                    
  Peter Pinski           : DLPNO-MP2, DLPNO-MP2 Gradient                 
  Shashank Vittal Rao    : ES-AILFT, MagRelax                            
  Christoph Reimann      : Effective Core Potentials                     
  Marius Retegan         : Local ZFS, SOC                                
  Christoph Riplinger    : Optimizer, TS searches, QM/MM, DLPNO-CCSD(T), (RO)-DLPNO pert. Triples 
  Michael Roemelt        : Original ROCIS implementation, recursive CI coupling coefficients
  Masaaki Saitow         : Open-shell DLPNO-CCSD energy and density      
  Barbara Sandhoefer     : DKH picture change effects                    
  Yorick L. A. Schmerwitz: GMF and freeze-and-release deltaSCF, NEB S-IDPP initial path                    
  Kantharuban Sivalingam : CASSCF convergence/infrastructure, NEVPT2, NEVPT3, NEVPT4(SD), FIC-MRCI and CEPA variants
  Bernardo de Souza      : ESD, SOC TD-DFT                               
  Georgi L. Stoychev     : AutoAux, RI-MP2 NMR, DLPNO-MP2 response, X2C  
  Van Anh Tran           : RI-MP2 g-tensors                              
  Willem Van den Heuvel  : Paramagnetic NMR                              
  Zikuan Wang            : NOTCH, Electric field optimization            
  Frank Wennmohs         : Technical directorship and infrastructure     
  Hang Xu                : AUTO-CI-Response properties                   
                                                                         
[FACCTs GmbH]                                                            
  Markus Bursch, Nicolas Foglia, Miquel Garcia-Rates, Ingolf Harden, Hagen Neugebauer, Anastasios Papadopoulos, 
  Christoph Riplinger, Bernardo de Souza, Georgi L. Stoychev                                                    
                                                                 
  APM, various basis sets, CI-OPT, improved COSX, DLPNO-Multilevel,           
  DOCKER, DRACO, updates on ESD, Fragmentator, GOAT, IRC, LR-CPCM, L-BFGS, MBIS, meta-GGA TD-DFT gradient, ML-optimized integration grids, 
  MM, NACMEs, nearIR, NEB, NEB-TS, NL-DFT gradient (VV10), 2- and 3-layer-ONIOM, interface openCOSMO-RS, QMMM,   
  Crystal-QMMM, RESP, rigid body optimization, SF, symmetry and pop. for TD-DFT, various functionals, SOLVATOR                                   
                                                                         
[Other institutions]                                                     
  V. Asgeirsson          : NEB                                           
  Christoph Bannwarth    : sTDA-DFT, sTD-DFT, PBEh-3c, B97-3c, D3        
  Giovanni Bistoni       : ETS/NOCV, ADLD/ADEX, COVALED                  
  Martin Brehm           : Molecular dynamics                            
  Ronald Cardenas        : ETS/NOCV                                      
  Martina Colucci        : COVALED                                       
  Sebastian Ehlert       : rSCAN, r2SCAN, r2SCAN-3c, D4, dhf basis sets  
  Marvin Friede          : D4 for Fr, Ra, Ac-Lr                          
  Lars Goerigk           : TD-DFT with DH, B97 family of functionals     
  Stefan Grimme          : VdW corrections, initial TS optimization, DFT functionals, gCP, sTDA/sTD-DF 
  Waldemar Hujo          : DFT-NL                                        
  H. Jonsson             : NEB                                           
  Holger Kruse           : gCP                                           
  Marcel Mueller         : wB97X-3c, vDZP basis set                      
  Hagen Neugebauer       : wr2SCAN, Native XTB                           
  Gianluca Regni         : ADLD/ADEX                                     
  Tobias Risthaus        : pre 6.0 range-separated hybrid DFT and stability analysis
  Lukas Wittmann         : regularized MP2, r2SCAN double-hybrids, wr2SCAN        
                                                                         
We gratefully acknowledge several colleagues who have allowed us to      
interface, adapt or use parts of their codes:                            
  Ed Valeev, F. Pavosevic, A. Kumar             : LibInt (2-el integral package), F12 methods 
  Garnet Chan, S. Sharma, J. Yang, R. Olivares  : DMRG                   
  Ulf Ekstrom                                   : XCFun DFT Library      
  Mihaly Kallay                                 : mrcc  (arbitrary order and MRCC methods)
  Frank Weinhold                                : gennbo (NPA and NBO analysis)           
  Simon Mueller                                 : openCOSMO-RS                            
  Christopher J. Cramer and Donald G. Truhlar   : smd solvation model                     
  S Lehtola, MJT Oliveira, MAL Marques          : LibXC Library                           
  Liviu Ungur et al                             : ANISO software                          


 Your calculation uses the libint2 library for the computation of 2-el integrals
 For citations please refer to: http://libint.valeyev.net

 Your ORCA version has been built with support for libXC version: 7.0.0
 For citations please refer to: https://libxc.gitlab.io

 This ORCA versions uses:
   CBLAS   interface :  Fast vector & matrix operations
   LAPACKE interface :  Fast linear algebra routines
   SCALAPACK package :  Parallel linear algebra routines
   Shared memory     :  Shared parallel matrices
   BLAS/LAPACK       :  OpenBLAS 0.3.29  USE64BITINT DYNAMIC_ARCH NO_AFFINITY Zen SINGLE_THREADED
        Core in use  :  Zen
   Copyright (c) 2011-2014, The OpenBLAS Project


  ***********************************
  * Starting time: Sun Apr  5 13:01:35 2026
  * Host name:     QC1
  * Process ID:    9049
  * Working dir.:  /home/user/QC/h-shift/split_2
  ***********************************

NOTE: MaxCore=1200 MB was set to SCF,MP2,MDCI,CIPSI,MRCI,RASCI and CIS
      => If you want to overwrite this, your respective input block should be placed after the MaxCore statement
================================================================================

----- Orbital basis set information -----
Your calculation utilizes the basis: 6-31G
   H-He, Li-Ne : W. J. Hehre, R. Ditchfield and J.A. Pople, J. Chem. Phys. 56, 2257 (1972).
                 Note: He and Ne are unpublished basis sets taken from the Gaussian program.
                 Note: Li and B from J. D. Dill and J. A. Pople, J. Chem. Phys. 62, 2921 (1975).
   Na - Ar     : M. M. Francl, W. J. Pietro, W. J. Hehre, J. S. Binkley, M. S. Gordon, 
                 D. J. DeFrees and J. A. Pople, J. Chem. Phys. 77, 3654 (1982).
   K - Zn      : V. A. Rassolov, J. A. Pople, M. A. Ratner, and T. L. Windus, J. Chem. Phys. 109, 1223 (1998).

================================================================================
                                        WARNINGS
                       Please study these warnings very carefully!
================================================================================


================================================================================
                                       INPUT FILE
================================================================================
NAME = h-shift_046.inp
|  1> ! HF 6-31G
|  2> %maxcore 1200
|  3> %pal nprocs 8 end
|  4> * xyz 0 1
|  5> C    0.00125400   0.00800700  -0.01804100
|  6> H    1.37783900  -0.05009000  -0.00580100
|  7> C    2.35501500   0.00632200   1.15811400
|  8> C    1.88831500  -1.12638400   1.83834700
|  9> C    0.57185500  -1.58249200   1.76876300
| 10> C   -0.27025400  -1.13759500   0.76506000
| 11> H   -0.49631800   0.06956600  -0.97276900
| 12> H    0.04750600   0.96905200   0.46715400
| 13> H    1.92885100   0.97209900   1.36216200
| 14> H    3.41563700   0.06270900   0.97450200
| 15> H    2.61007100  -1.81505400   2.24350200
| 16> H    0.31948200  -2.48854400   2.28622800
| 17> H   -1.03347800  -1.81964300   0.43317000
| 18> *
| 19> 
| 20>                          ****END OF INPUT****
================================================================================

                       ****************************
                       * Single Point Calculation *
                       ****************************

---------------------------------
CARTESIAN COORDINATES (ANGSTROEM)
---------------------------------
  C      0.001254    0.008007   -0.018041
  H      1.377839   -0.050090   -0.005801
  C      2.355015    0.006322    1.158114
  C      1.888315   -1.126384    1.838347
  C      0.571855   -1.582492    1.768763
  C     -0.270254   -1.137595    0.765060
  H     -0.496318    0.069566   -0.972769
  H      0.047506    0.969052    0.467154
  H      1.928851    0.972099    1.362162
  H      3.415637    0.062709    0.974502
  H      2.610071   -1.815054    2.243502
  H      0.319482   -2.488544    2.286228
  H     -1.033478   -1.819643    0.433170

----------------------------
CARTESIAN COORDINATES (A.U.)
----------------------------
  NO LB      ZA    FRAG     MASS         X           Y           Z
   0 C     6.0000    0    12.011    0.002370    0.015131   -0.034093
   1 H     1.0000    0     1.008    2.603738   -0.094656   -0.010962
   2 C     6.0000    0    12.011    4.450333    0.011947    2.188518
   3 C     6.0000    0    12.011    3.568398   -2.128557    3.473972
   4 C     6.0000    0    12.011    1.080649   -2.990476    3.342478
   5 C     6.0000    0    12.011   -0.510706   -2.149743    1.445754
   6 H     1.0000    0     1.008   -0.937905    0.131461   -1.838267
   7 H     1.0000    0     1.008    0.089773    1.831243    0.882793
   8 H     1.0000    0     1.008    3.645000    1.837001    2.574113
   9 H     1.0000    0     1.008    6.454619    0.118503    1.841542
  10 H     1.0000    0     1.008    4.932319   -3.429955    4.239604
  11 H     1.0000    0     1.008    0.603733   -4.702667    4.320345
  12 H     1.0000    0     1.008   -1.952990   -3.438627    0.818573

--------------------------------
INTERNAL COORDINATES (ANGSTROEM)
--------------------------------
 C      0   0   0     0.000000000000     0.00000000     0.00000000
 H      1   0   0     1.377864776106     0.00000000     0.00000000
 C      2   1   0     1.520773939790   130.33005046     0.00000000
 C      3   2   1     1.401266822102    97.32741034    60.10136834
 C      4   3   2     1.394970742460   123.66920807   331.78884765
 C      5   4   3     1.383654805470   120.35865069    16.21978507
 H      1   2   3     1.078365874668   118.11586986   172.73055201
 H      1   2   3     1.077571773737    89.46843026    58.41454597
 H      3   2   1     1.075163501487    85.63445917   300.25009119
 H      3   2   1     1.077873780735   120.25400657   187.21544698
 H      4   3   2     1.076730544965   118.45187729   136.65876952
 H      5   4   3     1.073495404768   118.28021545   176.97623958
 H      6   5   4     1.076034999700   116.84750840   149.56040767

---------------------------
INTERNAL COORDINATES (A.U.)
---------------------------
 C      0   0   0     0.000000000000     0.00000000     0.00000000
 H      1   0   0     2.603787076417     0.00000000     0.00000000
 C      2   1   0     2.873846257808   130.33005046     0.00000000
 C      3   2   1     2.648010534324    97.32741034    60.10136834
 C      4   3   2     2.636112668083   123.66920807   331.78884765
 C      5   4   3     2.614728646222   120.35865069    16.21978507
 H      1   2   3     2.037816175289   118.11586986   172.73055201
 H      1   2   3     2.036315542006    89.46843026    58.41454597
 H      3   2   1     2.031764566998    85.63445917   300.25009119
 H      3   2   1     2.036886252524   120.25400657   187.21544698
 H      4   3   2     2.034725850012   118.45187729   136.65876952
 H      5   4   3     2.028612321034   118.28021545   176.97623958
 H      6   5   4     2.033411459948   116.84750840   149.56040767

---------------------
BASIS SET INFORMATION
---------------------
There are 2 groups of distinct atoms

 Group   1 Type C   : 10s4p contracted to 3s2p pattern {631/31}
 Group   2 Type H   : 4s contracted to 2s pattern {31}

Atom   0C    basis set group =>   1
Atom   1H    basis set group =>   2
Atom   2C    basis set group =>   1
Atom   3C    basis set group =>   1
Atom   4C    basis set group =>   1
Atom   5C    basis set group =>   1
Atom   6H    basis set group =>   2
Atom   7H    basis set group =>   2
Atom   8H    basis set group =>   2
Atom   9H    basis set group =>   2
Atom  10H    basis set group =>   2
Atom  11H    basis set group =>   2
Atom  12H    basis set group =>   2


           ************************************************************
           *        Program running with 8 parallel MPI-processes     *
           *              working on a common directory               *
           ************************************************************
------------------------------------------------------------------------------
                             ORCA STARTUP CALCULATIONS
------------------------------------------------------------------------------
------------------------------------------------------------------------------
                   ___                                                        
                  /   \      - P O W E R E D   B Y -                         
                 /     \                                                     
                 |  |  |   _    _      __       _____    __    __             
                 |  |  |  | |  | |    /  \     |  _  \  |  |  /  |          
                  \  \/   | |  | |   /    \    | | | |  |  | /  /          
                 / \  \   | |__| |  /  /\  \   | |_| |  |  |/  /          
                |  |  |   |  __  | /  /__\  \  |    /   |      \           
                |  |  |   | |  | | |   __   |  |    \   |  |\   \          
                \     /   | |  | | |  |  |  |  | |\  \  |  | \   \       
                 \___/    |_|  |_| |__|  |__|  |_| \__\ |__|  \__/        
                                                                              
                      - O R C A' S   B I G   F R I E N D -                    
                                      &                                       
                       - I N T E G R A L  F E E D E R -                       
                                                                              
 v1 FN, 2020, v2 2021, v3 2022-2024                                           
------------------------------------------------------------------------------


----------------------
SHARK INTEGRAL PACKAGE
----------------------

Number of atoms                             ...     13
Number of basis functions                   ...     61
Number of shells                            ...     41
Maximum angular momentum                    ...      1
Integral batch strategy                     ... SHARK/LIBINT Hybrid
RI-J (if used) integral strategy            ... SPLIT-RIJ (Revised 2003 algorithm where possible)
Printlevel                                  ...      1
Contraction scheme used                     ... SEGMENTED contraction
Prescreening option                         ... SCHWARTZ
   Thresh                                   ... 1.000e-10
   Tcut                                     ... 1.000e-11
   Tpresel                                  ... 1.000e-11 
Coulomb Range Separation                    ... NOT USED
Exchange Range Separation                   ... NOT USED
Multipole approximations                    ... NOT USED
Finite Nucleus Model                        ... NOT USED
CABS basis                                  ... NOT available
Auxiliary Coulomb fitting basis             ... NOT available
Auxiliary J/K fitting basis                 ... NOT available
Auxiliary Correlation fitting basis         ... NOT available
Auxiliary 'external' fitting basis          ... NOT available

Checking pre-screening integrals            ... done (  0.0 sec) Dimension = 41
   => SHARK Basis and OBASIS are compatible. Storing Pre-screening
Shell pair information
Shell pair cut-off parameter TPreSel        ...   1.0e-11
Total number of shell pairs                 ...       861
Shell pairs after pre-screening             ...       847
Total number of primitive shell pairs       ...      5382
Primitive shell pairs kept                  ...      3783
          la=0 lb=0:    482 shell pairs
          la=1 lb=0:    310 shell pairs
          la=1 lb=1:     55 shell pairs

Checking whether 4 symmetric matrices of dimension 61 fit in memory
:Max Core in MB      =   1200.00
 MB in use           =      2.05
 MB left             =   1197.95
 MB needed           =      0.06
 Data fit in memory  = YES
Calculating Nuclear repulsion               ... done (  0.0 sec) ENN=    165.092695080803 Eh

Diagonalization of the overlap matrix:
Smallest eigenvalue                        ... 3.411e-03
Time for diagonalization                   ...    0.001 sec
Threshold for overlap eigenvalues          ... 1.000e-07
Number of eigenvalues below threshold      ... 0
Time for construction of square roots      ...    0.000 sec
Total time needed                          ...    0.001 sec

-------------------
DFT GRID GENERATION
-------------------

General Integration Accuracy     IntAcc      ... 4.388
Radial Grid Type                 RadialGrid  ... OptM3 with GC (2021)
Angular Grid (max. ang.)         AngularGrid ... 4 (Lebedev-302)
Angular grid pruning method      GridPruning ... 4 (adaptive)
Weight generation scheme         WeightScheme... mBecke (2022)
Basis function cutoff            BFCut       ... 1.0000e-10
Integration weight cutoff        WCut        ... 1.0000e-14
Partially contracted basis set               ... off
Rotationally invariant grid construction     ... off
Angular grids for H and He will be reduced by one unit

Total number of grid points                  ...    55948
Total number of batches                      ...      880
Average number of points per batch           ...       63
Average number of grid points per atom       ...     4304
Grids setup in   0.2 sec
Initializing property integral containers    ... done (  0.0 sec)

SHARK setup successfully completed in   0.3 seconds

Maximum memory used throughout the entire STARTUP-calculation: 11.8 MB


           ************************************************************
           *        Program running with 8 parallel MPI-processes     *
           *              working on a common directory               *
           ************************************************************
-------------------------------------------------------------------------------
                                 ORCA GUESS
                   Start orbitals & Density for SCF / CASSCF
-------------------------------------------------------------------------------

------------
SCF SETTINGS
------------
Hamiltonian:
 Ab initio Hamiltonian  Method          .... Hartree-Fock(GTOs)


General Settings:
 Integral files         IntName         .... h-shift_046
 Hartree-Fock type      HFTyp           .... RHF
 Total Charge           Charge          ....    0
 Multiplicity           Mult            ....    1
 Number of Electrons    NEL             ....   38
 Basis Dimension        Dim             ....   61
 Nuclear Repulsion      ENuc            ....    165.0926950808 Eh

Convergence Acceleration:
 AO-DIIS                CNVDIIS         .... on
   Start iteration      DIISMaxIt       ....    12
   Startup error        DIISStart       ....  0.200000
   # of expansion vecs  DIISMaxEq       ....     5
   Bias factor          DIISBfac        ....   1.050
   Max. coefficient     DIISMaxC        ....  10.000
 MO-DIIS                CNVKDIIS        .... off
 Trust-Rad. Augm. Hess. CNVTRAH         .... auto
   Auto Start mean grad. ratio tolernc. ....  1.125000
   Auto Start start iteration           ....    50
   Auto Start num. interpolation iter.  ....    10
   Max. Number of Micro iterations      ....    24
   Max. Number of Macro iterations      .... Maxiter - #DIIS iter
   Number of Davidson start vectors     ....     2
   Converg. threshold    (grad. norm)   ....   5.000e-05
   Grad. Scal. Fac. for Micro threshold ....   0.100
   Minimum threshold for Micro iter.    ....   1.000e-02
   NR start threshold (gradient norm)   ....   1.000e-04
   Initial trust radius                 ....   0.400
   Minimum AH scaling param. (alpha)    ....   1.000
   Maximum AH scaling param. (alpha)    .... 1000.000
   Quad. conv. algorithm                .... NR
   White noise on init. David. guess    .... on
   Maximum white noise                  ....   0.010
   Pseudo random numbers                .... off
   Inactive MOs                         .... canonical
   Orbital update algorithm             .... Taylor
   Preconditioner                       .... Diag
   Full preconditioner red. dimension   ....   250
 SOSCF                 CNVSOSCF           .... on
   Start iteration     SOSCFMaxIt         ....   150
   Startup grad/error  SOSCFStart         ....  0.003300
   Hessian update      SOSCFHessUp        .... L-BFGS
   Autom. constraints  SOSCFAutoConstrain .... off
 Level Shifting         CNVShift        .... on
   Level shift para.    LevelShift      ....    0.2500
   Turn off err/grad.   ShiftErr        ....    0.0010
 Zerner damping         CNVZerner       .... off
 Static damping         CNVDamp         .... on
   Fraction old density DampFac         ....    0.7000
   Max. Damping (<1)    DampMax         ....    0.9800
   Min. Damping (>=0)   DampMin         ....    0.0000
   Turn off err/grad.   DampErr         ....    0.1000

SCF Procedure:
 Maximum # iterations   MaxIter         ....   125
 SCF integral mode      SCFMode         .... Direct
   Integral package                     .... SHARK and LIBINT hybrid scheme
 Reset frequency        DirectResetFreq ....    20
 Integral Threshold     Thresh          ....  1.000e-10 Eh
 Primitive CutOff       TCut            ....  1.000e-11 Eh

Convergence Tolerance:
 Convergence Check Mode ConvCheckMode   .... Total+1el-Energy
 Convergence forced     ConvForced      .... 0
 Energy Change          TolE            ....  1.000e-06 Eh
 1-El. energy change                    ....  1.000e-03 Eh
 Orbital Gradient       TolG            ....  5.000e-05
 Orbital Rotation angle TolX            ....  5.000e-05
 DIIS Error             TolErr          ....  1.000e-06

------------------------------
INITIAL GUESS: MODEL POTENTIAL
------------------------------
Loading Hartree-Fock densities                     ... done
Calculating cut-offs                               ... done
Initializing the effective Hamiltonian             ... done
Setting up the integral package (SHARK)            ... done
Starting the Coulomb interaction                   ... done (   0.0 sec)
Making the grid                                    ... done (   0.1 sec)
Mapping shells                                     ... done
Starting the XC term evaluation                    ... done (   0.0 sec)
Transforming the Hamiltonian                       ... done (   0.0 sec)
Diagonalizing the Hamiltonian                      ... done (   0.0 sec)
Back transforming the eigenvectors                 ... done (   0.0 sec)
Now organizing SCF variables                       ... done
                      ------------------
                      INITIAL GUESS DONE (   0.1 sec)
                      ------------------
             **** ENERGY FILE WAS UPDATED (h-shift_046.en.tmp) ****
Finished Guess after   0.3 sec
Maximum memory used throughout the entire GUESS-calculation: 4.2 MB


           ************************************************************
           *        Program running with 8 parallel MPI-processes     *
           *              working on a common directory               *
           ************************************************************

-------------------------------------------------------------------------------------------
                                      ORCA LEAN-SCF
                              memory conserving SCF solver
-------------------------------------------------------------------------------------------

----------------------------------------D-I-I-S--------------------------------------------
Iteration    Energy (Eh)           Delta-E    RMSDP     MaxDP     DIISErr   Damp  Time(sec)
-------------------------------------------------------------------------------------------
               ***  Starting incremental Fock matrix formation  ***
    1    -193.5773279040948296     0.00e+00  1.59e-02  4.74e-02  1.63e-01  0.700   0.0
    2    -193.6546937601984837    -7.74e-02  1.26e-02  3.65e-02  1.09e-01  0.700   0.1
                               ***Turning on AO-DIIS***
    3    -193.7023259308945740    -4.76e-02  7.61e-03  1.99e-02  6.74e-02  0.700   0.0
    4    -193.7323423580834856    -3.00e-02  1.81e-02  4.38e-02  4.60e-02  0.000   0.0
                              *** Initializing SOSCF ***
---------------------------------------S-O-S-C-F--------------------------------------
Iteration    Energy (Eh)           Delta-E    RMSDP     MaxDP     MaxGrad    Time(sec)
--------------------------------------------------------------------------------------
    5    -193.7971942662140350    -6.49e-02  1.67e-03  3.46e-03  1.90e-03     0.0
               *** Restarting incremental Fock matrix formation ***
    6    -193.7972954476722407    -1.01e-04  9.19e-04  2.65e-03  9.03e-04     0.0
    7    -193.7973260540111937    -3.06e-05  7.21e-04  2.01e-03  4.92e-04     0.0
    8    -193.7973357441067037    -9.69e-06  1.34e-04  3.36e-04  1.78e-04     0.0
    9    -193.7973364463799726    -7.02e-07  1.17e-04  2.67e-04  7.90e-05     0.0
                 **** Energy Check signals convergence ****

               *****************************************************
               *                     SUCCESS                       *
               *           SCF CONVERGED AFTER   9 CYCLES          *
               *****************************************************

             **** ENERGY FILE WAS UPDATED (h-shift_046.en.tmp) ****

----------------
TOTAL SCF ENERGY
----------------

Total Energy       :       -193.79733667348791 Eh           -5273.49363 eV

Components:
Nuclear Repulsion  :        165.09269508080291 Eh            4492.40062 eV
Electronic Energy  :       -358.89003175429082 Eh           -9765.89425 eV
One Electron Energy:       -586.97705579521801 Eh          -15972.45771 eV
Two Electron Energy:        228.08702404092719 Eh            6206.56346 eV

Virial components:
Potential Energy   :       -387.86514415021952 Eh          -10554.34714 eV
Kinetic Energy     :        194.06780747673164 Eh            5280.85351 eV
Virial Ratio       :          1.99860630772945

---------------
SCF CONVERGENCE
---------------

  Last Energy change         ...    7.0227e-07  Tolerance :   1.0000e-06
  Last MAX-Density change    ...    2.6744e-04  Tolerance :   1.0000e-05
  Last RMS-Density change    ...    1.1703e-04  Tolerance :   1.0000e-06
  Last DIIS Error            ...    1.8981e-03  Tolerance :   1.0000e-06
  Last Orbital Gradient      ...    7.9046e-05  Tolerance :   5.0000e-05
  Last Orbital Rotation      ...    3.3079e-04  Tolerance :   5.0000e-05


----------------
ORBITAL ENERGIES
----------------

  NO   OCC          E(Eh)            E(eV) 
   0   2.0000     -11.243679      -305.9560 
   1   2.0000     -11.243337      -305.9467 
   2   2.0000     -11.227833      -305.5249 
   3   2.0000     -11.226167      -305.4795 
   4   2.0000     -11.223950      -305.4192 
   5   2.0000      -1.121107       -30.5069 
   6   2.0000      -1.012692       -27.5568 
   7   2.0000      -0.944465       -25.7002 
   8   2.0000      -0.811114       -22.0715 
   9   2.0000      -0.728152       -19.8140 
  10   2.0000      -0.680306       -18.5121 
  11   2.0000      -0.594389       -16.1741 
  12   2.0000      -0.580967       -15.8089 
  13   2.0000      -0.568199       -15.4615 
  14   2.0000      -0.529396       -14.4056 
  15   2.0000      -0.515840       -14.0367 
  16   2.0000      -0.495196       -13.4750 
  17   2.0000      -0.351625        -9.5682 
  18   2.0000      -0.303090        -8.2475 
  19   0.0000       0.116941         3.1821 
  20   0.0000       0.182249         4.9592 
  21   0.0000       0.240517         6.5448 
  22   0.0000       0.274029         7.4567 
  23   0.0000       0.291041         7.9196 
  24   0.0000       0.325891         8.8679 
  25   0.0000       0.339163         9.2291 
  26   0.0000       0.346643         9.4326 
  27   0.0000       0.382511        10.4086 
  28   0.0000       0.396973        10.8022 
  29   0.0000       0.448019        12.1912 
*Only the first 10 virtual orbitals were printed.

                    ********************************
                    * MULLIKEN POPULATION ANALYSIS *
                    ********************************

-----------------------
MULLIKEN ATOMIC CHARGES
-----------------------
   0 C :   -0.520953
   1 H :    0.178394
   2 C :   -0.488253
   3 C :   -0.118602
   4 C :   -0.217754
   5 C :   -0.106695
   6 H :    0.163387
   7 H :    0.198761
   8 H :    0.200781
   9 H :    0.161349
  10 H :    0.185294
  11 H :    0.178280
  12 H :    0.186011
Sum of atomic charges:   -0.0000000

--------------------------------
MULLIKEN REDUCED ORBITAL CHARGES
--------------------------------
  0 C s       :     3.381235  s :     3.381235
      pz      :     1.065237  p :     3.139718
      px      :     1.080841
      py      :     0.993640

  1 H s       :     0.821606  s :     0.821606

  2 C s       :     3.364448  s :     3.364448
      pz      :     1.015955  p :     3.123805
      px      :     1.110926
      py      :     0.996924

  3 C s       :     3.200362  s :     3.200362
      pz      :     0.927890  p :     2.918239
      px      :     0.986656
      py      :     1.003693

  4 C s       :     3.199706  s :     3.199706
      pz      :     1.015285  p :     3.018047
      px      :     0.930627
      py      :     1.072136

  5 C s       :     3.198549  s :     3.198549
      pz      :     0.915031  p :     2.908146
      px      :     0.998927
      py      :     0.994189

  6 H s       :     0.836613  s :     0.836613

  7 H s       :     0.801239  s :     0.801239

  8 H s       :     0.799219  s :     0.799219

  9 H s       :     0.838651  s :     0.838651

 10 H s       :     0.814706  s :     0.814706

 11 H s       :     0.821720  s :     0.821720

 12 H s       :     0.813989  s :     0.813989



                     *******************************
                     * LOEWDIN POPULATION ANALYSIS *
                     *******************************

----------------------
LOEWDIN ATOMIC CHARGES
----------------------
   0 C :   -0.335878
   1 H :    0.180395
   2 C :   -0.324022
   3 C :   -0.099578
   4 C :   -0.166263
   5 C :   -0.095965
   6 H :    0.114643
   7 H :    0.124294
   8 H :    0.125883
   9 H :    0.113877
  10 H :    0.122047
  11 H :    0.118824
  12 H :    0.121740

-------------------------------
LOEWDIN REDUCED ORBITAL CHARGES
-------------------------------
  0 C s       :     3.003764  s :     3.003764
      pz      :     1.120805  p :     3.332114
      px      :     1.112284
      py      :     1.099025

  1 H s       :     0.819605  s :     0.819605

  2 C s       :     3.011104  s :     3.011104
      pz      :     1.090478  p :     3.312917
      px      :     1.121834
      py      :     1.100606

  3 C s       :     2.948826  s :     2.948826
      pz      :     0.972944  p :     3.150752
      px      :     1.089145
      py      :     1.088663

  4 C s       :     2.939237  s :     2.939237
      pz      :     1.078293  p :     3.227026
      px      :     1.071852
      py      :     1.076880

  5 C s       :     2.949166  s :     2.949166
      pz      :     1.025282  p :     3.146799
      px      :     1.042122
      py      :     1.079395

  6 H s       :     0.885357  s :     0.885357

  7 H s       :     0.875706  s :     0.875706

  8 H s       :     0.874117  s :     0.874117

  9 H s       :     0.886123  s :     0.886123

 10 H s       :     0.877953  s :     0.877953

 11 H s       :     0.881176  s :     0.881176

 12 H s       :     0.878260  s :     0.878260



                      *****************************
                      * MAYER POPULATION ANALYSIS *
                      *****************************

  NA   - Mulliken gross atomic population
  ZA   - Total nuclear charge
  QA   - Mulliken gross atomic charge
  VA   - Mayer's total valence
  BVA  - Mayer's bonded valence
  FA   - Mayer's free valence

  ATOM       NA         ZA         QA         VA         BVA        FA
  0 C      6.5210     6.0000    -0.5210     3.7225     3.7225    -0.0000
  1 H      0.8216     1.0000     0.1784     0.9147     0.9147     0.0000
  2 C      6.4883     6.0000    -0.4883     3.7389     3.7389    -0.0000
  3 C      6.1186     6.0000    -0.1186     3.7423     3.7423    -0.0000
  4 C      6.2178     6.0000    -0.2178     3.8227     3.8227    -0.0000
  5 C      6.1067     6.0000    -0.1067     3.7271     3.7271    -0.0000
  6 H      0.8366     1.0000     0.1634     0.9436     0.9436     0.0000
  7 H      0.8012     1.0000     0.1988     0.9112     0.9112    -0.0000
  8 H      0.7992     1.0000     0.2008     0.9127     0.9127    -0.0000
  9 H      0.8387     1.0000     0.1613     0.9441     0.9441     0.0000
 10 H      0.8147     1.0000     0.1853     0.9352     0.9352    -0.0000
 11 H      0.8217     1.0000     0.1783     0.9388     0.9388    -0.0000
 12 H      0.8140     1.0000     0.1860     0.9360     0.9360    -0.0000

  Mayer bond orders larger than 0.100000
B(  0-C ,  1-H ) :   0.5813 B(  0-C ,  3-C ) :   0.1004 B(  0-C ,  5-C ) :   1.2017 
B(  0-C ,  6-H ) :   0.9590 B(  0-C ,  7-H ) :   0.9301 B(  1-H ,  2-C ) :   0.3625 
B(  2-C ,  3-C ) :   1.4020 B(  2-C ,  5-C ) :   0.1303 B(  2-C ,  8-H ) :   0.9357 
B(  2-C ,  9-H ) :   0.9593 B(  3-C ,  4-C ) :   1.3597 B(  3-C , 10-H ) :   0.9549 
B(  4-C ,  5-C ) :   1.5209 B(  4-C , 11-H ) :   0.9586 B(  5-C , 12-H ) :   0.9546 


-------
TIMINGS
-------

Total SCF time: 0 days 0 hours 0 min 0 sec 

Total time                  ....       0.694 sec
Sum of individual times     ....       0.647 sec  ( 93.3%)

SCF preparation             ....       0.270 sec  ( 38.9%)
Fock matrix formation       ....       0.322 sec  ( 46.4%)
  Startup                   ....       0.001 sec  (  0.4% of F)
  Coulomb+Exchange Fock     ....       0.343 sec  (106.7% of F)
Diagonalization             ....       0.000 sec  (  0.0%)
Density matrix formation    ....       0.008 sec  (  1.1%)
Total Energy calculation    ....       0.005 sec  (  0.7%)
Population analysis         ....       0.005 sec  (  0.7%)
Orbital Transformation      ....       0.005 sec  (  0.7%)
Orbital Orthonormalization  ....       0.000 sec  (  0.0%)
DIIS solution               ....       0.020 sec  (  2.9%)
SOSCF solution              ....       0.013 sec  (  1.9%)
Finished LeanSCF after   0.7 sec

Maximum memory used throughout the entire LEANSCF-calculation: 6.5 MB

-------------------------   --------------------
FINAL SINGLE POINT ENERGY      -193.797336673488
-------------------------   --------------------



           ************************************************************
           *        Program running with 8 parallel MPI-processes     *
           *              working on a common directory               *
           ************************************************************

------------------------------------------------------------------------------
                              ORCA PROPERTY CALCULATIONS
------------------------------------------------------------------------------

GBWName                                 ... h-shift_046.gbw
Number of atoms                         ...     13
Number of basis functions               ...     61
Max core memory                         ...   1200 MB

Electric properties:
Dipole moment                           ... YES
Quadrupole moment                       ...  NO
Static polarizability (Dipole/Dipole)   ...  NO
Static polarizability (Dipole/Quad.)    ...  NO
Static polarizability (Quad./Quad.)     ...  NO
Static polarizability (Velocity)        ...  NO
Static hyperpolarizability              ...  NO

Atomic electric properties:
Dipole moment                           ...  NO
Quadrupole moment                       ...  NO
Static polarizability                   ...  NO

Choice of electric origin               ... Center of mass
Position of electric origin             ...     1.743256    -1.391531     2.026520

General magnetic properties:
Magnetizability                         ...  NO

EPR properties:
g-Tensor (aka g-matrix)                 ...  NO
Zero-Field splitting spin-orbit         ...  NO
Zero-field splitting spin-spin          ...  NO
Hyperfine couplings                     ...  NO (   0 nuclei)
Quadrupole couplings                    ...  NO (   0 nuclei)
Contact density                         ...  NO (   0 nuclei)

NMR properties:
Chemical shifts                         ...  NO (   0 nuclei)
Spin-rotation constants                 ...  NO (   0 nuclei)
Spin-spin couplings                     ...  NO (   0 nuclei,    0 pairs)

Choice of magnetic origin               ... GIAO
Position of magnetic origin             ...     0.000000     0.000000     0.000000

Properties with geometric perturbations:
SCF Hessian                             ...  NO
IR spectrum                             ...  NO
VCD spectrum                            ...  NO
X-ray spectroscopy properties:
SCF XES/XAS/RIXS spectra                ...  NO

SCF SOC stabilization energy            ...  NO
Diagonal Born-Oppenheimer correction    ...  NO

-------------
DIPOLE MOMENT
-------------

Method             : SCF
Type of density    : Electron Density
Multiplicity       :   1
Irrep              :   0
Energy             :  -193.7973366734879050 Eh
Basis              : AO
                                X                 Y                 Z
Electronic contribution:     -0.745750758      -1.743315489       1.662592860
Nuclear contribution   :      0.740841128       1.680300635      -1.680233308
                        -----------------------------------------
Total Dipole Moment    :     -0.004909631      -0.063014853      -0.017640449
                        -----------------------------------------
Magnitude (a.u.)       :      0.065621351
Magnitude (Debye)      :      0.166796218



--------------------
Rotational spectrum 
--------------------
 
Rotational constants in cm-1:             0.273647             0.169436             0.108485 
Rotational constants in MHz :          8203.723771          5079.570783          3252.308365 

Dipole components along the rotational axes: 
x,y,z [a.u.] :    -0.012464    -0.042301    -0.048594 
x,y,z [Debye]:    -0.031682    -0.107522    -0.123516 

 

Dipole moment calculation done in   0.0 sec 

Maximum memory used throughout the entire PROP-calculation: 2.2 MB

--------------------------------
SUGGESTED CITATIONS FOR THIS RUN
--------------------------------

Below you find a list of papers that are relevant to this ORCA run
We neither can nor want to force you to cite these papers, but we appreciate if you do
You receive ORCA, which is the product of decades of hard work by many enthusiastic individuals, for free
The only thing we kindly ask in return is that you cite our papers,
We deeply appreciate it, if you show your appreciation for ORCA by not just citing the generic ORCA reference.

Please note that relegating all ORCA citations to the supporting information does *not* help us.
SI sections are not indexed - citations you put there will not count into any citation statistics
But we need these citations in order to attract the funding resources that allow us to do what we are doing

Therefore, if you are a happy ORCA user, please consider citing a few of the papers listed below in the main body of your paper

In addition to the list printed below, the program has created the file h-shift_046.bibtex that contains the list in bibtex format
You can import this file easily into all common literature databanks and citation aid programs


List of essential papers. We consider these as the minimum necessary citations

  1. Neese, F.
     Software update: the ORCA program system, version 6.0
     WIRES Comput. Molec. Sci. 2025 15(1), e70019
     doi.org/10.1002/wcms.7019

List of papers to cite with high priority. The work reported in these papers was absolutely
necessary for this run to complete.
Our perspective: the developers of density functionals and basis sets usually get cited in chemistry papers
Good! But without the algorithms to do something with them, the functionals or basis sets would not do anything.
Hence, in our opinion, the algorithm design and method developments papers are equally worthy of getting cited

  1. Neese, F.
     The SHARK Integral Generation and Digestion System
     J. Comp. Chem. 2022 44(3), 381
     doi.org/10.1002/jcc.26942

List of suggested additional citations. These are papers that are important in the 'surrounding' of 
of this run, or papers that preceded the highly important papers. If you like your results we are grateful for a citation.

  1. Neese, F.
     The ORCA program system
     WIRES Comput. Molec. Sci. 2012 2(1), 73-78
     doi.org/10.1002/wcms.81
  2. Neese, F.
     Software update: the ORCA program system, version 4.0
     WIRES Comput. Molec. Sci. 2018 8(1), 1-6
     doi.org/10.1002/wcms.1327
  3. Neese, F.; Wennmohs, F.; Becker, U.; Riplinger, C.
     The ORCA quantum chemistry program package
     J. Chem. Phys. 2020 152(22), 224108
     doi.org/10.1063/5.0004608
  4. Neese, F.
     Software update: The ORCA program system—Version 5.0
     WIRES Comput. Molec. Sci. 2022 12(1), e1606
     doi.org/10.1002/wcms.1606

List of optional additional citations

  1. Neese, F.
     Approximate second-order SCF convergence for spin unrestricted wavefunctions
     Chem. Phys. Lett. 2000 325(1-3), 93-98
     doi.org/10.1016/s0009-2614(00)00662-x

Timings for individual modules:

Sum of individual times          ...        2.244 sec (=   0.037 min)
Startup calculation              ...        0.627 sec (=   0.010 min)  27.9 %
SCF iterations                   ...        1.248 sec (=   0.021 min)  55.6 %
Property calculations            ...        0.370 sec (=   0.006 min)  16.5 %
                             ****ORCA TERMINATED NORMALLY****
TOTAL RUN TIME: 0 days 0 hours 0 minutes 2 seconds 725 msec
