[Molden Format]
[Title]
 Molden file created by orca_2mkl for BaseName=h-shift_028

[Atoms] AU
C    1   6          0.0598646342         0.0221589286        -0.2496309326 
H    2   1          2.0206217940         0.0125685685        -0.8357672875 
C    3   6          4.8018867029         0.0361164459         2.8064984219 
C    4   6          3.8045894049        -2.1871765863         3.4324966599 
C    5   6          1.1665846343        -3.0265041179         3.1944308513 
C    6   6         -0.4534662420        -2.1784271543         1.4621283530 
H    7   1         -1.1174838801         0.0245551014        -1.9152960182 
H    8   1         -0.2481286003         1.7927680654         0.7445086331 
H    9   1          3.6979332619         1.6678703961         2.3525389614 
H   10   1          6.8099210311         0.2765576402         2.6825361670 
H   11   1          5.0813053885        -3.6580449226         4.0161310175 
H   12   1          0.6269997929        -4.6188610576         4.3410845440 
H   13   1         -2.2212993711        -3.1529740394         1.2127090697 
[GTO]
  1 0
s   6 1.0 
     3047.5249000000         0.5363343823
      457.3695100000         0.9894506076
      103.9486900000         1.5972822308
       29.2101550000         2.0791870615
        9.2866630000         1.7741742532
        3.1639270000         0.6125798260
s   3 1.0 
        7.8682724000        -0.3995563516
        1.8812885000        -0.1841552393
        0.5442493000         0.5163903794
p   3 1.0 
        7.8682724000         1.2960827175
        1.8812885000         0.9937536282
        0.5442493000         0.4959527138
s   1 1.0 
        0.1687144000         0.1876178721
p   1 1.0 
        0.1687144000         0.1541275509

  2 0
s   3 1.0 
       18.7311370000         0.2149354183
        2.8253937000         0.3645711272
        0.6401217000         0.4150514277
s   1 1.0 
        0.1612778000         0.1813806839

  3 0
s   6 1.0 
     3047.5249000000         0.5363343823
      457.3695100000         0.9894506076
      103.9486900000         1.5972822308
       29.2101550000         2.0791870615
        9.2866630000         1.7741742532
        3.1639270000         0.6125798260
s   3 1.0 
        7.8682724000        -0.3995563516
        1.8812885000        -0.1841552393
        0.5442493000         0.5163903794
p   3 1.0 
        7.8682724000         1.2960827175
        1.8812885000         0.9937536282
        0.5442493000         0.4959527138
s   1 1.0 
        0.1687144000         0.1876178721
p   1 1.0 
        0.1687144000         0.1541275509

  4 0
s   6 1.0 
     3047.5249000000         0.5363343823
      457.3695100000         0.9894506076
      103.9486900000         1.5972822308
       29.2101550000         2.0791870615
        9.2866630000         1.7741742532
        3.1639270000         0.6125798260
s   3 1.0 
        7.8682724000        -0.3995563516
        1.8812885000        -0.1841552393
        0.5442493000         0.5163903794
p   3 1.0 
        7.8682724000         1.2960827175
        1.8812885000         0.9937536282
        0.5442493000         0.4959527138
s   1 1.0 
        0.1687144000         0.1876178721
p   1 1.0 
        0.1687144000         0.1541275509

  5 0
s   6 1.0 
     3047.5249000000         0.5363343823
      457.3695100000         0.9894506076
      103.9486900000         1.5972822308
       29.2101550000         2.0791870615
        9.2866630000         1.7741742532
        3.1639270000         0.6125798260
s   3 1.0 
        7.8682724000        -0.3995563516
        1.8812885000        -0.1841552393
        0.5442493000         0.5163903794
p   3 1.0 
        7.8682724000         1.2960827175
        1.8812885000         0.9937536282
        0.5442493000         0.4959527138
s   1 1.0 
        0.1687144000         0.1876178721
p   1 1.0 
        0.1687144000         0.1541275509

  6 0
s   6 1.0 
     3047.5249000000         0.5363343823
      457.3695100000         0.9894506076
      103.9486900000         1.5972822308
       29.2101550000         2.0791870615
        9.2866630000         1.7741742532
        3.1639270000         0.6125798260
s   3 1.0 
        7.8682724000        -0.3995563516
        1.8812885000        -0.1841552393
        0.5442493000         0.5163903794
p   3 1.0 
        7.8682724000         1.2960827175
        1.8812885000         0.9937536282
        0.5442493000         0.4959527138
s   1 1.0 
        0.1687144000         0.1876178721
p   1 1.0 
        0.1687144000         0.1541275509

  7 0
s   3 1.0 
       18.7311370000         0.2149354183
        2.8253937000         0.3645711272
        0.6401217000         0.4150514277
s   1 1.0 
        0.1612778000         0.1813806839

  8 0
s   3 1.0 
       18.7311370000         0.2149354183
        2.8253937000         0.3645711272
        0.6401217000         0.4150514277
s   1 1.0 
        0.1612778000         0.1813806839

  9 0
s   3 1.0 
       18.7311370000         0.2149354183
        2.8253937000         0.3645711272
        0.6401217000         0.4150514277
s   1 1.0 
        0.1612778000         0.1813806839

 10 0
s   3 1.0 
       18.7311370000         0.2149354183
        2.8253937000         0.3645711272
        0.6401217000         0.4150514277
s   1 1.0 
        0.1612778000         0.1813806839

 11 0
s   3 1.0 
       18.7311370000         0.2149354183
        2.8253937000         0.3645711272
        0.6401217000         0.4150514277
s   1 1.0 
        0.1612778000         0.1813806839

 12 0
s   3 1.0 
       18.7311370000         0.2149354183
        2.8253937000         0.3645711272
        0.6401217000         0.4150514277
s   1 1.0 
        0.1612778000         0.1813806839

 13 0
s   3 1.0 
       18.7311370000         0.2149354183
        2.8253937000         0.3645711272
        0.6401217000         0.4150514277
s   1 1.0 
        0.1612778000         0.1813806839

[5D]
[7F]
[9G]
[MO]
 Sym=     1a
 Ene= -1.12360612979513E+01
 Spin= Alpha
 Occup= 2.000000
  1       0.007676722898
  2      -0.000039612641
  3       0.000015314791
  4       0.000130408329
  5      -0.000066241782
  6       0.001860386945
  7      -0.000351326664
  8      -0.001333799143
  9       0.000911392538
 10      -0.000194269966
 11       0.000632417791
 12       0.045485542797
 13       0.000450083247
 14       0.000091693687
 15       0.000141916397
 16      -0.000088129375
 17       0.004671835817
 18      -0.001690342286
 19      -0.001608020533
 20       0.000493826717
 21       0.833645484387
 22       0.020755158912
 23       0.000043548013
 24       0.000136817140
 25      -0.000091787194
 26      -0.014666285174
 27       0.001140859771
 28      -0.001464287102
 29       0.000857404234
 30       0.090937207405
 31       0.001226570387
 32      -0.000080747575
 33      -0.000121552408
 34       0.000064104735
 35       0.005776452838
 36       0.001391770467
 37       0.002077444934
 38      -0.001114823717
 39       0.535585589676
 40       0.013127199102
 41      -0.000064367286
 42       0.000051271152
 43      -0.000022840628
 44      -0.009190683625
 45      -0.000654816287
 46      -0.000805071258
 47       0.000155490419
 48      -0.000046564521
 49       0.000079664062
 50      -0.000096216827
 51       0.000440730269
 52      -0.000221400610
 53      -0.000376239348
 54      -0.000067077507
 55       0.000453978949
 56      -0.000218008109
 57       0.001799418324
 58      -0.000098967663
 59       0.000718986761
 60      -0.000098406679
 61       0.001469581792
 Sym=     1a
 Ene= -1.12359987445197E+01
 Spin= Alpha
 Occup= 2.000000
  1      -0.012378742985
  2       0.000006285322
  3      -0.000030243670
  4      -0.000103689116
  5      -0.000000349140
  6      -0.003129279519
  7      -0.000172638361
  8       0.001770963952
  9      -0.001092938604
 10       0.000114827440
 11       0.000107441218
 12       0.030046344881
 13       0.000318479958
 14       0.000023419767
 15       0.000116744478
 16      -0.000050518447
 17       0.002632201169
 18      -0.000844684529
 19      -0.001209196751
 20       0.000282047415
 21       0.540707204153
 22       0.013707575407
 23      -0.000173332257
 24       0.000015861490
 25      -0.000116048295
 26      -0.008965903508
 27       0.000446254444
 28      -0.000585148888
 29       0.000384906076
 30      -0.058894229547
 31      -0.000969492484
 32      -0.000200925709
 33       0.000073764853
 34      -0.000160020231
 35      -0.002643999778
 36       0.002046010411
 37      -0.001013183699
 38       0.002127629766
 39      -0.833937282647
 40      -0.020990068579
 41      -0.000250706398
 42      -0.000019963774
 43      -0.000097792868
 44       0.014681806267
 45       0.002287207675
 46       0.000692263491
 47       0.000421443150
 48       0.000073538495
 49      -0.000153020484
 50       0.000180502095
 51      -0.000781409302
 52      -0.000154161971
 53       0.000239986276
 54      -0.000048912579
 55       0.000205538763
 56      -0.000127676488
 57       0.001196011730
 58       0.000001382731
 59      -0.000474356439
 60       0.000251749157
 61      -0.001496422941
 Sym=     1a
 Ene= -1.12276812834118E+01
 Spin= Alpha
 Occup= 2.000000
  1      -0.003005385910
  2      -0.000073490263
  3       0.000018796285
  4       0.000104844567
  5      -0.000142614680
  6      -0.001705280231
  7      -0.000221355521
  8       0.000650000266
  9      -0.000309151950
 10       0.000048205288
 11       0.000172813328
 12      -0.006771663241
 13      -0.000304360297
 14       0.000153819032
 15       0.000119926853
 16      -0.000061463512
 17      -0.000869449487
 18       0.000036942094
 19      -0.000029412278
 20       0.000261034965
 21      -0.044386847954
 22      -0.001751451383
 23       0.000164512303
 24       0.000039897665
 25       0.000036434007
 26       0.006127022387
 27      -0.002873272908
 28       0.000003016238
 29      -0.000964872508
 30       0.990252961924
 31       0.025152892549
 32       0.000106899323
 33       0.000155830924
 34      -0.000275815900
 35      -0.019584290885
 36      -0.000907780958
 37      -0.002586536048
 38       0.002648646455
 39      -0.099373656899
 40      -0.003501309543
 41      -0.000195279961
 42       0.000024362179
 43      -0.000137790710
 44       0.009397243712
 45       0.003414059990
 46       0.000182789703
 47       0.001582157517
 48       0.000062287761
 49       0.000182331543
 50       0.000008763628
 51      -0.000143394329
 52      -0.000033382447
 53       0.000273904847
 54       0.000050257904
 55       0.000316425609
 56      -0.000078313114
 57       0.000354931834
 58      -0.000293486640
 59       0.001678485144
 60      -0.000016564862
 61       0.000320883059
 Sym=     1a
 Ene= -1.12209334621597E+01
 Spin= Alpha
 Occup= 2.000000
  1       0.000420907892
  2       0.000065898830
  3       0.000019686904
  4       0.000009894851
  5       0.000137587285
  6       0.000022941176
  7       0.000388298913
  8       0.000097907216
  9      -0.000967502491
 10       0.000163652859
 11      -0.001342477157
 12      -0.994626071138
 13      -0.024906905033
 14       0.000104806040
 15       0.000209935676
 16       0.000050065060
 17       0.016751038275
 18      -0.001007330097
 19      -0.001686014300
 20       0.000127376392
 21       0.055335560049
 22       0.002209995594
 23       0.000125271522
 24       0.000281873751
 25      -0.000053112059
 26      -0.006852709494
 27      -0.001172596422
 28      -0.002779526648
 29       0.000818841734
 30      -0.004350138855
 31      -0.000014635261
 32       0.000112925518
 33       0.000081930417
 34       0.000001165205
 35       0.000397781871
 36      -0.000365468477
 37      -0.000056054928
 38      -0.000097465349
 39      -0.000042573444
 40      -0.000053170207
 41       0.000041500427
 42       0.000018527706
 43       0.000013037671
 44       0.000333976632
 45       0.000023816714
 46       0.000487070250
 47      -0.000311616026
 48      -0.000044871633
 49      -0.000353646730
 50       0.000002481162
 51       0.000567892777
 52       0.000107341087
 53      -0.002728350925
 54       0.000207607570
 55      -0.002660180466
 56       0.000116160560
 57       0.000003015760
 58      -0.000038313994
 59      -0.000236012727
 60       0.000009530574
 61       0.000052608449
 Sym=     1a
 Ene= -1.12139486710976E+01
 Spin= Alpha
 Occup= 2.000000
  1       0.996092570926
  2       0.026169154711
  3       0.000004924336
  4      -0.000003226215
  5       0.000116464363
  6      -0.019245098007
  7       0.000021827345
  8       0.000725910700
  9      -0.000892552214
 10       0.000074406385
 11       0.003298367432
 12       0.000418853751
 13      -0.000048599307
 14       0.000152759167
 15      -0.000013298709
 16       0.000000504493
 17       0.000307079914
 18      -0.000890834829
 19      -0.000245216526
 20       0.000136581597
 21       0.000146357072
 22       0.000008949133
 23       0.000051329354
 24      -0.000044354241
 25       0.000043294607
 26      -0.000587475613
 27       0.000018696337
 28      -0.000403575261
 29       0.000168638964
 30       0.001545528090
 31      -0.000168057954
 32       0.000049660480
 33      -0.000089244357
 34       0.000113362629
 35       0.000685264571
 36      -0.000421835088
 37       0.000438061221
 38      -0.000616531219
 39      -0.014953651634
 40      -0.000800600514
 41      -0.000007855599
 42      -0.000105522125
 43       0.000107186504
 44       0.004071841532
 45       0.000101011632
 46       0.002194491931
 47      -0.001962281734
 48       0.000031548329
 49       0.003079412339
 50       0.000074118793
 51       0.003336630002
 52      -0.000038023854
 53      -0.000146022521
 54       0.000075655514
 55       0.000528791073
 56      -0.000023043155
 57      -0.000012576597
 58       0.000035111348
 59       0.000458165542
 60      -0.000143164752
 61       0.000023842302
 Sym=     1a
 Ene= -1.10224957206455E+00
 Spin= Alpha
 Occup= 2.000000
  1       0.069939730156
  2      -0.129367544854
  3      -0.001826438242
  4       0.032751916972
  5      -0.030255773462
  6      -0.123727874218
  7      -0.008275140669
  8       0.003886503814
  9      -0.011553367738
 10      -0.040266229740
 11      -0.000874766122
 12       0.074564455649
 13      -0.145341651179
 14       0.033945474731
 15       0.055169598715
 16      -0.011396935154
 17      -0.099298238490
 18      -0.000869079936
 19       0.002929729651
 20       0.001686139110
 21       0.109630130946
 22      -0.217251721631
 23       0.031982267193
 24      -0.027290871235
 25       0.022920279395
 26      -0.138162173133
 27       0.006281907534
 28      -0.000110878662
 29       0.003123661735
 30       0.125325211482
 31      -0.247138405780
 32       0.000200826466
 33      -0.040982701365
 34       0.050655458774
 35      -0.163118343046
 36      -0.004019524488
 37      -0.003554382330
 38       0.003696624248
 39       0.114098700933
 40      -0.226549178205
 41      -0.060740042191
 42       0.002743448287
 43      -0.035405093295
 44      -0.136219177301
 45       0.003680308933
 46       0.004223213398
 47      -0.001425235672
 48      -0.032116808565
 49      -0.005687558562
 50      -0.035683367598
 51      -0.000143282774
 52      -0.039502171119
 53      -0.006823579020
 54      -0.032603964123
 55      -0.001350078555
 56      -0.052670530864
 57      -0.008256043065
 58      -0.057886024202
 59      -0.007768166967
 60      -0.052519637841
 61      -0.004045488278
 Sym=     1a
 Ene= -1.01984602180602E+00
 Spin= Alpha
 Occup= 2.000000
  1       0.098810028562
  2      -0.188097035686
  3       0.010843754267
  4       0.031039193746
  5      -0.023659307543
  6      -0.175389387223
  7       0.003109427236
  8       0.001002459351
  9      -0.001709508574
 10      -0.052036917461
 11      -0.005210433091
 12      -0.122716809943
 13       0.240672246123
 14      -0.025733258017
 15      -0.078723741696
 16       0.022697898707
 17       0.186738616577
 18      -0.004406237500
 19      -0.003221413690
 20       0.000926716968
 21      -0.116880507656
 22       0.233412662292
 23       0.056155943170
 24       0.075709827031
 25      -0.017697065070
 26       0.162306286471
 27       0.011700685381
 28      -0.004830628574
 29       0.003710778566
 30       0.020726000315
 31      -0.041156105204
 32       0.096909691637
 33      -0.004687288506
 34       0.054054452187
 35      -0.025336315664
 36       0.013595378754
 37       0.011740203095
 38      -0.001225870447
 39       0.101283417800
 40      -0.201138628132
 41      -0.013751700008
 42      -0.021725952743
 43       0.012595097426
 44      -0.149052098287
 45      -0.003858903361
 46      -0.005701772892
 47       0.003096764188
 48      -0.058634788610
 49      -0.008818654307
 50      -0.057139896044
 51      -0.005437491717
 52       0.061971254797
 53       0.005803243582
 54       0.070420214940
 55       0.016284513850
 56       0.069665606718
 57       0.011881548446
 58      -0.010116028507
 59       0.003723881639
 60      -0.062186418378
 61      -0.016585639332
 Sym=     1a
 Ene= -9.41714888219265E-01
 Spin= Alpha
 Occup= 2.000000
  1      -0.138885252101
  2       0.260950854659
  3       0.002489939090
  4       0.021057260617
  5      -0.015510903244
  6       0.294664741489
  7       0.003686208240
  8       0.001987009182
  9       0.004071691510
 10       0.099924669388
 11       0.021948804822
 12      -0.078728228032
 13       0.153711022724
 14      -0.002447449245
 15      -0.009986923370
 16      -0.000216153016
 17       0.136459255393
 18      -0.003776482795
 19       0.001865667869
 20      -0.004541583992
 21      -0.001183602611
 22       0.001325002195
 23       0.095162681302
 24       0.088754595230
 25      -0.014987743999
 26      -0.001767311617
 27       0.019873707284
 28       0.005628334720
 29       0.001578925373
 30       0.119016726912
 31      -0.236709936545
 32       0.033753994538
 33       0.013602485829
 34       0.018915206254
 35      -0.185105304171
 36       0.001810563666
 37       0.015809206279
 38      -0.007861536594
 39       0.029514244426
 40      -0.055561324208
 41      -0.045384206735
 42       0.113850076472
 43      -0.127977153375
 44      -0.073827215880
 45      -0.010839298479
 46       0.009081096461
 47      -0.015642740423
 48       0.100919521741
 49       0.028093870424
 50       0.099709720188
 51       0.024237564612
 52       0.060678527561
 53       0.018170573822
 54       0.057136890153
 55       0.018346574097
 56      -0.003646692128
 57      -0.005336863674
 58      -0.091023957629
 59      -0.025071081363
 60      -0.020464151612
 61      -0.007320551353
 Sym=     1a
 Ene= -8.12979342336186E-01
 Spin= Alpha
 Occup= 2.000000
  1      -0.060765062039
  2       0.115419985914
  3       0.015960563110
  4       0.064957808785
  5      -0.050656008692
  6       0.146797997365
  7      -0.002978932607
  8       0.015323737053
  9      -0.017940655229
 10       0.058066837175
 11       0.022832007218
 12       0.101943956434
 13      -0.202850746911
 14      -0.041501759023
 15      -0.079108909341
 16       0.022829802732
 17      -0.190335857596
 18      -0.015302647495
 19      -0.032057428824
 20       0.009578705866
 21      -0.085936965324
 22       0.175512185862
 23      -0.077861615095
 24      -0.150947129949
 25       0.037728827636
 26       0.163103827150
 27      -0.019971261194
 28      -0.050341193749
 29       0.013385009966
 30      -0.029403022071
 31       0.061205844671
 32       0.192046987984
 33      -0.024496403243
 34       0.101377042764
 35       0.050376137042
 36       0.044434539116
 37      -0.006949010113
 38       0.024761269704
 39       0.092065923537
 40      -0.184582491560
 41       0.038508127724
 42       0.068846706117
 43      -0.046793612129
 44      -0.179282567433
 45       0.024662129448
 46       0.012352909458
 47       0.000145413249
 48       0.063625327220
 49       0.021381069190
 50       0.060518642699
 51       0.024279578205
 52      -0.108920276793
 53      -0.041802418587
 54      -0.113379602189
 55      -0.048461789307
 56       0.108930481618
 57       0.045270076953
 58       0.039016355361
 59       0.017535571279
 60      -0.108188560824
 61      -0.043616829581
 Sym=     1a
 Ene= -7.18923015050266E-01
 Spin= Alpha
 Occup= 2.000000
  1      -0.019893727993
  2       0.034142557615
  3       0.096832079263
  4       0.110982908401
  5      -0.034706694120
  6       0.059404992439
  7       0.038520890138
  8       0.040214940270
  9      -0.008680185646
 10       0.078441556857
 11       0.042612589015
 12      -0.038376861203
 13       0.076526599966
 14      -0.026321440340
 15       0.196717234548
 16      -0.064523189023
 17       0.080420910025
 18      -0.007118520728
 19       0.063796712473
 20      -0.024224527095
 21       0.069895312507
 22      -0.141838042681
 23      -0.178305596590
 24       0.024976094600
 25      -0.027481725903
 26      -0.141005969764
 27      -0.058871421378
 28       0.038299729096
 29      -0.019275360392
 30      -0.078354713864
 31       0.160146987205
 32      -0.005978219356
 33      -0.030680476919
 34       0.040791128469
 35       0.156824261423
 36       0.001977407365
 37      -0.034820272447
 38       0.034508018463
 39       0.073838329914
 40      -0.150214110651
 41       0.154878750224
 42       0.000232194713
 43       0.105270480288
 44      -0.156051149972
 45       0.067828898908
 46       0.007945309979
 47       0.040793199965
 48       0.001311685966
 49      -0.001597456532
 50       0.054451473888
 51       0.029493137983
 52       0.142337906318
 53       0.087209926479
 54       0.039778194979
 55       0.019521689455
 56      -0.140229495922
 57      -0.067516548135
 58       0.102761447493
 59       0.041779253965
 60      -0.151786343341
 61      -0.076491367505
 Sym=     1a
 Ene= -6.68325617968986E-01
 Spin= Alpha
 Occup= 2.000000
  1       0.017563837268
  2      -0.032686321225
  3       0.085989482189
  4      -0.068764220772
  5       0.113373283609
  6      -0.051670240263
  7       0.044551233457
  8      -0.023925773506
  9       0.049082715948
 10       0.015673264488
 11       0.010207819406
 12       0.021803690381
 13      -0.043335953941
 14      -0.189036167135
 15      -0.083909222758
 16       0.007242117832
 17      -0.061210490974
 18      -0.072530888133
 19      -0.020653836693
 20      -0.003775055786
 21      -0.024622080081
 22       0.052365496132
 23      -0.099264748471
 24       0.138036658091
 25      -0.081592212350
 26       0.046489378514
 27      -0.031783202417
 28       0.043657657741
 29      -0.028789903485
 30       0.021219466213
 31      -0.040777346736
 32       0.063922539141
 33       0.233305837594
 34      -0.167438870508
 35      -0.056480977190
 36       0.023838373654
 37       0.097511659596
 38      -0.068204453613
 39      -0.022969872729
 40       0.047893852303
 41       0.167965107471
 42       0.093031993522
 43       0.022044554290
 44       0.033795261343
 45       0.052225486318
 46       0.037838349671
 47      -0.001096275972
 48      -0.098732280787
 49      -0.058949217809
 50      -0.025982523043
 51      -0.015224899305
 52      -0.002344172408
 53      -0.007115293449
 54      -0.134741828118
 55      -0.084638949635
 56      -0.080067309953
 57      -0.058466092658
 58      -0.188122474883
 59      -0.113954709851
 60      -0.084142780325
 61      -0.058775776223
 Sym=     1a
 Ene= -6.01731490928705E-01
 Spin= Alpha
 Occup= 2.000000
  1       0.010983826369
  2      -0.021308916276
  3      -0.154992880072
  4      -0.027551367643
  5      -0.024445504205
  6      -0.030607132023
  7      -0.066610633879
  8      -0.014078242938
  9      -0.003067006476
 10      -0.090078006895
 11      -0.061052335406
 12      -0.007975259587
 13       0.017668015855
 14      -0.267868386235
 15       0.099457438576
 16      -0.004023110634
 17       0.031211148608
 18      -0.123022141663
 19       0.047150326695
 20       0.000543080116
 21      -0.016293618789
 22       0.037691555404
 23      -0.189618566875
 24       0.077703820237
 25      -0.002282356934
 26       0.025561948566
 27      -0.066650721813
 28       0.018962821793
 29       0.011501950290
 30       0.009758966695
 31      -0.022271469137
 32       0.162634807321
 33      -0.035650852874
 34       0.156943104585
 35       0.013292120254
 36       0.049397488112
 37       0.007266836620
 38       0.042958605321
 39       0.003328487470
 40      -0.009015819588
 41      -0.242231975083
 42       0.009056439826
 43      -0.129388567286
 44      -0.003692983994
 45      -0.109071328028
 46      -0.005351424064
 47      -0.047522822803
 48       0.058940564036
 49       0.050336779781
 50      -0.013904725767
 51      -0.004402616513
 52       0.142608723276
 53       0.091975836454
 54      -0.147511634587
 55      -0.103153108768
 56      -0.090235573885
 57      -0.072648992622
 58       0.034919442490
 59       0.034101293845
 60       0.136931941770
 61       0.094819565361
 Sym=     1a
 Ene= -5.84497380272638E-01
 Spin= Alpha
 Occup= 2.000000
  1       0.007160074282
  2      -0.008972782355
  3       0.014197224270
  4      -0.181767159285
  5       0.120819045992
  6      -0.038035236838
  7       0.009067642400
  8      -0.076017102716
  9       0.049988159720
 10      -0.015946276825
 11      -0.009074920618
 12       0.007159263971
 13      -0.019186682639
 14       0.143776183645
 15       0.282708300979
 16      -0.092907959692
 17       0.017105735622
 18       0.047630231952
 19       0.102007190644
 20      -0.036303094556
 21       0.007571255961
 22      -0.018166054628
 23      -0.128601249129
 24      -0.305972031833
 25       0.059417782697
 26       0.004662507393
 27      -0.032328754350
 28      -0.110943765267
 29       0.019945694374
 30       0.011225051257
 31      -0.022594688256
 32       0.206144265703
 33       0.049496388148
 34      -0.002653069980
 35      -0.023096739662
 36       0.084472799081
 37       0.021506621856
 38      -0.007965925490
 39      -0.023990111342
 40       0.048691133731
 41       0.019883219085
 42       0.140179877804
 43      -0.160966320457
 44       0.083542603316
 45       0.013758454517
 46       0.054235310051
 47      -0.065103900713
 48      -0.075733841668
 49      -0.055449192440
 50      -0.069394684237
 51      -0.052530575277
 52       0.099346108449
 53       0.072080354750
 54       0.109058959164
 55       0.085846092976
 56       0.093659956237
 57       0.069666095384
 58      -0.073479748915
 59      -0.050692648622
 60      -0.010598395279
 61      -0.010933719203
 Sym=     1a
 Ene= -5.67758250484151E-01
 Spin= Alpha
 Occup= 2.000000
  1      -0.000444862642
  2       0.001841803402
  3       0.135998643391
  4      -0.231120486429
  5      -0.315176820802
  6       0.000937224824
  7       0.068385121220
  8      -0.118885649366
  9      -0.158012976538
 10       0.151064276072
 11       0.119299070545
 12      -0.004121282867
 13       0.007885597049
 14      -0.022421547744
 15      -0.026141582756
 16      -0.021938311229
 17       0.011025413667
 18      -0.004442934387
 19      -0.006404716454
 20      -0.018948913713
 21       0.001461648242
 22      -0.003920602043
 23      -0.025177492286
 24       0.031167481684
 25      -0.052465476819
 26      -0.004586600477
 27      -0.011981524702
 28       0.016470283839
 29      -0.028023153486
 30      -0.003100187628
 31       0.004200488616
 32       0.033525730642
 33      -0.045223319367
 34      -0.048707339184
 35       0.019515561743
 36       0.018339983123
 37      -0.023237436166
 38      -0.039513839738
 39       0.006206859984
 40      -0.010740470228
 41       0.032699802382
 42      -0.105455694399
 43      -0.080109397193
 44      -0.029527310119
 45       0.011090576662
 46      -0.050378282021
 47      -0.044739534053
 48       0.120608463314
 49       0.092595018063
 50      -0.249967177409
 51      -0.194980995704
 52      -0.006304402579
 53      -0.015372756179
 54      -0.011032556184
 55      -0.011457965121
 56      -0.038342527035
 57      -0.027559876110
 58       0.002350576968
 59       0.004646661618
 60       0.013565821471
 61       0.011148248973
 Sym=     1a
 Ene= -5.43199047625719E-01
 Spin= Alpha
 Occup= 2.000000
  1       0.006348396435
  2      -0.016844358476
  3       0.305664098762
  4       0.070552183763
  5       0.076577957330
  6       0.009659810136
  7       0.172883726763
  8       0.031900263373
  9       0.055422999255
 10       0.182285166039
 11       0.140986916478
 12       0.013826917748
 13      -0.030435266865
 14      -0.164696947773
 15       0.068757113225
 16      -0.032523022863
 17      -0.017644097781
 18      -0.103432379435
 19       0.031347805686
 20      -0.023532173780
 21      -0.007902877046
 22       0.014732704048
 23       0.140386497011
 24      -0.087866629739
 25       0.039963474705
 26       0.013634037394
 27       0.086907585421
 28      -0.064547551664
 29       0.025829515657
 30       0.034978296124
 31      -0.077825877059
 32      -0.072670094001
 33      -0.103093042335
 34       0.022021362435
 35      -0.071277203923
 36      -0.017391931364
 37      -0.023430829267
 38      -0.006429477816
 39      -0.007948492752
 40       0.016094183404
 41      -0.104590524899
 42      -0.106051182526
 43       0.001822000036
 44       0.014413903775
 45      -0.071615293742
 46      -0.069850125880
 47       0.000303836838
 48      -0.175551685788
 49      -0.134293663137
 50       0.031509643792
 51       0.025453571372
 52       0.106577493080
 53       0.082686076458
 54      -0.124947662670
 55      -0.088534207978
 56       0.124165341145
 57       0.084680035459
 58       0.031846892514
 59       0.041196598353
 60       0.107369723591
 61       0.070178540503
 Sym=     1a
 Ene= -5.07515826658587E-01
 Spin= Alpha
 Occup= 2.000000
  1       0.017109204074
  2      -0.038010734264