
                                 *****************
                                 * O   R   C   A *
                                 *****************

                                            #,                                       
                                            ###                                      
                                            ####                                     
                                            #####                                    
                                            ######                                   
                                           ########,                                 
                                     ,,################,,,,,                         
                               ,,#################################,,                 
                          ,,##########################################,,             
                       ,#########################################, ''#####,          
                    ,#############################################,,   '####,        
                  ,##################################################,,,,####,       
                ,###########''''           ''''###############################       
              ,#####''   ,,,,##########,,,,          '''####'''          '####       
            ,##' ,,,,###########################,,,                        '##       
           ' ,,###''''                  '''############,,,                           
         ,,##''                                '''############,,,,        ,,,,,,###''
      ,#''                                            '''#######################'''  
     '                                                          ''''####''''         
             ,#######,   #######,   ,#######,      ##                                
            ,#'     '#,  ##    ##  ,#'     '#,    #''#        ,####,    ,#,          
            ##       ##  ##   ,#'  ##            #'  '#       #'       ,# #          
            ##       ##  #######   ##           ,######,      #####,      #          
            '#,     ,#'  ##    ##  '#,     ,#' ,#      #,     #,   #      #          
             '#######'   ##     ##  '#######'  #'      '#     '####' #    #          



                #########################################################
                #                        -***-                          #
                #          Department of theory and spectroscopy        #
                #                                                       #
                #                      Frank Neese                      #
                #                                                       #
                #     Directorship, Architecture, Infrastructure        #
                #                    SHARK, DRIVERS                     #
                #        Core code/Algorithms in most modules           #
                #                                                       #
                #        Max Planck Institute fuer Kohlenforschung      #
                #                Kaiser Wilhelm Platz 1                 #
                #                 D-45470 Muelheim/Ruhr                 #
                #                      Germany                          #
                #                                                       #
                #                  All rights reserved                  #
                #                        -***-                          #
                #########################################################


                         Program Version 6.1.0  -  RELEASE   -
                                (GIT: $679e74b$)
                          ($2025-06-10 18:02:51 +0200$)


 With contributions from (in alphabetic order):
[Max-Planck-Institut fuer Kohlenforschung]                               
  Daniel Aravena         : Magnetic Suceptibility                        
  Michael Atanasov       : Ab Initio Ligand Field Theory (pilot matlab implementation)
  Alexander A. Auer      : GIAO ZORA, VPT2 properties, NMR spectrum      
  Ute Becker             : All parallelization in ORCA, NUMFREQ, NUMCALC 
  Giovanni Bistoni       : ED, misc. LED, open-shell LED, HFLD           
  Dmytro Bykov           : pre 5.0 version of the SCF Hessian            
  Marcos Casanova-Páez   : Triplet and SCS-CIS(D). UHF-(DLPNO)-IP/EA/STEOM-CCSD. UHF-CVS-IP/STEOM-CCSD   
  Vijay G. Chilkuri      : MRCI spin determinant printing, contributions to CSF-ICE 
  Pauline Colinet        : FMM embedding                                 
  Dipayan Datta          : RHF DLPNO-CCSD density                        
  Achintya Kumar Dutta   : EOM-CC, STEOM-CC                              
  Nicolas Foglia         : Exact transition moments, OPA infrastructure, MCD improvements    
  Dmitry Ganyushin       : Spin-Orbit,Spin-Spin,Magnetic field MRCI      
  Miquel Garcia-Rates    : C-PCM and meta-GGA Hessian, CCSD/C-PCM, Gaussian charge scheme 
  Tiago L. C. Gouveia    : GS-ROHF, GS-ROCIS                             
  Yang Guo               : DLPNO-NEVPT2, F12-NEVPT2, CIM, IAO-localization        
  Andreas Hansen         : Spin unrestricted coupled pair/coupled cluster methods 
  Ingolf Harden          : AUTO-CI MPn and infrastructure                
  Benjamin Helmich-Paris : MC-RPA, TRAH-(SCF,CASSCF), AVAS, COSX integrals, SCF dyn. polar., MC-PDFT, srDFT 
  Lee Huntington         : MR-EOM, pCC                                   
  Robert Izsak           : Overlap fitted RIJCOSX, COSX-SCS-MP3, EOM     
  Riya Kayal             : Wick's Theorem for AUTO-CI, AUTO-CI UHF-CCSDT 
  Emily Kempfer          : AUTO-CI RHF CISDT and CCSDT, approximate NEVPT4
  Christian Kollmar      : KDIIS, OOCD, Brueckner-CCSD(T), CCSD density, CASPT2, CASPT2-K, improved NEVPT2 
  Axel Koslowski         : Symmetry handling                             
  Simone Kossmann        : meta-GGA functionals, TD-DFT gradient, OOMP2, (MP2 Hessian; deprecated post 5.0) 
  Lucas Lang             : DCDCAS, Hyperfine gauge corrections, ICE-SOC+SSC
  Marvin Lechner         : AUTO-CI (C++ implementation), FIC-MRCC        
  Spencer Leger          : CASSCF response                               
  Dagmar Lenk            : GEPOL surface, SMD, ORCA-2-JSON               
  Dimitrios Liakos       : Extrapolation schemes; Compound Job, Property file
  Dimitrios Manganas     : Further ROCIS development; embedding schemes. LFT, Crystal Embedding 
  Dimitrios Pantazis     : SARC Basis sets                               
  Anastasios Papadopoulos: AUTO-CI, single reference methods and gradients 
  Taras Petrenko         : pre 6.0 DFT Hessian and TD-DFT gradient,  ECA, NRVS 
  Petra Pikulova         : Analytic Raman intensities                    
  Peter Pinski           : DLPNO-MP2, DLPNO-MP2 Gradient                 
  Shashank Vittal Rao    : ES-AILFT, MagRelax                            
  Christoph Reimann      : Effective Core Potentials                     
  Marius Retegan         : Local ZFS, SOC                                
  Christoph Riplinger    : Optimizer, TS searches, QM/MM, DLPNO-CCSD(T), (RO)-DLPNO pert. Triples 
  Michael Roemelt        : Original ROCIS implementation, recursive CI coupling coefficients
  Masaaki Saitow         : Open-shell DLPNO-CCSD energy and density      
  Barbara Sandhoefer     : DKH picture change effects                    
  Yorick L. A. Schmerwitz: GMF and freeze-and-release deltaSCF, NEB S-IDPP initial path                    
  Kantharuban Sivalingam : CASSCF convergence/infrastructure, NEVPT2, NEVPT3, NEVPT4(SD), FIC-MRCI and CEPA variants
  Bernardo de Souza      : ESD, SOC TD-DFT                               
  Georgi L. Stoychev     : AutoAux, RI-MP2 NMR, DLPNO-MP2 response, X2C  
  Van Anh Tran           : RI-MP2 g-tensors                              
  Willem Van den Heuvel  : Paramagnetic NMR                              
  Zikuan Wang            : NOTCH, Electric field optimization            
  Frank Wennmohs         : Technical directorship and infrastructure     
  Hang Xu                : AUTO-CI-Response properties                   
                                                                         
[FACCTs GmbH]                                                            
  Markus Bursch, Nicolas Foglia, Miquel Garcia-Rates, Ingolf Harden, Hagen Neugebauer, Anastasios Papadopoulos, 
  Christoph Riplinger, Bernardo de Souza, Georgi L. Stoychev                                                    
                                                                 
  APM, various basis sets, CI-OPT, improved COSX, DLPNO-Multilevel,           
  DOCKER, DRACO, updates on ESD, Fragmentator, GOAT, IRC, LR-CPCM, L-BFGS, MBIS, meta-GGA TD-DFT gradient, ML-optimized integration grids, 
  MM, NACMEs, nearIR, NEB, NEB-TS, NL-DFT gradient (VV10), 2- and 3-layer-ONIOM, interface openCOSMO-RS, QMMM,   
  Crystal-QMMM, RESP, rigid body optimization, SF, symmetry and pop. for TD-DFT, various functionals, SOLVATOR                                   
                                                                         
[Other institutions]                                                     
  V. Asgeirsson          : NEB                                           
  Christoph Bannwarth    : sTDA-DFT, sTD-DFT, PBEh-3c, B97-3c, D3        
  Giovanni Bistoni       : ETS/NOCV, ADLD/ADEX, COVALED                  
  Martin Brehm           : Molecular dynamics                            
  Ronald Cardenas        : ETS/NOCV                                      
  Martina Colucci        : COVALED                                       
  Sebastian Ehlert       : rSCAN, r2SCAN, r2SCAN-3c, D4, dhf basis sets  
  Marvin Friede          : D4 for Fr, Ra, Ac-Lr                          
  Lars Goerigk           : TD-DFT with DH, B97 family of functionals     
  Stefan Grimme          : VdW corrections, initial TS optimization, DFT functionals, gCP, sTDA/sTD-DF 
  Waldemar Hujo          : DFT-NL                                        
  H. Jonsson             : NEB                                           
  Holger Kruse           : gCP                                           
  Marcel Mueller         : wB97X-3c, vDZP basis set                      
  Hagen Neugebauer       : wr2SCAN, Native XTB                           
  Gianluca Regni         : ADLD/ADEX                                     
  Tobias Risthaus        : pre 6.0 range-separated hybrid DFT and stability analysis
  Lukas Wittmann         : regularized MP2, r2SCAN double-hybrids, wr2SCAN        
                                                                         
We gratefully acknowledge several colleagues who have allowed us to      
interface, adapt or use parts of their codes:                            
  Ed Valeev, F. Pavosevic, A. Kumar             : LibInt (2-el integral package), F12 methods 
  Garnet Chan, S. Sharma, J. Yang, R. Olivares  : DMRG                   
  Ulf Ekstrom                                   : XCFun DFT Library      
  Mihaly Kallay                                 : mrcc  (arbitrary order and MRCC methods)
  Frank Weinhold                                : gennbo (NPA and NBO analysis)           
  Simon Mueller                                 : openCOSMO-RS                            
  Christopher J. Cramer and Donald G. Truhlar   : smd solvation model                     
  S Lehtola, MJT Oliveira, MAL Marques          : LibXC Library                           
  Liviu Ungur et al                             : ANISO software                          


 Your calculation uses the libint2 library for the computation of 2-el integrals
 For citations please refer to: http://libint.valeyev.net

 Your ORCA version has been built with support for libXC version: 7.0.0
 For citations please refer to: https://libxc.gitlab.io

 This ORCA versions uses:
   CBLAS   interface :  Fast vector & matrix operations
   LAPACKE interface :  Fast linear algebra routines
   SCALAPACK package :  Parallel linear algebra routines
   Shared memory     :  Shared parallel matrices
   BLAS/LAPACK       :  OpenBLAS 0.3.29  USE64BITINT DYNAMIC_ARCH NO_AFFINITY Zen SINGLE_THREADED
        Core in use  :  Zen
   Copyright (c) 2011-2014, The OpenBLAS Project


  ***********************************
  * Starting time: Sun Apr  5 13:01:15 2026
  * Host name:     QC1
  * Process ID:    8013
  * Working dir.:  /home/user/QC/h-shift/split_2
  ***********************************

NOTE: MaxCore=1200 MB was set to SCF,MP2,MDCI,CIPSI,MRCI,RASCI and CIS
      => If you want to overwrite this, your respective input block should be placed after the MaxCore statement
================================================================================

----- Orbital basis set information -----
Your calculation utilizes the basis: 6-31G
   H-He, Li-Ne : W. J. Hehre, R. Ditchfield and J.A. Pople, J. Chem. Phys. 56, 2257 (1972).
                 Note: He and Ne are unpublished basis sets taken from the Gaussian program.
                 Note: Li and B from J. D. Dill and J. A. Pople, J. Chem. Phys. 62, 2921 (1975).
   Na - Ar     : M. M. Francl, W. J. Pietro, W. J. Hehre, J. S. Binkley, M. S. Gordon, 
                 D. J. DeFrees and J. A. Pople, J. Chem. Phys. 77, 3654 (1982).
   K - Zn      : V. A. Rassolov, J. A. Pople, M. A. Ratner, and T. L. Windus, J. Chem. Phys. 109, 1223 (1998).

================================================================================
                                        WARNINGS
                       Please study these warnings very carefully!
================================================================================


================================================================================
                                       INPUT FILE
================================================================================
NAME = h-shift_039.inp
|  1> ! HF 6-31G
|  2> %maxcore 1200
|  3> %pal nprocs 8 end
|  4> * xyz 0 1
|  5> C    0.08215600   0.01958200  -0.05478200
|  6> H    1.14973500  -0.03725200  -0.23950300
|  7> C    2.47069800   0.03225700   1.39579500
|  8> C    1.94596800  -1.10868800   1.85501400
|  9> C    0.56334700  -1.58870100   1.75250800
| 10> C   -0.25434400  -1.16755800   0.78295000
| 11> H   -0.45913200   0.06338500  -0.98337400
| 12> H   -0.04675900   0.96102000   0.47078700
| 13> H    1.91464500   0.93748000   1.27315100
| 14> H    3.49624500   0.08207300   1.08396800
| 15> H    2.63358400  -1.87105200   2.17152500
| 16> H    0.31708800  -2.48293800   2.29831700
| 17> H   -1.09745700  -1.77165500   0.49403400
| 18> *
| 19> 
| 20>                          ****END OF INPUT****
================================================================================

                       ****************************
                       * Single Point Calculation *
                       ****************************

---------------------------------
CARTESIAN COORDINATES (ANGSTROEM)
---------------------------------
  C      0.082156    0.019582   -0.054782
  H      1.149735   -0.037252   -0.239503
  C      2.470698    0.032257    1.395795
  C      1.945968   -1.108688    1.855014
  C      0.563347   -1.588701    1.752508
  C     -0.254344   -1.167558    0.782950
  H     -0.459132    0.063385   -0.983374
  H     -0.046759    0.961020    0.470787
  H      1.914645    0.937480    1.273151
  H      3.496245    0.082073    1.083968
  H      2.633584   -1.871052    2.171525
  H      0.317088   -2.482938    2.298317
  H     -1.097457   -1.771655    0.494034

----------------------------
CARTESIAN COORDINATES (A.U.)
----------------------------
  NO LB      ZA    FRAG     MASS         X           Y           Z
   0 C     6.0000    0    12.011    0.155252    0.037005   -0.103523
   1 H     1.0000    0     1.008    2.172684   -0.070396   -0.452595
   2 C     6.0000    0    12.011    4.668943    0.060957    2.637670
   3 C     6.0000    0    12.011    3.677347   -2.095117    3.505468
   4 C     6.0000    0    12.011    1.064572   -3.002210    3.311760
   5 C     6.0000    0    12.011   -0.480641   -2.206365    1.479561
   6 H     1.0000    0     1.008   -0.867634    0.119780   -1.858308
   7 H     1.0000    0     1.008   -0.088362    1.816065    0.889658
   8 H     1.0000    0     1.008    3.618155    1.771580    2.405907
   9 H     1.0000    0     1.008    6.606946    0.155095    2.048403
  10 H     1.0000    0     1.008    4.976753   -3.535776    4.103588
  11 H     1.0000    0     1.008    0.599209   -4.692073    4.343190
  12 H     1.0000    0     1.008   -2.073893   -3.347943    0.933589

--------------------------------
INTERNAL COORDINATES (ANGSTROEM)
--------------------------------
 C      0   0   0     0.000000000000     0.00000000     0.00000000
 H      1   0   0     1.084931736395     0.00000000     0.00000000
 C      2   1   0     2.103324582002   118.93944788     0.00000000
 C      3   2   1     1.337153377846    89.56209919    63.07836953
 C      4   3   2     1.467160792090   128.68074955   326.66757327
 C      5   4   3     1.336421607613   121.61321652    24.37498463
 H      1   2   3     1.075729754268   110.50534887   174.79830508
 H      1   2   3     1.085885518289   104.16071176    58.07044337
 H      3   2   1     1.069422820625    67.18595734   295.62232018
 H      3   2   1     1.073063074099   112.07545531   186.58770402
 H      4   3   2     1.074334140327   117.09720859   133.34701855
 H      5   4   3     1.076202012510   116.87569505   187.45482240
 H      6   5   4     1.076682483945   119.80086328   156.90204899

---------------------------
INTERNAL COORDINATES (A.U.)
---------------------------
 C      0   0   0     0.000000000000     0.00000000     0.00000000
 H      1   0   0     2.050223855787     0.00000000     0.00000000
 C      2   1   0     3.974707430728   118.93944788     0.00000000
 C      3   2   1     2.526853683177    89.56209919    63.07836953
 C      4   3   2     2.772532091477   128.68074955   326.66757327
 C      5   4   3     2.525470837843   121.61321652    24.37498463
 H      1   2   3     2.032834629676   110.50534887   174.79830508
 H      1   2   3     2.052026242358   104.16071176    58.07044337
 H      3   2   1     2.020916252347    67.18595734   295.62232018
 H      3   2   1     2.027795334470   112.07545531   186.58770402
 H      4   3   2     2.030197301540   117.09720859   133.34701855
 H      5   4   3     2.033727068419   116.87569505   187.45482240
 H      6   5   4     2.034635027846   119.80086328   156.90204899

---------------------
BASIS SET INFORMATION
---------------------
There are 2 groups of distinct atoms

 Group   1 Type C   : 10s4p contracted to 3s2p pattern {631/31}
 Group   2 Type H   : 4s contracted to 2s pattern {31}

Atom   0C    basis set group =>   1
Atom   1H    basis set group =>   2
Atom   2C    basis set group =>   1
Atom   3C    basis set group =>   1
Atom   4C    basis set group =>   1
Atom   5C    basis set group =>   1
Atom   6H    basis set group =>   2
Atom   7H    basis set group =>   2
Atom   8H    basis set group =>   2
Atom   9H    basis set group =>   2
Atom  10H    basis set group =>   2
Atom  11H    basis set group =>   2
Atom  12H    basis set group =>   2


           ************************************************************
           *        Program running with 8 parallel MPI-processes     *
           *              working on a common directory               *
           ************************************************************
------------------------------------------------------------------------------
                             ORCA STARTUP CALCULATIONS
------------------------------------------------------------------------------
------------------------------------------------------------------------------
                   ___                                                        
                  /   \      - P O W E R E D   B Y -                         
                 /     \                                                     
                 |  |  |   _    _      __       _____    __    __             
                 |  |  |  | |  | |    /  \     |  _  \  |  |  /  |          
                  \  \/   | |  | |   /    \    | | | |  |  | /  /          
                 / \  \   | |__| |  /  /\  \   | |_| |  |  |/  /          
                |  |  |   |  __  | /  /__\  \  |    /   |      \           
                |  |  |   | |  | | |   __   |  |    \   |  |\   \          
                \     /   | |  | | |  |  |  |  | |\  \  |  | \   \       
                 \___/    |_|  |_| |__|  |__|  |_| \__\ |__|  \__/        
                                                                              
                      - O R C A' S   B I G   F R I E N D -                    
                                      &                                       
                       - I N T E G R A L  F E E D E R -                       
                                                                              
 v1 FN, 2020, v2 2021, v3 2022-2024                                           
------------------------------------------------------------------------------


----------------------
SHARK INTEGRAL PACKAGE
----------------------

Number of atoms                             ...     13
Number of basis functions                   ...     61
Number of shells                            ...     41
Maximum angular momentum                    ...      1
Integral batch strategy                     ... SHARK/LIBINT Hybrid
RI-J (if used) integral strategy            ... SPLIT-RIJ (Revised 2003 algorithm where possible)
Printlevel                                  ...      1
Contraction scheme used                     ... SEGMENTED contraction
Prescreening option                         ... SCHWARTZ
   Thresh                                   ... 1.000e-10
   Tcut                                     ... 1.000e-11
   Tpresel                                  ... 1.000e-11 
Coulomb Range Separation                    ... NOT USED
Exchange Range Separation                   ... NOT USED
Multipole approximations                    ... NOT USED
Finite Nucleus Model                        ... NOT USED
CABS basis                                  ... NOT available
Auxiliary Coulomb fitting basis             ... NOT available
Auxiliary J/K fitting basis                 ... NOT available
Auxiliary Correlation fitting basis         ... NOT available
Auxiliary 'external' fitting basis          ... NOT available

Checking pre-screening integrals            ... done (  0.0 sec) Dimension = 41
   => SHARK Basis and OBASIS are compatible. Storing Pre-screening
Shell pair information
Shell pair cut-off parameter TPreSel        ...   1.0e-11
Total number of shell pairs                 ...       861
Shell pairs after pre-screening             ...       847
Total number of primitive shell pairs       ...      5382
Primitive shell pairs kept                  ...      3768
          la=0 lb=0:    482 shell pairs
          la=1 lb=0:    310 shell pairs
          la=1 lb=1:     55 shell pairs

Checking whether 4 symmetric matrices of dimension 61 fit in memory
:Max Core in MB      =   1200.00
 MB in use           =      2.05
 MB left             =   1197.95
 MB needed           =      0.06
 Data fit in memory  = YES
Calculating Nuclear repulsion               ... done (  0.0 sec) ENN=    163.341366009314 Eh

Diagonalization of the overlap matrix:
Smallest eigenvalue                        ... 3.502e-03
Time for diagonalization                   ...    0.001 sec
Threshold for overlap eigenvalues          ... 1.000e-07
Number of eigenvalues below threshold      ... 0
Time for construction of square roots      ...    0.001 sec
Total time needed                          ...    0.003 sec

-------------------
DFT GRID GENERATION
-------------------

General Integration Accuracy     IntAcc      ... 4.388
Radial Grid Type                 RadialGrid  ... OptM3 with GC (2021)
Angular Grid (max. ang.)         AngularGrid ... 4 (Lebedev-302)
Angular grid pruning method      GridPruning ... 4 (adaptive)
Weight generation scheme         WeightScheme... mBecke (2022)
Basis function cutoff            BFCut       ... 1.0000e-10
Integration weight cutoff        WCut        ... 1.0000e-14
Partially contracted basis set               ... off
Rotationally invariant grid construction     ... off
Angular grids for H and He will be reduced by one unit

Total number of grid points                  ...    55997
Total number of batches                      ...      882
Average number of points per batch           ...       63
Average number of grid points per atom       ...     4307
Grids setup in   0.2 sec
Initializing property integral containers    ... done (  0.0 sec)

SHARK setup successfully completed in   0.3 seconds

Maximum memory used throughout the entire STARTUP-calculation: 11.8 MB


           ************************************************************
           *        Program running with 8 parallel MPI-processes     *
           *              working on a common directory               *
           ************************************************************
-------------------------------------------------------------------------------
                                 ORCA GUESS
                   Start orbitals & Density for SCF / CASSCF
-------------------------------------------------------------------------------

------------
SCF SETTINGS
------------
Hamiltonian:
 Ab initio Hamiltonian  Method          .... Hartree-Fock(GTOs)


General Settings:
 Integral files         IntName         .... h-shift_039
 Hartree-Fock type      HFTyp           .... RHF
 Total Charge           Charge          ....    0
 Multiplicity           Mult            ....    1
 Number of Electrons    NEL             ....   38
 Basis Dimension        Dim             ....   61
 Nuclear Repulsion      ENuc            ....    163.3413660093 Eh

Convergence Acceleration:
 AO-DIIS                CNVDIIS         .... on
   Start iteration      DIISMaxIt       ....    12
   Startup error        DIISStart       ....  0.200000
   # of expansion vecs  DIISMaxEq       ....     5
   Bias factor          DIISBfac        ....   1.050
   Max. coefficient     DIISMaxC        ....  10.000
 MO-DIIS                CNVKDIIS        .... off
 Trust-Rad. Augm. Hess. CNVTRAH         .... auto
   Auto Start mean grad. ratio tolernc. ....  1.125000
   Auto Start start iteration           ....    50
   Auto Start num. interpolation iter.  ....    10
   Max. Number of Micro iterations      ....    24
   Max. Number of Macro iterations      .... Maxiter - #DIIS iter
   Number of Davidson start vectors     ....     2
   Converg. threshold    (grad. norm)   ....   5.000e-05
   Grad. Scal. Fac. for Micro threshold ....   0.100
   Minimum threshold for Micro iter.    ....   1.000e-02
   NR start threshold (gradient norm)   ....   1.000e-04
   Initial trust radius                 ....   0.400
   Minimum AH scaling param. (alpha)    ....   1.000
   Maximum AH scaling param. (alpha)    .... 1000.000
   Quad. conv. algorithm                .... NR
   White noise on init. David. guess    .... on
   Maximum white noise                  ....   0.010
   Pseudo random numbers                .... off
   Inactive MOs                         .... canonical
   Orbital update algorithm             .... Taylor
   Preconditioner                       .... Diag
   Full preconditioner red. dimension   ....   250
 SOSCF                 CNVSOSCF           .... on
   Start iteration     SOSCFMaxIt         ....   150
   Startup grad/error  SOSCFStart         ....  0.003300
   Hessian update      SOSCFHessUp        .... L-BFGS
   Autom. constraints  SOSCFAutoConstrain .... off
 Level Shifting         CNVShift        .... on
   Level shift para.    LevelShift      ....    0.2500
   Turn off err/grad.   ShiftErr        ....    0.0010
 Zerner damping         CNVZerner       .... off
 Static damping         CNVDamp         .... on
   Fraction old density DampFac         ....    0.7000
   Max. Damping (<1)    DampMax         ....    0.9800
   Min. Damping (>=0)   DampMin         ....    0.0000
   Turn off err/grad.   DampErr         ....    0.1000

SCF Procedure:
 Maximum # iterations   MaxIter         ....   125
 SCF integral mode      SCFMode         .... Direct
   Integral package                     .... SHARK and LIBINT hybrid scheme
 Reset frequency        DirectResetFreq ....    20
 Integral Threshold     Thresh          ....  1.000e-10 Eh
 Primitive CutOff       TCut            ....  1.000e-11 Eh

Convergence Tolerance:
 Convergence Check Mode ConvCheckMode   .... Total+1el-Energy
 Convergence forced     ConvForced      .... 0
 Energy Change          TolE            ....  1.000e-06 Eh
 1-El. energy change                    ....  1.000e-03 Eh
 Orbital Gradient       TolG            ....  5.000e-05
 Orbital Rotation angle TolX            ....  5.000e-05
 DIIS Error             TolErr          ....  1.000e-06

------------------------------
INITIAL GUESS: MODEL POTENTIAL
------------------------------
Loading Hartree-Fock densities                     ... done
Calculating cut-offs                               ... done
Initializing the effective Hamiltonian             ... done
Setting up the integral package (SHARK)            ... done
Starting the Coulomb interaction                   ... done (   0.0 sec)
Making the grid                                    ... done (   0.1 sec)
Mapping shells                                     ... done
Starting the XC term evaluation                    ... done (   0.0 sec)
Transforming the Hamiltonian                       ... done (   0.0 sec)
Diagonalizing the Hamiltonian                      ... done (   0.0 sec)
Back transforming the eigenvectors                 ... done (   0.0 sec)
Now organizing SCF variables                       ... done
                      ------------------
                      INITIAL GUESS DONE (   0.1 sec)
                      ------------------
             **** ENERGY FILE WAS UPDATED (h-shift_039.en.tmp) ****
Finished Guess after   0.3 sec
Maximum memory used throughout the entire GUESS-calculation: 4.2 MB


           ************************************************************
           *        Program running with 8 parallel MPI-processes     *
           *              working on a common directory               *
           ************************************************************

-------------------------------------------------------------------------------------------
                                      ORCA LEAN-SCF
                              memory conserving SCF solver
-------------------------------------------------------------------------------------------

----------------------------------------D-I-I-S--------------------------------------------
Iteration    Energy (Eh)           Delta-E    RMSDP     MaxDP     DIISErr   Damp  Time(sec)
-------------------------------------------------------------------------------------------
               ***  Starting incremental Fock matrix formation  ***
    1    -193.6226071638113524     0.00e+00  1.58e-02  5.22e-02  1.82e-01  0.700   0.0
    2    -193.7029260411184453    -8.03e-02  1.25e-02  3.95e-02  1.18e-01  0.700   0.0
                               ***Turning on AO-DIIS***
    3    -193.7525242971674686    -4.96e-02  7.63e-03  1.99e-02  7.04e-02  0.700   0.0
    4    -193.7838670903919649    -3.13e-02  1.81e-02  4.25e-02  4.78e-02  0.000   0.0
                              *** Initializing SOSCF ***
---------------------------------------S-O-S-C-F--------------------------------------
Iteration    Energy (Eh)           Delta-E    RMSDP     MaxDP     MaxGrad    Time(sec)
--------------------------------------------------------------------------------------
    5    -193.8517593731945396    -6.79e-02  1.76e-03  2.96e-03  2.84e-03     0.0
               *** Restarting incremental Fock matrix formation ***
    6    -193.8519020486925513    -1.43e-04  9.77e-04  2.06e-03  1.67e-03     0.0
    7    -193.8519511028618183    -4.91e-05  7.07e-04  1.60e-03  7.38e-04     0.0
    8    -193.8519629018822741    -1.18e-05  9.64e-05  2.51e-04  1.54e-04     0.0
    9    -193.8519632339188377    -3.32e-07  4.08e-05  9.08e-05  4.54e-05     0.0
                 **** Energy Check signals convergence ****

               *****************************************************
               *                     SUCCESS                       *
               *           SCF CONVERGED AFTER   9 CYCLES          *
               *****************************************************

             **** ENERGY FILE WAS UPDATED (h-shift_039.en.tmp) ****

----------------
TOTAL SCF ENERGY
----------------

Total Energy       :       -193.85196332097556 Eh           -5274.98010 eV

Components:
Nuclear Repulsion  :        163.34136600931399 Eh            4444.74454 eV
Electronic Energy  :       -357.19332933028954 Eh           -9719.72463 eV
One Electron Energy:       -583.58658809434746 Eh          -15880.19840 eV
Two Electron Energy:        226.39325876405792 Eh            6160.47376 eV

Virial components:
Potential Energy   :       -388.08844058948836 Eh          -10560.42335 eV
Kinetic Energy     :        194.23647726851280 Eh            5285.44325 eV
Virial Ratio       :          1.99802038240734

---------------
SCF CONVERGENCE
---------------

  Last Energy change         ...    3.3204e-07  Tolerance :   1.0000e-06
  Last MAX-Density change    ...    9.0802e-05  Tolerance :   1.0000e-05
  Last RMS-Density change    ...    4.0835e-05  Tolerance :   1.0000e-06
  Last DIIS Error            ...    2.8445e-03  Tolerance :   1.0000e-06
  Last Orbital Gradient      ...    4.5387e-05  Tolerance :   5.0000e-05
  Last Orbital Rotation      ...    3.6287e-05  Tolerance :   5.0000e-05


----------------
ORBITAL ENERGIES
----------------

  NO   OCC          E(Eh)            E(eV) 
   0   2.0000     -11.237030      -305.7751 
   1   2.0000     -11.236871      -305.7708 
   2   2.0000     -11.229089      -305.5591 
   3   2.0000     -11.221560      -305.3542 
   4   2.0000     -11.209577      -305.0281 
   5   2.0000      -1.108873       -30.1740 
   6   2.0000      -1.016804       -27.6686 
   7   2.0000      -0.944234       -25.6939 
   8   2.0000      -0.810749       -22.0616 
   9   2.0000      -0.723623       -19.6908 
  10   2.0000      -0.671614       -18.2755 
  11   2.0000      -0.598955       -16.2984 
  12   2.0000      -0.584166       -15.8960 
  13   2.0000      -0.565448       -15.3866 
  14   2.0000      -0.547359       -14.8944 
  15   2.0000      -0.508362       -13.8332 
  16   2.0000      -0.478369       -13.0171 
  17   2.0000      -0.397982       -10.8296 
  18   2.0000      -0.309370        -8.4184 
  19   0.0000       0.130163         3.5419 
  20   0.0000       0.217342         5.9142 
  21   0.0000       0.246723         6.7137 
  22   0.0000       0.273899         7.4532 
  23   0.0000       0.291140         7.9223 
  24   0.0000       0.327256         8.9051 
  25   0.0000       0.334572         9.1042 
  26   0.0000       0.349628         9.5138 
  27   0.0000       0.370890        10.0924 
  28   0.0000       0.376935        10.2569 
  29   0.0000       0.436289        11.8720 
*Only the first 10 virtual orbitals were printed.

                    ********************************
                    * MULLIKEN POPULATION ANALYSIS *
                    ********************************

-----------------------
MULLIKEN ATOMIC CHARGES
-----------------------
   0 C :   -0.523100
   1 H :    0.192561
   2 C :   -0.380362
   3 C :   -0.159258
   4 C :   -0.197108
   5 C :   -0.139989
   6 H :    0.157379
   7 H :    0.172894
   8 H :    0.180153
   9 H :    0.165237
  10 H :    0.172821
  11 H :    0.176435
  12 H :    0.182338
Sum of atomic charges:   -0.0000000

--------------------------------
MULLIKEN REDUCED ORBITAL CHARGES
--------------------------------
  0 C s       :     3.369229  s :     3.369229
      pz      :     1.056971  p :     3.153872
      px      :     1.105970
      py      :     0.990931

  1 H s       :     0.807439  s :     0.807439

  2 C s       :     3.279988  s :     3.279988
      pz      :     1.009456  p :     3.100374
      px      :     1.082311
      py      :     1.008608

  3 C s       :     3.199994  s :     3.199994
      pz      :     0.986537  p :     2.959264
      px      :     0.970680
      py      :     1.002047

  4 C s       :     3.200755  s :     3.200755
      pz      :     1.005040  p :     2.996353
      px      :     0.929925
      py      :     1.061388

  5 C s       :     3.211179  s :     3.211179
      pz      :     0.935456  p :     2.928810
      px      :     1.017647
      py      :     0.975707

  6 H s       :     0.842621  s :     0.842621

  7 H s       :     0.827106  s :     0.827106

  8 H s       :     0.819847  s :     0.819847

  9 H s       :     0.834763  s :     0.834763

 10 H s       :     0.827179  s :     0.827179

 11 H s       :     0.823565  s :     0.823565

 12 H s       :     0.817662  s :     0.817662



                     *******************************
                     * LOEWDIN POPULATION ANALYSIS *
                     *******************************

----------------------
LOEWDIN ATOMIC CHARGES
----------------------
   0 C :   -0.325354
   1 H :    0.135780
   2 C :   -0.257413
   3 C :   -0.116335
   4 C :   -0.151234
   5 C :   -0.102362
   6 H :    0.108932
   7 H :    0.116157
   8 H :    0.119952
   9 H :    0.117510
  10 H :    0.117448
  11 H :    0.117657
  12 H :    0.119262

-------------------------------
LOEWDIN REDUCED ORBITAL CHARGES
-------------------------------
  0 C s       :     2.977242  s :     2.977242
      pz      :     1.113508  p :     3.348112
      px      :     1.144624
      py      :     1.089981

  1 H s       :     0.864220  s :     0.864220

  2 C s       :     2.991509  s :     2.991509
      pz      :     1.042014  p :     3.265905
      px      :     1.116226
      py      :     1.107664

  3 C s       :     2.945596  s :     2.945596
      pz      :     0.992118  p :     3.170739
      px      :     1.072727
      py      :     1.105894

  4 C s       :     2.943641  s :     2.943641
      pz      :     1.077599  p :     3.207592
      px      :     1.058548
      py      :     1.071445

  5 C s       :     2.953459  s :     2.953459
      pz      :     1.036135  p :     3.148902
      px      :     1.066395
      py      :     1.046373

  6 H s       :     0.891068  s :     0.891068

  7 H s       :     0.883843  s :     0.883843

  8 H s       :     0.880048  s :     0.880048

  9 H s       :     0.882490  s :     0.882490

 10 H s       :     0.882552  s :     0.882552

 11 H s       :     0.882343  s :     0.882343

 12 H s       :     0.880738  s :     0.880738



                      *****************************
                      * MAYER POPULATION ANALYSIS *
                      *****************************

  NA   - Mulliken gross atomic population
  ZA   - Total nuclear charge
  QA   - Mulliken gross atomic charge
  VA   - Mayer's total valence
  BVA  - Mayer's bonded valence
  FA   - Mayer's free valence

  ATOM       NA         ZA         QA         VA         BVA        FA
  0 C      6.5231     6.0000    -0.5231     3.7647     3.7647    -0.0000
  1 H      0.8074     1.0000     0.1926     0.9184     0.9184    -0.0000
  2 C      6.3804     6.0000    -0.3804     3.8266     3.8266    -0.0000
  3 C      6.1593     6.0000    -0.1593     3.8022     3.8022    -0.0000
  4 C      6.1971     6.0000    -0.1971     3.8125     3.8125    -0.0000
  5 C      6.1400     6.0000    -0.1400     3.7488     3.7488    -0.0000
  6 H      0.8426     1.0000     0.1574     0.9364     0.9364     0.0000
  7 H      0.8271     1.0000     0.1729     0.9215     0.9215    -0.0000
  8 H      0.8198     1.0000     0.1802     0.9327     0.9327    -0.0000
  9 H      0.8348     1.0000     0.1652     0.9413     0.9413    -0.0000
 10 H      0.8272     1.0000     0.1728     0.9364     0.9364    -0.0000
 11 H      0.8236     1.0000     0.1764     0.9389     0.9389    -0.0000
 12 H      0.8177     1.0000     0.1823     0.9379     0.9379    -0.0000

  Mayer bond orders larger than 0.100000
B(  0-C ,  1-H ) :   0.9171 B(  0-C ,  5-C ) :   0.9712 B(  0-C ,  6-H ) :   0.9615 
B(  0-C ,  7-H ) :   0.9466 B(  2-C ,  3-C ) :   1.8367 B(  2-C ,  8-H ) :   0.9603 
B(  2-C ,  9-H ) :   0.9604 B(  3-C ,  4-C ) :   1.0750 B(  3-C , 10-H ) :   0.9582 
B(  4-C ,  5-C ) :   1.8395 B(  4-C , 11-H ) :   0.9569 B(  5-C , 12-H ) :   0.9545 


-------
TIMINGS
-------

Total SCF time: 0 days 0 hours 0 min 0 sec 

Total time                  ....       0.624 sec
Sum of individual times     ....       0.581 sec  ( 93.1%)

SCF preparation             ....       0.258 sec  ( 41.4%)
Fock matrix formation       ....       0.268 sec  ( 43.0%)
  Startup                   ....       0.001 sec  (  0.6% of F)
  Coulomb+Exchange Fock     ....       0.286 sec  (106.9% of F)
Diagonalization             ....       0.000 sec  (  0.0%)
Density matrix formation    ....       0.008 sec  (  1.2%)
Total Energy calculation    ....       0.004 sec  (  0.7%)
Population analysis         ....       0.005 sec  (  0.7%)
Orbital Transformation      ....       0.004 sec  (  0.7%)
Orbital Orthonormalization  ....       0.000 sec  (  0.0%)
DIIS solution               ....       0.020 sec  (  3.2%)
SOSCF solution              ....       0.013 sec  (  2.1%)
Finished LeanSCF after   0.6 sec

Maximum memory used throughout the entire LEANSCF-calculation: 6.5 MB

-------------------------   --------------------
FINAL SINGLE POINT ENERGY      -193.851963320976
-------------------------   --------------------



           ************************************************************
           *        Program running with 8 parallel MPI-processes     *
           *              working on a common directory               *
           ************************************************************

------------------------------------------------------------------------------
                              ORCA PROPERTY CALCULATIONS
------------------------------------------------------------------------------

GBWName                                 ... h-shift_039.gbw
Number of atoms                         ...     13
Number of basis functions               ...     61
Max core memory                         ...   1200 MB

Electric properties:
Dipole moment                           ... YES
Quadrupole moment                       ...  NO
Static polarizability (Dipole/Dipole)   ...  NO
Static polarizability (Dipole/Quad.)    ...  NO
Static polarizability (Quad./Quad.)     ...  NO
Static polarizability (Velocity)        ...  NO
Static hyperpolarizability              ...  NO

Atomic electric properties:
Dipole moment                           ...  NO
Quadrupole moment                       ...  NO
Static polarizability                   ...  NO

Choice of electric origin               ... Center of mass
Position of electric origin             ...     1.823119    -1.385721     2.093441

General magnetic properties:
Magnetizability                         ...  NO

EPR properties:
g-Tensor (aka g-matrix)                 ...  NO
Zero-Field splitting spin-orbit         ...  NO
Zero-field splitting spin-spin          ...  NO
Hyperfine couplings                     ...  NO (   0 nuclei)
Quadrupole couplings                    ...  NO (   0 nuclei)
Contact density                         ...  NO (   0 nuclei)

NMR properties:
Chemical shifts                         ...  NO (   0 nuclei)
Spin-rotation constants                 ...  NO (   0 nuclei)
Spin-spin couplings                     ...  NO (   0 nuclei,    0 pairs)

Choice of magnetic origin               ... GIAO
Position of magnetic origin             ...     0.000000     0.000000     0.000000

Properties with geometric perturbations:
SCF Hessian                             ...  NO
IR spectrum                             ...  NO
VCD spectrum                            ...  NO
X-ray spectroscopy properties:
SCF XES/XAS/RIXS spectra                ...  NO

SCF SOC stabilization energy            ...  NO
Diagonal Born-Oppenheimer correction    ...  NO

-------------
DIPOLE MOMENT
-------------

Method             : SCF
Type of density    : Electron Density
Multiplicity       :   1
Irrep              :   0
Energy             :  -193.8519633209755568 Eh
Basis              : AO
                                X                 Y                 Z
Electronic contribution:     -0.184775184      -1.703590803       1.922623848
Nuclear contribution   :      0.178184361       1.639368082      -2.151713318
                        -----------------------------------------
Total Dipole Moment    :     -0.006590823      -0.064222721      -0.229089470
                        -----------------------------------------
Magnitude (a.u.)       :      0.238012567
Magnitude (Debye)      :      0.604979868



--------------------
Rotational spectrum 
--------------------
 
Rotational constants in cm-1:             0.274214             0.157799             0.103822 
Rotational constants in MHz :          8220.729001          4730.700913          3112.503279 

Dipole components along the rotational axes: 
x,y,z [a.u.] :     0.112707    -0.069083    -0.197926 
x,y,z [Debye]:     0.286479    -0.175596    -0.503087 

 

Dipole moment calculation done in   0.0 sec 

Maximum memory used throughout the entire PROP-calculation: 2.2 MB

--------------------------------
SUGGESTED CITATIONS FOR THIS RUN
--------------------------------

Below you find a list of papers that are relevant to this ORCA run
We neither can nor want to force you to cite these papers, but we appreciate if you do
You receive ORCA, which is the product of decades of hard work by many enthusiastic individuals, for free
The only thing we kindly ask in return is that you cite our papers,
We deeply appreciate it, if you show your appreciation for ORCA by not just citing the generic ORCA reference.

Please note that relegating all ORCA citations to the supporting information does *not* help us.
SI sections are not indexed - citations you put there will not count into any citation statistics
But we need these citations in order to attract the funding resources that allow us to do what we are doing

Therefore, if you are a happy ORCA user, please consider citing a few of the papers listed below in the main body of your paper

In addition to the list printed below, the program has created the file h-shift_039.bibtex that contains the list in bibtex format
You can import this file easily into all common literature databanks and citation aid programs


List of essential papers. We consider these as the minimum necessary citations

  1. Neese, F.
     Software update: the ORCA program system, version 6.0
     WIRES Comput. Molec. Sci. 2025 15(1), e70019
     doi.org/10.1002/wcms.7019

List of papers to cite with high priority. The work reported in these papers was absolutely
necessary for this run to complete.
Our perspective: the developers of density functionals and basis sets usually get cited in chemistry papers
Good! But without the algorithms to do something with them, the functionals or basis sets would not do anything.
Hence, in our opinion, the algorithm design and method developments papers are equally worthy of getting cited

  1. Neese, F.
     The SHARK Integral Generation and Digestion System
     J. Comp. Chem. 2022 44(3), 381
     doi.org/10.1002/jcc.26942

List of suggested additional citations. These are papers that are important in the 'surrounding' of 
of this run, or papers that preceded the highly important papers. If you like your results we are grateful for a citation.

  1. Neese, F.
     The ORCA program system
     WIRES Comput. Molec. Sci. 2012 2(1), 73-78
     doi.org/10.1002/wcms.81
  2. Neese, F.
     Software update: the ORCA program system, version 4.0
     WIRES Comput. Molec. Sci. 2018 8(1), 1-6
     doi.org/10.1002/wcms.1327
  3. Neese, F.; Wennmohs, F.; Becker, U.; Riplinger, C.
     The ORCA quantum chemistry program package
     J. Chem. Phys. 2020 152(22), 224108
     doi.org/10.1063/5.0004608
  4. Neese, F.
     Software update: The ORCA program system—Version 5.0
     WIRES Comput. Molec. Sci. 2022 12(1), e1606
     doi.org/10.1002/wcms.1606

List of optional additional citations

  1. Neese, F.
     Approximate second-order SCF convergence for spin unrestricted wavefunctions
     Chem. Phys. Lett. 2000 325(1-3), 93-98
     doi.org/10.1016/s0009-2614(00)00662-x

Timings for individual modules:

Sum of individual times          ...        2.210 sec (=   0.037 min)
Startup calculation              ...        0.675 sec (=   0.011 min)  30.6 %
SCF iterations                   ...        1.173 sec (=   0.020 min)  53.1 %
Property calculations            ...        0.362 sec (=   0.006 min)  16.4 %
                             ****ORCA TERMINATED NORMALLY****
TOTAL RUN TIME: 0 days 0 hours 0 minutes 2 seconds 678 msec
