[Molden Format]
[Title]
 Molden file created by orca_2mkl for BaseName=h-shift_091

[Atoms] AU
C    1   6         -0.8927085154         0.0046657338         0.0546754462 
H    2   1          4.1435930452         0.0345593115         0.0496601131 
C    3   6          4.7303208845         0.0188915922         2.0104248318 
C    4   6          3.5039245283        -2.1048903515         3.4388253528 
C    5   6          1.1979956621        -3.0369202883         3.0496400349 
C    6   6         -0.6289329827        -2.2632248351         1.1031238512 
H    7   1         -2.2501347022         0.3251802937        -1.4168372867 
H    8   1          0.1983380961         1.6124560669         0.6212493563 
H    9   1          4.2178214878         1.8385410119         2.8139174867 
H   10   1          6.7695583706        -0.1220952055         2.0736626272 
H   11   1          4.6288463705        -2.9534794309         4.9060521868 
H   12   1          0.5994211297        -4.5947746083         4.2141440807 
H   13   1         -1.8746933625        -3.7479807688         0.4816949710 
[GTO]
  1 0
s   6 1.0 
     3047.5249000000         0.5363343823
      457.3695100000         0.9894506076
      103.9486900000         1.5972822308
       29.2101550000         2.0791870615
        9.2866630000         1.7741742532
        3.1639270000         0.6125798260
s   3 1.0 
        7.8682724000        -0.3995563516
        1.8812885000        -0.1841552393
        0.5442493000         0.5163903794
p   3 1.0 
        7.8682724000         1.2960827175
        1.8812885000         0.9937536282
        0.5442493000         0.4959527138
s   1 1.0 
        0.1687144000         0.1876178721
p   1 1.0 
        0.1687144000         0.1541275509

  2 0
s   3 1.0 
       18.7311370000         0.2149354183
        2.8253937000         0.3645711272
        0.6401217000         0.4150514277
s   1 1.0 
        0.1612778000         0.1813806839

  3 0
s   6 1.0 
     3047.5249000000         0.5363343823
      457.3695100000         0.9894506076
      103.9486900000         1.5972822308
       29.2101550000         2.0791870615
        9.2866630000         1.7741742532
        3.1639270000         0.6125798260
s   3 1.0 
        7.8682724000        -0.3995563516
        1.8812885000        -0.1841552393
        0.5442493000         0.5163903794
p   3 1.0 
        7.8682724000         1.2960827175
        1.8812885000         0.9937536282
        0.5442493000         0.4959527138
s   1 1.0 
        0.1687144000         0.1876178721
p   1 1.0 
        0.1687144000         0.1541275509

  4 0
s   6 1.0 
     3047.5249000000         0.5363343823
      457.3695100000         0.9894506076
      103.9486900000         1.5972822308
       29.2101550000         2.0791870615
        9.2866630000         1.7741742532
        3.1639270000         0.6125798260
s   3 1.0 
        7.8682724000        -0.3995563516
        1.8812885000        -0.1841552393
        0.5442493000         0.5163903794
p   3 1.0 
        7.8682724000         1.2960827175
        1.8812885000         0.9937536282
        0.5442493000         0.4959527138
s   1 1.0 
        0.1687144000         0.1876178721
p   1 1.0 
        0.1687144000         0.1541275509

  5 0
s   6 1.0 
     3047.5249000000         0.5363343823
      457.3695100000         0.9894506076
      103.9486900000         1.5972822308
       29.2101550000         2.0791870615
        9.2866630000         1.7741742532
        3.1639270000         0.6125798260
s   3 1.0 
        7.8682724000        -0.3995563516
        1.8812885000        -0.1841552393
        0.5442493000         0.5163903794
p   3 1.0 
        7.8682724000         1.2960827175
        1.8812885000         0.9937536282
        0.5442493000         0.4959527138
s   1 1.0 
        0.1687144000         0.1876178721
p   1 1.0 
        0.1687144000         0.1541275509

  6 0
s   6 1.0 
     3047.5249000000         0.5363343823
      457.3695100000         0.9894506076
      103.9486900000         1.5972822308
       29.2101550000         2.0791870615
        9.2866630000         1.7741742532
        3.1639270000         0.6125798260
s   3 1.0 
        7.8682724000        -0.3995563516
        1.8812885000        -0.1841552393
        0.5442493000         0.5163903794
p   3 1.0 
        7.8682724000         1.2960827175
        1.8812885000         0.9937536282
        0.5442493000         0.4959527138
s   1 1.0 
        0.1687144000         0.1876178721
p   1 1.0 
        0.1687144000         0.1541275509

  7 0
s   3 1.0 
       18.7311370000         0.2149354183
        2.8253937000         0.3645711272
        0.6401217000         0.4150514277
s   1 1.0 
        0.1612778000         0.1813806839

  8 0
s   3 1.0 
       18.7311370000         0.2149354183
        2.8253937000         0.3645711272
        0.6401217000         0.4150514277
s   1 1.0 
        0.1612778000         0.1813806839

  9 0
s   3 1.0 
       18.7311370000         0.2149354183
        2.8253937000         0.3645711272
        0.6401217000         0.4150514277
s   1 1.0 
        0.1612778000         0.1813806839

 10 0
s   3 1.0 
       18.7311370000         0.2149354183
        2.8253937000         0.3645711272
        0.6401217000         0.4150514277
s   1 1.0 
        0.1612778000         0.1813806839

 11 0
s   3 1.0 
       18.7311370000         0.2149354183
        2.8253937000         0.3645711272
        0.6401217000         0.4150514277
s   1 1.0 
        0.1612778000         0.1813806839

 12 0
s   3 1.0 
       18.7311370000         0.2149354183
        2.8253937000         0.3645711272
        0.6401217000         0.4150514277
s   1 1.0 
        0.1612778000         0.1813806839

 13 0
s   3 1.0 
       18.7311370000         0.2149354183
        2.8253937000         0.3645711272
        0.6401217000         0.4150514277
s   1 1.0 
        0.1612778000         0.1813806839

[5D]
[7F]
[9G]
[MO]
 Sym=     1a
 Ene= -1.12360831159329E+01
 Spin= Alpha
 Occup= 2.000000
  1       0.059240740053
  2       0.000623623806
  3      -0.000002872821
  4       0.000173769465
  5      -0.000109350964
  6       0.005552576022
  7       0.000981318597
  8      -0.001992261799
  9       0.001755121131
 10      -0.000099759658
 11       0.000553233336
 12       0.000296436865
 13      -0.000011959549
 14       0.000049294643
 15       0.000043464967
 16      -0.000023008191
 17       0.000041912972
 18      -0.000028092221
 19      -0.000205946006
 20       0.000439151647
 21       0.030202981201
 22       0.000508155015
 23       0.000169445004
 24       0.000042142396
 25       0.000123624698
 26      -0.000560384522
 27      -0.000488044944
 28      -0.000408813957
 29      -0.000238089979
 30       0.046490650160
 31       0.000496234230
 32       0.000135141947
 33      -0.000068043828
 34       0.000126118639
 35       0.003937451051
 36      -0.001509458928
 37       0.001383546942
 38      -0.001819500363
 39       0.992818145081
 40       0.024857017732
 41       0.000097884383
 42       0.000162143498
 43       0.000019273198
 44      -0.017360048807
 45      -0.001451235092
 46      -0.001799597880
 47      -0.000701598196
 48      -0.000081098854
 49       0.000496009964
 50      -0.000276479292
 51      -0.000330901630
 52       0.000003478370
 53      -0.000014009342
 54       0.000001229357
 55       0.000001116074
 56       0.000041686902
 57       0.000468832156
 58      -0.000084865268
 59       0.000448406976
 60      -0.000268268414
 61       0.002052643613
 Sym=     1a
 Ene= -1.12351993262298E+01
 Spin= Alpha
 Occup= 2.000000
  1      -0.002638742538
  2      -0.000071895698
  3      -0.000028168746
  4      -0.000027960219
  5      -0.000035411353
  6       0.000211894555
  7       0.000210610158
  8       0.000133308676
  9       0.000181464781
 10      -0.000199788311
 11       0.000071221657
 12       0.016698976181
 13      -0.000001106629
 14       0.000017111832
 15       0.000162598551
 16      -0.000040143673
 17       0.003668950830
 18      -0.001271719686
 19      -0.002161547777
 20       0.000724841736
 21       0.989745999525
 22       0.024706492785
 23      -0.000139928739
 24       0.000019414798
 25      -0.000090075885
 26      -0.017182521206
 27       0.001353122190
 28      -0.000844080392
 29       0.001775636186
 30       0.105640736085
 31       0.001639390472
 32      -0.000226123970
 33      -0.000128342761
 34      -0.000003037987
 35       0.005208091378
 36       0.002435985267
 37       0.002000991768
 38      -0.000636022720
 39      -0.034959923789
 40      -0.001026850862
 41      -0.000149509827
 42       0.000029195648
 43      -0.000117968996
 44      -0.000148111654
 45      -0.000342394048
 46      -0.000233680648
 47      -0.000085126214
 48       0.000013494604
 49       0.000116125740
 50      -0.000010592185
 51      -0.000330936794
 52      -0.000197877686
 53       0.000897464214
 54      -0.000093268208
 55       0.000202558876
 56      -0.000265806216
 57       0.002082811493
 58      -0.000048534715
 59       0.000801059078
 60       0.000004579555
 61      -0.000071109501
 Sym=     1a
 Ene= -1.12274828458390E+01
 Spin= Alpha
 Occup= 2.000000
  1       0.008261747136
  2       0.000370986350
  3       0.000059281942
  4      -0.000130361528
  5       0.000154591930
  6       0.000738657734
  7       0.000205885433
  8       0.000146799319
  9      -0.000162589001
 10      -0.000066568983
 11      -0.000185498147
 12       0.003911007222
 13       0.000077083060
 14      -0.000107026231
 15      -0.000113969731
 16       0.000088781797
 17       0.001800974411
 18      -0.000562157317
 19      -0.000644601225
 20       0.000033353622
 21       0.107680044372
 22       0.003737588718
 23      -0.000226000231
 24      -0.000036998296
 25      -0.000097801975
 26      -0.009476983902
 27       0.003159685139
 28      -0.000181731083
 29       0.002090573086
 30      -0.989443030159
 31      -0.025118957565
 32      -0.000118801122
 33      -0.000172226428
 34       0.000174075454
 35       0.019542001664
 36       0.001340814680
 37       0.002687516257
 38      -0.002086763978
 39       0.042805160076
 40       0.001718839727
 41       0.000123359330
 42      -0.000035072100
 43       0.000110439246
 44      -0.005991117397
 45      -0.002533810533
 46      -0.000060085567
 47      -0.001750169638
 48      -0.000043595088
 49      -0.000327537189
 50       0.000041562308
 51      -0.000318538862
 52      -0.000046068519
 53       0.000148369102
 54      -0.000058380708
 55      -0.000100464527
 56      -0.000005819403
 57      -0.000341325165
 58       0.000296213889
 59      -0.001712642129
 60       0.000064379624
 61      -0.000341431495
 Sym=     1a
 Ene= -1.12220372821451E+01
 Spin= Alpha
 Occup= 2.000000
  1      -0.994332827123
  2      -0.024766637160
  3      -0.000060113599
  4       0.000198273781
  5      -0.000059407263
  6       0.016502646901
  7       0.000392671259
  8      -0.001670365279
  9       0.000802989238
 10       0.000149008347
 11      -0.000924602172
 12       0.000354085833
 13       0.000029549407
 14      -0.000077391879
 15       0.000011390537
 16       0.000059039316
 17      -0.000025318558
 18       0.000266040502
 19       0.000043459536
 20      -0.000658109327
 21       0.000054226505
 22      -0.000014525002
 23      -0.000037607645
 24       0.000018846126
 25      -0.000019665857
 26      -0.000001180414
 27       0.000365650952
 28       0.000367802494
 29      -0.000110198584
 30      -0.005713683280
 31      -0.000031197097
 32      -0.000065964904
 33       0.000079839541
 34      -0.000082909106
 35       0.000503827300
 36       0.000359171516
 37       0.000043227965
 38       0.000249344040
 39       0.060184572613
 40       0.002344773738
 41      -0.000040108723
 42       0.000299395155
 43      -0.000120965266
 44      -0.006837073618
 45       0.000281661601
 46      -0.002848437824
 47       0.001274736173
 48       0.000209758713
 49      -0.002657456708
 50       0.000154855727
 51      -0.002744157158
 52      -0.000035107429
 53       0.000469008298
 54      -0.000006075887
 55      -0.000185382315
 56       0.000005712061
 57       0.000004886207
 58      -0.000034464859
 59      -0.000191262083
 60       0.000114096111
 61       0.000007548830
 Sym=     1a
 Ene= -1.12162138091805E+01
 Spin= Alpha
 Occup= 2.000000
  1       0.000348474771
  2      -0.000013275468
  3      -0.000085554170
  4      -0.000000764179
  5      -0.000090320889
  6       0.000255260139
  7       0.000385645458
  8      -0.000327672127
  9       0.000539925517
 10       0.000074638747
 11       0.003189287519
 12       0.996058212980
 13       0.026109109669
 14      -0.000050593027
 15       0.000013252589
 16       0.000069389377
 17      -0.019225491379
 18       0.000605884269
 19       0.000724851543
 20      -0.000638628659
 21      -0.017190809205
 22      -0.000866868209
 23      -0.000085158763
 24      -0.000116939773
 25       0.000085242468
 26       0.004064517277
 27       0.001635500486
 28       0.002274069629
 29      -0.001345863129
 30       0.002100098592
 31      -0.000133437512
 32      -0.000131302944
 33      -0.000099910517
 34       0.000029516570
 35       0.000568885371
 36       0.000829102480
 37       0.000370593467
 38       0.000141355724
 39       0.000111367260
 40       0.000026485337
 41      -0.000049898540
 42      -0.000036106039
 43      -0.000012678359
 44      -0.000395213215
 45      -0.000076419624
 46      -0.000451740761
 47       0.000188331601
 48       0.000042399640
 49       0.000433798771
 50      -0.000053925374
 51       0.000032009564
 52       0.000069359563
 53       0.003298862376
 54       0.000046284732
 55       0.003137930933
 56      -0.000121528483
 57       0.000096599591
 58       0.000027762393
 59       0.000414716008
 60      -0.000029428070
 61      -0.000030716674
 Sym=     1a
 Ene= -1.09883009962385E+00
 Spin= Alpha
 Occup= 2.000000
  1      -0.075949782387
  2       0.148548622137
  3       0.014030546417
  4      -0.057668655239
  5       0.031993965176
  6       0.100920416592
  7       0.000005552861
  8      -0.003221196878
  9      -0.000913239516
 10       0.037276226937
 11       0.002045030974
 12      -0.067235810101
 13       0.125197088959
 14      -0.024787518755
 15      -0.031070242907
 16       0.016925853980
 17       0.118159179687
 18      -0.010981795488
 19      -0.003518559796
 20       0.001114165401
 21      -0.113436122369
 22       0.225281986017
 23      -0.061426254696
 24      -0.007413741875
 25      -0.027956377776
 26       0.137570325853
 27       0.000138019333
 28      -0.004486398788
 29       0.004842906675
 30      -0.126381127045
 31       0.249446938874
 32       0.035788709082
 33       0.041884896942
 34      -0.023381928201
 35       0.164163784077
 36      -0.000584449997
 37       0.004172441546
 38      -0.004876300221
 39      -0.111179766891
 40       0.220748332168
 41       0.032723795992
 42       0.031463607222
 43       0.014853711556
 44       0.139726932012
 45       0.005155480225
 46      -0.000309256718
 47       0.003555423646
 48       0.033432198689
 49       0.001989140966
 50       0.039730802045
 51       0.007267769028
 52       0.034001648416
 53       0.000316291339
 54       0.031661711239
 55       0.004536772174
 56       0.053402386109
 57       0.004441340344
 58       0.059917866906
 59       0.008855372592
 60       0.053520193981
 61       0.008239994270
 Sym=     1a
 Ene= -1.02232064182003E+00
 Spin= Alpha
 Occup= 2.000000
  1      -0.120631391695
  2       0.236849023349
  3       0.002318379623
  4      -0.078618152484
  5       0.031797308427
  6       0.181928839098
  7       0.002082137748
  8      -0.002931100917
  9       0.003753045384
 10      -0.054987338607
 11      -0.005627311908
 12       0.101167457791
 13      -0.192202516483
 14       0.014321675158
 15       0.029775459400
 16      -0.022529881336
 17      -0.180326222648
 18      -0.000549395353
 19       0.000923393648
 20      -0.003305473181
 21       0.102262659458
 22      -0.202978885575
 23      -0.005000765329
 24      -0.020233005069
 25       0.018483024273
 26      -0.147442092546
 27      -0.002324237355
 28      -0.006025973655
 29       0.004627693986
 30       0.021024260860
 31      -0.041860172324
 32      -0.100950549276
 33      -0.008036989722
 34      -0.048207797231
 35      -0.026981270884
 36      -0.008657064714
 37       0.011300625836
 38      -0.013064267045
 39      -0.115022292574
 40       0.229691534883
 41      -0.025992280574
 42       0.077324419966
 43      -0.047224189525
 44       0.158487587339
 45      -0.011256801754
 46      -0.004097397899
 47      -0.006309593102
 48       0.068568345041
 49       0.015591679491
 50       0.061351154505
 51       0.006236545782
 52      -0.058639375536
 53      -0.005682743904
 54      -0.060115809248
 55      -0.008721472912
 56      -0.063044372400
 57      -0.016512587775
 58      -0.010311822459
 59       0.003770740209
 60       0.067683657664
 61       0.011148145174
 Sym=     1a
 Ene= -9.40817675744704E-01
 Spin= Alpha
 Occup= 2.000000
  1       0.079645797759
  2      -0.156269985228
  3       0.000908395302
  4       0.015111584868
  5      -0.002070321650
  6      -0.135658070652
  7      -0.004050954981
  8      -0.002021436166
  9       0.000029766566
 10      -0.098113651890
 11      -0.022879981270
 12       0.139102799348
 13      -0.262150998465
 14      -0.015298727828
 15      -0.019618297325
 16       0.008076392222
 17      -0.293091157133
 18       0.002632101906
 19      -0.002147064257
 20      -0.001140551782
 21      -0.029894392486
 22       0.056204739401
 23      -0.134034112539
 24      -0.114782222428
 25       0.036036514658
 26       0.074496561801
 27      -0.019387163060
 28      -0.010431612730
 29       0.000190819750
 30      -0.118194741799
 31       0.235156290139
 32       0.036455532823
 33      -0.010516362787
 34       0.024100493103
 35       0.182791414020
 36      -0.005590950347
 37      -0.015127825914
 38       0.007660808464
 39       0.006134404687
 40      -0.011023861498
 41       0.052764484079
 42      -0.088177226934
 43       0.081484335794
 44      -0.007655704123
 45       0.014143897724
 46      -0.006053918003
 47       0.014234025589
 48      -0.058157437010
 49      -0.018719333946
 50      -0.057989906523
 51      -0.016118603222
 52      -0.099843112023
 53      -0.024700496441
 54      -0.101805493923
 55      -0.027936987917
 56       0.020646252670
 57       0.007344871493
 58       0.091195896132
 59       0.025392780562
 60      -0.000601472962
 61       0.003720562713
 Sym=     1a
 Ene= -8.14864004999456E-01
 Spin= Alpha
 Occup= 2.000000
  1       0.102407376908
  2      -0.203971205764
  3       0.012684987621
  4      -0.081107600565
  5       0.041025233726
  6      -0.190211817403
  7       0.004671624186
  8      -0.031877927547
  9       0.015595054272
 10       0.059808175329
 11       0.023380300597
 12      -0.058619501945
 13       0.110833329159
 14       0.034870930286
 15       0.062357714307
 16      -0.044420822529
 17       0.144556197737
 18       0.015193179155
 19       0.014073745820
 20      -0.008090063480
 21       0.091374524614
 22      -0.182588325950
 23       0.018063381495
 24       0.063189142867
 25      -0.059174196069
 26      -0.177075156271
 27      -0.013331078743
 28       0.007906400351
 29      -0.018812043249
 30      -0.031411220400
 31       0.065636042990
 32      -0.194621613977
 33      -0.033386548764
 34      -0.097181184972
 35       0.054882824361
 36      -0.047246768317
 37      -0.008474064994
 38      -0.023415157130
 39      -0.086393456081
 40       0.176467800601
 41       0.025180008757
 42      -0.152251343144
 43       0.083549638023
 44       0.162328034434
 45       0.002269803561
 46      -0.050423290221
 47       0.022246451321
 48      -0.113217597392
 49      -0.048353342999
 50      -0.109761358064
 51      -0.043550263632
 52       0.058860312474
 53       0.023654555169
 54       0.059930432596
 55       0.020394389923
 56      -0.106172728861
 57      -0.043756992856
 58       0.041621551374
 59       0.018895449039
 60       0.108604960212
 61       0.044576811190
 Sym=     1a
 Ene= -7.15651394516682E-01
 Spin= Alpha
 Occup= 2.000000
  1       0.040087131911
  2      -0.080608824365
  3      -0.058296051260
  4      -0.198828556942
  5       0.012906365604
  6      -0.081567824066
  7      -0.017216589970
  8      -0.066172031162
  9       0.007789267806
 10      -0.080804781165
 11      -0.045029081357
 12       0.023040509893
 13      -0.041395965108
 14       0.012359182935
 15      -0.108301174309
 16       0.104756803507
 17      -0.066357553943
 18       0.006722822523
 19      -0.038631969519
 20       0.037289121432
 21      -0.073523642221
 22       0.149684410883
 23       0.168411299783
 24       0.006486793874
 25       0.079537048687
 26       0.152651191804
 27       0.073076083430
 28      -0.003082988409
 29       0.038456305090
 30       0.077482257135
 31      -0.158603917689
 32       0.030128736477
 33       0.028781280914
 34      -0.026183576235
 35      -0.151606209891
 36       0.031791125099
 37       0.034797825950
 38      -0.017511300002
 39      -0.069716819087
 40       0.141976449901
 41      -0.137266432448
 42      -0.029970835055
 43      -0.120888485478
 44       0.140498177598
 45      -0.055071575593
 46      -0.042577390392
 47      -0.033682585932
 48      -0.042333285327
 49      -0.020309429878
 50      -0.142160280170
 51      -0.087184475395
 52      -0.053197061847
 53      -0.029698475444
 54      -0.006686673276
 55      -0.000328725027
 56       0.152078824863
 57       0.076919057461
 58      -0.100414256134
 59      -0.040865130706
 60       0.143376072463
 61       0.068758791953
 Sym=     1a
 Ene= -6.66227897870711E-01
 Spin= Alpha
 Occup= 2.000000
  1      -0.021390560641
  2       0.042439376757
  3      -0.133057810565
  4       0.090695099087
  5      -0.142932189316
  6       0.061162998016
  7      -0.056365597591
  8       0.022861441799
  9      -0.051672393817
 10      -0.016354611214
 11      -0.010167308152
 12      -0.015660777179
 13       0.028105335859
 14       0.136660288822
 15       0.065543548545
 16       0.009738406504
 17       0.048738133466
 18       0.061606066597
 19       0.022607251731
 20       0.011482324205
 21       0.024246815852
 22      -0.051113535362
 23       0.104223896103
 24      -0.085228161579
 25       0.133457390324
 26      -0.036908579592
 27       0.023741428577
 28      -0.037107855707
 29       0.044861200136
 30      -0.019843073906
 31       0.038264154736
 32      -0.091203718483
 33      -0.231183778210
 34       0.155294129202
 35       0.048455848862
 36      -0.040095979241
 37      -0.097051547405
 38       0.062349098639
 39       0.025743410362
 40      -0.055458500932
 41      -0.124931839096
 42      -0.144319543940
 43      -0.027355315369
 44      -0.047450066542
 45      -0.040821836161
 46      -0.045273970514
 47      -0.006465003598
 48       0.139825371422
 49       0.087635895402
 50      -0.001071002421
 51       0.004375021645
 52       0.030081588092
 53       0.017101561483
 54       0.091244294941
 55       0.055529632694
 56       0.081510819881
 57       0.058073027957
 58       0.187228216549
 59       0.114358676248
 60       0.081277545735
 61       0.060012145304
 Sym=     1a
 Ene= -6.05462345299925E-01
 Spin= Alpha
 Occup= 2.000000
  1      -0.006682182345
  2       0.014614650905
  3       0.179876068301
  4       0.104315804923
  5       0.173729721329
  6       0.028001005792
  7       0.079790515697
  8       0.046862284480
  9       0.081690761076
 10      -0.108638258771
 11      -0.072768484143
 12       0.009895332413
 13      -0.018535592556
 14       0.103015303189
 15      -0.031175047982
 16       0.145923140179
 17      -0.031581122334
 18       0.041567435099
 19      -0.013893473503
 20       0.068271088287
 21       0.003413734847
 22      -0.009731656017
 23       0.239418147184
 24       0.037058136111
 25       0.133091494617
 26       0.002106270465
 27       0.094109315023
 28       0.008640667753
 29       0.061790942812
 30       0.009851346943
 31      -0.021725601615
 32      -0.229140569096
 33      -0.040783866598
 34      -0.047771988469
 35       0.007205027475
 36      -0.067573492946
 37       0.001733954878
 38      -0.014092827436
 39      -0.013341281027
 40       0.030866170388
 41       0.127844824709
 42       0.057261054992
 43       0.149044395288
 44       0.022505326576
 45       0.038473371375
 46       0.012548214087
 47       0.058797350731
 48      -0.133618121299
 49      -0.092505965922
 50       0.141402874109
 51       0.091503879079
 52      -0.004285304986
 53       0.001505645823
 54       0.060172658441
 55       0.049446619213
 56       0.130659746059
 57       0.091713739370
 58       0.033598451838
 59       0.030813734400
 60      -0.086596834948
 61      -0.068543146072
 Sym=     1a
 Ene= -5.85145987493334E-01
 Spin= Alpha
 Occup= 2.000000
  1      -0.007256377274
  2       0.019442593875
  3       0.048394334227
  4      -0.284132552557
  5       0.158415917104
  6      -0.016649875496
  7       0.013341699961
  8      -0.101339854143
  9       0.056057171242
 10       0.017675486886
 11       0.010122765488
 12      -0.005845813031
 13       0.005963807999
 14       0.120195492065
 15       0.179182020925
 16      -0.058851708125
 17       0.036257031211
 18       0.051326154656
 19       0.075264528951
 20      -0.021715083729
 21       0.024925134468
 22      -0.051023879352
 23      -0.107465741732
 24      -0.142317512030
 25       0.122318318582
 26      -0.085782128482
 27      -0.040274950891
 28      -0.056422973695
 29       0.055467761114
 30      -0.009087651453
 31       0.017631927105
 32       0.102543518507
 33      -0.043671973859
 34       0.168032072844
 35       0.018253934513
 36       0.037445386117
 37      -0.017298719977
 38       0.072822976846
 39      -0.008226470937
 40       0.019424796521
 41      -0.039120331553
 42       0.308361891430
 43      -0.119836399713
 44      -0.003245505884
 45      -0.006148866961
 46       0.111225522232
 47      -0.031667555955
 48      -0.115900059377
 49      -0.091202784196
 50      -0.090997655664
 51      -0.066819797702
 52       0.071770524804
 53       0.053843869831
 54       0.073535980615
 55       0.054495593072
 56       0.024968322116
 57       0.021017118335
 58       0.073666994264
 59       0.051599525492
 60      -0.097355644480
 61      -0.072867523227
 Sym=     1a
 Ene= -5.67011825770334E-01
 Spin= Alpha
 Occup= 2.000000
  1      -0.005438873003
  2       0.011222676261
  3       0.030878982163
  4      -0.020650267887
  5       0.010873106564
  6       0.014755255921
  7       0.016063110386
  8      -0.003779949807
  9      -0.003035181323
 10       0.130035195547
 11       0.100777020238
 12      -0.000453267449
 13       0.001793703837
 14       0.197010240510
 15      -0.258163547125
 16      -0.261478315508
 17       0.000486979837
 18       0.097036165237
 19      -0.132037183881
 20      -0.133138631519
 21       0.005559051893
 22      -0.009094067707
 23       0.059578931216
 24      -0.099176152013
 25      -0.064183748151
 26      -0.031866774531
 27       0.038334472940
 28      -0.046407808622
 29      -0.029471538544
 30      -0.003004356422
 31       0.003693695257
 32       0.014361715582
 33      -0.047581511693
 34      -0.049643529569
 35       0.024206189155
 36       0.023001338107
 37      -0.021790271235
 38      -0.033540029072
 39       0.000468075033
 40      -0.001083509171
 41       0.049608225429
 42       0.036527584774
 43      -0.007355760524
 44      -0.002154855755
 45       0.023422120832
 46       0.015851450362
 47      -0.004054525931
 48      -0.014244212613
 49      -0.013274950137
 50       0.000056554608
 51      -0.009997967553
 52      -0.255005127106
 53      -0.198731099580
 54       0.139901146563
 55       0.109462509583
 56       0.012657420437
 57       0.011055693772
 58       0.005353174328
 59       0.007711119754
 60      -0.037879962651
 61      -0.028633107185
 Sym=     1a
 Ene= -5.39276267489638E-01
 Spin= Alpha
 Occup= 2.000000
  1      -0.009668661570
  2       0.021667100508
  3      -0.149652617971
  4      -0.077423110535
  5      -0.106029552935
  6       0.006533392005
  7      -0.094041856165
  8      -0.036499559890
  9      -0.063675039743
 10      -0.188725107292
 11      -0.147920036661
 12      -0.005270116217
 13       0.013301158967
 14       0.221514583229
 15      -0.056938771382
 16       0.221445057454
 17      -0.004208846066
 18       0.133734849283
 19      -0.025877431793
 20       0.120175665183
 21       0.007756842810
 22      -0.015104395087
 23      -0.068991613656
 24       0.087152895607
 25      -0.099291028477
 26      -0.017499435750
 27      -0.042421500569
 28       0.056168257395
 29      -0.064010073398
 30      -0.035537279104
 31       0.079579738220
 32      -0.009268153816
 33       0.102687241706
 34      -0.074382415384
 35       0.073049502215
 36      -0.011635857453
 37       0.023761607576
 38      -0.013437883296
 39       0.007906598788
 40      -0.014314394011
 41       0.106573275326
 42       0.085389802763
 43       0.076510000686
 44      -0.017089668391
 45       0.069731174648
 46       0.063242369041
 47       0.046752548759
 48       0.128215610191
 49       0.092280849708
 50      -0.120687237830
 51      -0.092053475360
 52      -0.010038200241
 53      -0.010881765575
 54       0.169035809344
 55       0.131093010476
 56      -0.111159323402
 57      -0.076945310829
 58      -0.036265978789
 59      -0.045726669599
 60      -0.116445364096
 61      -0.079388400643
 Sym=     1a
 Ene= -5.06792834306235E-01
 Spin= Alpha
 Occup= 2.000000
  1       0.011979896996
  2      -0.027233669995