
                                 *****************
                                 * O   R   C   A *
                                 *****************

                                            #,                                       
                                            ###                                      
                                            ####                                     
                                            #####                                    
                                            ######                                   
                                           ########,                                 
                                     ,,################,,,,,                         
                               ,,#################################,,                 
                          ,,##########################################,,             
                       ,#########################################, ''#####,          
                    ,#############################################,,   '####,        
                  ,##################################################,,,,####,       
                ,###########''''           ''''###############################       
              ,#####''   ,,,,##########,,,,          '''####'''          '####       
            ,##' ,,,,###########################,,,                        '##       
           ' ,,###''''                  '''############,,,                           
         ,,##''                                '''############,,,,        ,,,,,,###''
      ,#''                                            '''#######################'''  
     '                                                          ''''####''''         
             ,#######,   #######,   ,#######,      ##                                
            ,#'     '#,  ##    ##  ,#'     '#,    #''#        ,####,    ,#,          
            ##       ##  ##   ,#'  ##            #'  '#       #'       ,# #          
            ##       ##  #######   ##           ,######,      #####,      #          
            '#,     ,#'  ##    ##  '#,     ,#' ,#      #,     #,   #      #          
             '#######'   ##     ##  '#######'  #'      '#     '####' #    #          



                #########################################################
                #                        -***-                          #
                #          Department of theory and spectroscopy        #
                #                                                       #
                #                      Frank Neese                      #
                #                                                       #
                #     Directorship, Architecture, Infrastructure        #
                #                    SHARK, DRIVERS                     #
                #        Core code/Algorithms in most modules           #
                #                                                       #
                #        Max Planck Institute fuer Kohlenforschung      #
                #                Kaiser Wilhelm Platz 1                 #
                #                 D-45470 Muelheim/Ruhr                 #
                #                      Germany                          #
                #                                                       #
                #                  All rights reserved                  #
                #                        -***-                          #
                #########################################################


                         Program Version 6.1.0  -  RELEASE   -
                                (GIT: $679e74b$)
                          ($2025-06-10 18:02:51 +0200$)


 With contributions from (in alphabetic order):
[Max-Planck-Institut fuer Kohlenforschung]                               
  Daniel Aravena         : Magnetic Suceptibility                        
  Michael Atanasov       : Ab Initio Ligand Field Theory (pilot matlab implementation)
  Alexander A. Auer      : GIAO ZORA, VPT2 properties, NMR spectrum      
  Ute Becker             : All parallelization in ORCA, NUMFREQ, NUMCALC 
  Giovanni Bistoni       : ED, misc. LED, open-shell LED, HFLD           
  Dmytro Bykov           : pre 5.0 version of the SCF Hessian            
  Marcos Casanova-Páez   : Triplet and SCS-CIS(D). UHF-(DLPNO)-IP/EA/STEOM-CCSD. UHF-CVS-IP/STEOM-CCSD   
  Vijay G. Chilkuri      : MRCI spin determinant printing, contributions to CSF-ICE 
  Pauline Colinet        : FMM embedding                                 
  Dipayan Datta          : RHF DLPNO-CCSD density                        
  Achintya Kumar Dutta   : EOM-CC, STEOM-CC                              
  Nicolas Foglia         : Exact transition moments, OPA infrastructure, MCD improvements    
  Dmitry Ganyushin       : Spin-Orbit,Spin-Spin,Magnetic field MRCI      
  Miquel Garcia-Rates    : C-PCM and meta-GGA Hessian, CCSD/C-PCM, Gaussian charge scheme 
  Tiago L. C. Gouveia    : GS-ROHF, GS-ROCIS                             
  Yang Guo               : DLPNO-NEVPT2, F12-NEVPT2, CIM, IAO-localization        
  Andreas Hansen         : Spin unrestricted coupled pair/coupled cluster methods 
  Ingolf Harden          : AUTO-CI MPn and infrastructure                
  Benjamin Helmich-Paris : MC-RPA, TRAH-(SCF,CASSCF), AVAS, COSX integrals, SCF dyn. polar., MC-PDFT, srDFT 
  Lee Huntington         : MR-EOM, pCC                                   
  Robert Izsak           : Overlap fitted RIJCOSX, COSX-SCS-MP3, EOM     
  Riya Kayal             : Wick's Theorem for AUTO-CI, AUTO-CI UHF-CCSDT 
  Emily Kempfer          : AUTO-CI RHF CISDT and CCSDT, approximate NEVPT4
  Christian Kollmar      : KDIIS, OOCD, Brueckner-CCSD(T), CCSD density, CASPT2, CASPT2-K, improved NEVPT2 
  Axel Koslowski         : Symmetry handling                             
  Simone Kossmann        : meta-GGA functionals, TD-DFT gradient, OOMP2, (MP2 Hessian; deprecated post 5.0) 
  Lucas Lang             : DCDCAS, Hyperfine gauge corrections, ICE-SOC+SSC
  Marvin Lechner         : AUTO-CI (C++ implementation), FIC-MRCC        
  Spencer Leger          : CASSCF response                               
  Dagmar Lenk            : GEPOL surface, SMD, ORCA-2-JSON               
  Dimitrios Liakos       : Extrapolation schemes; Compound Job, Property file
  Dimitrios Manganas     : Further ROCIS development; embedding schemes. LFT, Crystal Embedding 
  Dimitrios Pantazis     : SARC Basis sets                               
  Anastasios Papadopoulos: AUTO-CI, single reference methods and gradients 
  Taras Petrenko         : pre 6.0 DFT Hessian and TD-DFT gradient,  ECA, NRVS 
  Petra Pikulova         : Analytic Raman intensities                    
  Peter Pinski           : DLPNO-MP2, DLPNO-MP2 Gradient                 
  Shashank Vittal Rao    : ES-AILFT, MagRelax                            
  Christoph Reimann      : Effective Core Potentials                     
  Marius Retegan         : Local ZFS, SOC                                
  Christoph Riplinger    : Optimizer, TS searches, QM/MM, DLPNO-CCSD(T), (RO)-DLPNO pert. Triples 
  Michael Roemelt        : Original ROCIS implementation, recursive CI coupling coefficients
  Masaaki Saitow         : Open-shell DLPNO-CCSD energy and density      
  Barbara Sandhoefer     : DKH picture change effects                    
  Yorick L. A. Schmerwitz: GMF and freeze-and-release deltaSCF, NEB S-IDPP initial path                    
  Kantharuban Sivalingam : CASSCF convergence/infrastructure, NEVPT2, NEVPT3, NEVPT4(SD), FIC-MRCI and CEPA variants
  Bernardo de Souza      : ESD, SOC TD-DFT                               
  Georgi L. Stoychev     : AutoAux, RI-MP2 NMR, DLPNO-MP2 response, X2C  
  Van Anh Tran           : RI-MP2 g-tensors                              
  Willem Van den Heuvel  : Paramagnetic NMR                              
  Zikuan Wang            : NOTCH, Electric field optimization            
  Frank Wennmohs         : Technical directorship and infrastructure     
  Hang Xu                : AUTO-CI-Response properties                   
                                                                         
[FACCTs GmbH]                                                            
  Markus Bursch, Nicolas Foglia, Miquel Garcia-Rates, Ingolf Harden, Hagen Neugebauer, Anastasios Papadopoulos, 
  Christoph Riplinger, Bernardo de Souza, Georgi L. Stoychev                                                    
                                                                 
  APM, various basis sets, CI-OPT, improved COSX, DLPNO-Multilevel,           
  DOCKER, DRACO, updates on ESD, Fragmentator, GOAT, IRC, LR-CPCM, L-BFGS, MBIS, meta-GGA TD-DFT gradient, ML-optimized integration grids, 
  MM, NACMEs, nearIR, NEB, NEB-TS, NL-DFT gradient (VV10), 2- and 3-layer-ONIOM, interface openCOSMO-RS, QMMM,   
  Crystal-QMMM, RESP, rigid body optimization, SF, symmetry and pop. for TD-DFT, various functionals, SOLVATOR                                   
                                                                         
[Other institutions]                                                     
  V. Asgeirsson          : NEB                                           
  Christoph Bannwarth    : sTDA-DFT, sTD-DFT, PBEh-3c, B97-3c, D3        
  Giovanni Bistoni       : ETS/NOCV, ADLD/ADEX, COVALED                  
  Martin Brehm           : Molecular dynamics                            
  Ronald Cardenas        : ETS/NOCV                                      
  Martina Colucci        : COVALED                                       
  Sebastian Ehlert       : rSCAN, r2SCAN, r2SCAN-3c, D4, dhf basis sets  
  Marvin Friede          : D4 for Fr, Ra, Ac-Lr                          
  Lars Goerigk           : TD-DFT with DH, B97 family of functionals     
  Stefan Grimme          : VdW corrections, initial TS optimization, DFT functionals, gCP, sTDA/sTD-DF 
  Waldemar Hujo          : DFT-NL                                        
  H. Jonsson             : NEB                                           
  Holger Kruse           : gCP                                           
  Marcel Mueller         : wB97X-3c, vDZP basis set                      
  Hagen Neugebauer       : wr2SCAN, Native XTB                           
  Gianluca Regni         : ADLD/ADEX                                     
  Tobias Risthaus        : pre 6.0 range-separated hybrid DFT and stability analysis
  Lukas Wittmann         : regularized MP2, r2SCAN double-hybrids, wr2SCAN        
                                                                         
We gratefully acknowledge several colleagues who have allowed us to      
interface, adapt or use parts of their codes:                            
  Ed Valeev, F. Pavosevic, A. Kumar             : LibInt (2-el integral package), F12 methods 
  Garnet Chan, S. Sharma, J. Yang, R. Olivares  : DMRG                   
  Ulf Ekstrom                                   : XCFun DFT Library      
  Mihaly Kallay                                 : mrcc  (arbitrary order and MRCC methods)
  Frank Weinhold                                : gennbo (NPA and NBO analysis)           
  Simon Mueller                                 : openCOSMO-RS                            
  Christopher J. Cramer and Donald G. Truhlar   : smd solvation model                     
  S Lehtola, MJT Oliveira, MAL Marques          : LibXC Library                           
  Liviu Ungur et al                             : ANISO software                          


 Your calculation uses the libint2 library for the computation of 2-el integrals
 For citations please refer to: http://libint.valeyev.net

 Your ORCA version has been built with support for libXC version: 7.0.0
 For citations please refer to: https://libxc.gitlab.io

 This ORCA versions uses:
   CBLAS   interface :  Fast vector & matrix operations
   LAPACKE interface :  Fast linear algebra routines
   SCALAPACK package :  Parallel linear algebra routines
   Shared memory     :  Shared parallel matrices
   BLAS/LAPACK       :  OpenBLAS 0.3.29  USE64BITINT DYNAMIC_ARCH NO_AFFINITY Zen SINGLE_THREADED
        Core in use  :  Zen
   Copyright (c) 2011-2014, The OpenBLAS Project


  ***********************************
  * Starting time: Sun Apr  5 13:02:09 2026
  * Host name:     QC1
  * Process ID:    10825
  * Working dir.:  /home/user/QC/h-shift/split_2
  ***********************************

NOTE: MaxCore=1200 MB was set to SCF,MP2,MDCI,CIPSI,MRCI,RASCI and CIS
      => If you want to overwrite this, your respective input block should be placed after the MaxCore statement
================================================================================

----- Orbital basis set information -----
Your calculation utilizes the basis: 6-31G
   H-He, Li-Ne : W. J. Hehre, R. Ditchfield and J.A. Pople, J. Chem. Phys. 56, 2257 (1972).
                 Note: He and Ne are unpublished basis sets taken from the Gaussian program.
                 Note: Li and B from J. D. Dill and J. A. Pople, J. Chem. Phys. 62, 2921 (1975).
   Na - Ar     : M. M. Francl, W. J. Pietro, W. J. Hehre, J. S. Binkley, M. S. Gordon, 
                 D. J. DeFrees and J. A. Pople, J. Chem. Phys. 77, 3654 (1982).
   K - Zn      : V. A. Rassolov, J. A. Pople, M. A. Ratner, and T. L. Windus, J. Chem. Phys. 109, 1223 (1998).

================================================================================
                                        WARNINGS
                       Please study these warnings very carefully!
================================================================================


================================================================================
                                       INPUT FILE
================================================================================
NAME = h-shift_058.inp
|  1> ! HF 6-31G
|  2> %maxcore 1200
|  3> %pal nprocs 8 end
|  4> * xyz 0 1
|  5> C   -0.32361200   0.02894600   0.03888600
|  6> H    1.92984800  -0.01777800   0.06548400
|  7> C    2.36661600   0.01680300   1.05462800
|  8> C    1.85989700  -1.16129800   1.83135400
|  9> C    0.59952900  -1.59309000   1.74233700
| 10> C   -0.32741300  -1.13089600   0.69795500
| 11> H   -0.77537300   0.11337000  -0.92923500
| 12> H    0.16744300   0.91083700   0.39223800
| 13> H    2.03704400   0.95377200   1.49615500
| 14> H    3.43926500   0.04358100   0.96000200
| 15> H    2.57111500  -1.72125000   2.40997700
| 16> H    0.30424800  -2.46490400   2.29808300
| 17> H   -0.96666100  -1.90996600   0.32500500
| 18> *
| 19> 
| 20>                          ****END OF INPUT****
================================================================================

                       ****************************
                       * Single Point Calculation *
                       ****************************

---------------------------------
CARTESIAN COORDINATES (ANGSTROEM)
---------------------------------
  C     -0.323612    0.028946    0.038886
  H      1.929848   -0.017778    0.065484
  C      2.366616    0.016803    1.054628
  C      1.859897   -1.161298    1.831354
  C      0.599529   -1.593090    1.742337
  C     -0.327413   -1.130896    0.697955
  H     -0.775373    0.113370   -0.929235
  H      0.167443    0.910837    0.392238
  H      2.037044    0.953772    1.496155
  H      3.439265    0.043581    0.960002
  H      2.571115   -1.721250    2.409977
  H      0.304248   -2.464904    2.298083
  H     -0.966661   -1.909966    0.325005

----------------------------
CARTESIAN COORDINATES (A.U.)
----------------------------
  NO LB      ZA    FRAG     MASS         X           Y           Z
   0 C     6.0000    0    12.011   -0.611538    0.054700    0.073484
   1 H     1.0000    0     1.008    3.646884   -0.033596    0.123747
   2 C     6.0000    0    12.011    4.472256    0.031753    1.992958
   3 C     6.0000    0    12.011    3.514696   -2.194535    3.460758
   4 C     6.0000    0    12.011    1.132946   -3.010504    3.292540
   5 C     6.0000    0    12.011   -0.618721   -2.137084    1.318944
   6 H     1.0000    0     1.008   -1.465243    0.214238   -1.756000
   7 H     1.0000    0     1.008    0.316421    1.721232    0.741222
   8 H     1.0000    0     1.008    3.849455    1.802368    2.827323
   9 H     1.0000    0     1.008    6.499269    0.082356    1.814141
  10 H     1.0000    0     1.008    4.858703   -3.252691    4.554197
  11 H     1.0000    0     1.008    0.574945   -4.657994    4.342748
  12 H     1.0000    0     1.008   -1.826725   -3.609313    0.614170

--------------------------------
INTERNAL COORDINATES (ANGSTROEM)
--------------------------------
 C      0   0   0     0.000000000000     0.00000000     0.00000000
 H      1   0   0     2.254101274872     0.00000000     0.00000000
 C      2   1   0     1.081835469987   114.43999629     0.00000000
 C      3   2   1     1.499329646955   108.18584570    59.06730101
 C      4   3   2     1.335251232157   122.58627301   320.81447182
 C      1   2   3     1.334023935065    88.79652013   297.06112213
 H      1   2   3     1.071668644469   115.70399143   173.00407009
 H      1   2   3     1.069450506012    63.52286067    66.16003286
 H      3   2   1     1.086956623732   106.05395835   299.48454820
 H      3   2   1     1.077147630718   108.81511179   183.01971926
 H      4   3   2     1.074328563316   117.69875478   135.30745626
 H      5   4   3     1.075222830893   119.14139208   177.85838941
 H      6   1   2     1.074560269554   117.42416582   228.02949623

---------------------------
INTERNAL COORDINATES (A.U.)
---------------------------
 C      0   0   0     0.000000000000     0.00000000     0.00000000
 H      1   0   0     4.259634087631     0.00000000     0.00000000
 C      2   1   0     2.044372760237   114.43999629     0.00000000
 C      3   2   1     2.833322417214   108.18584570    59.06730101
 C      4   3   2     2.523259148758   122.58627301   320.81447182
 C      1   2   3     2.520939893369    88.79652013   297.06112213
 H      1   2   3     2.025160244357   115.70399143   173.00407009
 H      1   2   3     2.020968570147    63.52286067    66.16003286
 H      3   2   1     2.054050338304   106.05395835   299.48454820
 H      3   2   1     2.035514027859   108.81511179   183.01971926
 H      4   3   2     2.030186762517   117.69875478   135.30745626
 H      5   4   3     2.031876683327   119.14139208   177.85838941
 H      6   1   2     2.030624623850   117.42416582   228.02949623

---------------------
BASIS SET INFORMATION
---------------------
There are 2 groups of distinct atoms

 Group   1 Type C   : 10s4p contracted to 3s2p pattern {631/31}
 Group   2 Type H   : 4s contracted to 2s pattern {31}

Atom   0C    basis set group =>   1
Atom   1H    basis set group =>   2
Atom   2C    basis set group =>   1
Atom   3C    basis set group =>   1
Atom   4C    basis set group =>   1
Atom   5C    basis set group =>   1
Atom   6H    basis set group =>   2
Atom   7H    basis set group =>   2
Atom   8H    basis set group =>   2
Atom   9H    basis set group =>   2
Atom  10H    basis set group =>   2
Atom  11H    basis set group =>   2
Atom  12H    basis set group =>   2


           ************************************************************
           *        Program running with 8 parallel MPI-processes     *
           *              working on a common directory               *
           ************************************************************
------------------------------------------------------------------------------
                             ORCA STARTUP CALCULATIONS
------------------------------------------------------------------------------
------------------------------------------------------------------------------
                   ___                                                        
                  /   \      - P O W E R E D   B Y -                         
                 /     \                                                     
                 |  |  |   _    _      __       _____    __    __             
                 |  |  |  | |  | |    /  \     |  _  \  |  |  /  |          
                  \  \/   | |  | |   /    \    | | | |  |  | /  /          
                 / \  \   | |__| |  /  /\  \   | |_| |  |  |/  /          
                |  |  |   |  __  | /  /__\  \  |    /   |      \           
                |  |  |   | |  | | |   __   |  |    \   |  |\   \          
                \     /   | |  | | |  |  |  |  | |\  \  |  | \   \       
                 \___/    |_|  |_| |__|  |__|  |_| \__\ |__|  \__/        
                                                                              
                      - O R C A' S   B I G   F R I E N D -                    
                                      &                                       
                       - I N T E G R A L  F E E D E R -                       
                                                                              
 v1 FN, 2020, v2 2021, v3 2022-2024                                           
------------------------------------------------------------------------------


----------------------
SHARK INTEGRAL PACKAGE
----------------------

Number of atoms                             ...     13
Number of basis functions                   ...     61
Number of shells                            ...     41
Maximum angular momentum                    ...      1
Integral batch strategy                     ... SHARK/LIBINT Hybrid
RI-J (if used) integral strategy            ... SPLIT-RIJ (Revised 2003 algorithm where possible)
Printlevel                                  ...      1
Contraction scheme used                     ... SEGMENTED contraction
Prescreening option                         ... SCHWARTZ
   Thresh                                   ... 1.000e-10
   Tcut                                     ... 1.000e-11
   Tpresel                                  ... 1.000e-11 
Coulomb Range Separation                    ... NOT USED
Exchange Range Separation                   ... NOT USED
Multipole approximations                    ... NOT USED
Finite Nucleus Model                        ... NOT USED
CABS basis                                  ... NOT available
Auxiliary Coulomb fitting basis             ... NOT available
Auxiliary J/K fitting basis                 ... NOT available
Auxiliary Correlation fitting basis         ... NOT available
Auxiliary 'external' fitting basis          ... NOT available

Checking pre-screening integrals            ... done (  0.0 sec) Dimension = 41
   => SHARK Basis and OBASIS are compatible. Storing Pre-screening
Shell pair information
Shell pair cut-off parameter TPreSel        ...   1.0e-11
Total number of shell pairs                 ...       861
Shell pairs after pre-screening             ...       847
Total number of primitive shell pairs       ...      5382
Primitive shell pairs kept                  ...      3754
          la=0 lb=0:    482 shell pairs
          la=1 lb=0:    310 shell pairs
          la=1 lb=1:     55 shell pairs

Checking whether 4 symmetric matrices of dimension 61 fit in memory
:Max Core in MB      =   1200.00
 MB in use           =      2.05
 MB left             =   1197.95
 MB needed           =      0.06
 Data fit in memory  = YES
Calculating Nuclear repulsion               ... done (  0.0 sec) ENN=    162.432682682150 Eh

Diagonalization of the overlap matrix:
Smallest eigenvalue                        ... 3.490e-03
Time for diagonalization                   ...    0.000 sec
Threshold for overlap eigenvalues          ... 1.000e-07
Number of eigenvalues below threshold      ... 0
Time for construction of square roots      ...    0.000 sec
Total time needed                          ...    0.001 sec

-------------------
DFT GRID GENERATION
-------------------

General Integration Accuracy     IntAcc      ... 4.388
Radial Grid Type                 RadialGrid  ... OptM3 with GC (2021)
Angular Grid (max. ang.)         AngularGrid ... 4 (Lebedev-302)
Angular grid pruning method      GridPruning ... 4 (adaptive)
Weight generation scheme         WeightScheme... mBecke (2022)
Basis function cutoff            BFCut       ... 1.0000e-10
Integration weight cutoff        WCut        ... 1.0000e-14
Partially contracted basis set               ... off
Rotationally invariant grid construction     ... off
Angular grids for H and He will be reduced by one unit

Total number of grid points                  ...    56018
Total number of batches                      ...      881
Average number of points per batch           ...       63
Average number of grid points per atom       ...     4309
Grids setup in   0.2 sec
Initializing property integral containers    ... done (  0.0 sec)

SHARK setup successfully completed in   0.3 seconds

Maximum memory used throughout the entire STARTUP-calculation: 11.8 MB


           ************************************************************
           *        Program running with 8 parallel MPI-processes     *
           *              working on a common directory               *
           ************************************************************
-------------------------------------------------------------------------------
                                 ORCA GUESS
                   Start orbitals & Density for SCF / CASSCF
-------------------------------------------------------------------------------

------------
SCF SETTINGS
------------
Hamiltonian:
 Ab initio Hamiltonian  Method          .... Hartree-Fock(GTOs)


General Settings:
 Integral files         IntName         .... h-shift_058
 Hartree-Fock type      HFTyp           .... RHF
 Total Charge           Charge          ....    0
 Multiplicity           Mult            ....    1
 Number of Electrons    NEL             ....   38
 Basis Dimension        Dim             ....   61
 Nuclear Repulsion      ENuc            ....    162.4326826821 Eh

Convergence Acceleration:
 AO-DIIS                CNVDIIS         .... on
   Start iteration      DIISMaxIt       ....    12
   Startup error        DIISStart       ....  0.200000
   # of expansion vecs  DIISMaxEq       ....     5
   Bias factor          DIISBfac        ....   1.050
   Max. coefficient     DIISMaxC        ....  10.000
 MO-DIIS                CNVKDIIS        .... off
 Trust-Rad. Augm. Hess. CNVTRAH         .... auto
   Auto Start mean grad. ratio tolernc. ....  1.125000
   Auto Start start iteration           ....    50
   Auto Start num. interpolation iter.  ....    10
   Max. Number of Micro iterations      ....    24
   Max. Number of Macro iterations      .... Maxiter - #DIIS iter
   Number of Davidson start vectors     ....     2
   Converg. threshold    (grad. norm)   ....   5.000e-05
   Grad. Scal. Fac. for Micro threshold ....   0.100
   Minimum threshold for Micro iter.    ....   1.000e-02
   NR start threshold (gradient norm)   ....   1.000e-04
   Initial trust radius                 ....   0.400
   Minimum AH scaling param. (alpha)    ....   1.000
   Maximum AH scaling param. (alpha)    .... 1000.000
   Quad. conv. algorithm                .... NR
   White noise on init. David. guess    .... on
   Maximum white noise                  ....   0.010
   Pseudo random numbers                .... off
   Inactive MOs                         .... canonical
   Orbital update algorithm             .... Taylor
   Preconditioner                       .... Diag
   Full preconditioner red. dimension   ....   250
 SOSCF                 CNVSOSCF           .... on
   Start iteration     SOSCFMaxIt         ....   150
   Startup grad/error  SOSCFStart         ....  0.003300
   Hessian update      SOSCFHessUp        .... L-BFGS
   Autom. constraints  SOSCFAutoConstrain .... off
 Level Shifting         CNVShift        .... on
   Level shift para.    LevelShift      ....    0.2500
   Turn off err/grad.   ShiftErr        ....    0.0010
 Zerner damping         CNVZerner       .... off
 Static damping         CNVDamp         .... on
   Fraction old density DampFac         ....    0.7000
   Max. Damping (<1)    DampMax         ....    0.9800
   Min. Damping (>=0)   DampMin         ....    0.0000
   Turn off err/grad.   DampErr         ....    0.1000

SCF Procedure:
 Maximum # iterations   MaxIter         ....   125
 SCF integral mode      SCFMode         .... Direct
   Integral package                     .... SHARK and LIBINT hybrid scheme
 Reset frequency        DirectResetFreq ....    20
 Integral Threshold     Thresh          ....  1.000e-10 Eh
 Primitive CutOff       TCut            ....  1.000e-11 Eh

Convergence Tolerance:
 Convergence Check Mode ConvCheckMode   .... Total+1el-Energy
 Convergence forced     ConvForced      .... 0
 Energy Change          TolE            ....  1.000e-06 Eh
 1-El. energy change                    ....  1.000e-03 Eh
 Orbital Gradient       TolG            ....  5.000e-05
 Orbital Rotation angle TolX            ....  5.000e-05
 DIIS Error             TolErr          ....  1.000e-06

------------------------------
INITIAL GUESS: MODEL POTENTIAL
------------------------------
Loading Hartree-Fock densities                     ... done
Calculating cut-offs                               ... done
Initializing the effective Hamiltonian             ... done
Setting up the integral package (SHARK)            ... done
Starting the Coulomb interaction                   ... done (   0.0 sec)
Making the grid                                    ... done (   0.1 sec)
Mapping shells                                     ... done
Starting the XC term evaluation                    ... done (   0.0 sec)
Transforming the Hamiltonian                       ... done (   0.0 sec)
Diagonalizing the Hamiltonian                      ... done (   0.0 sec)
Back transforming the eigenvectors                 ... done (   0.0 sec)
Now organizing SCF variables                       ... done
                      ------------------
                      INITIAL GUESS DONE (   0.1 sec)
                      ------------------
             **** ENERGY FILE WAS UPDATED (h-shift_058.en.tmp) ****
Finished Guess after   0.3 sec
Maximum memory used throughout the entire GUESS-calculation: 4.2 MB


           ************************************************************
           *        Program running with 8 parallel MPI-processes     *
           *              working on a common directory               *
           ************************************************************

-------------------------------------------------------------------------------------------
                                      ORCA LEAN-SCF
                              memory conserving SCF solver
-------------------------------------------------------------------------------------------

----------------------------------------D-I-I-S--------------------------------------------
Iteration    Energy (Eh)           Delta-E    RMSDP     MaxDP     DIISErr   Damp  Time(sec)
-------------------------------------------------------------------------------------------
               ***  Starting incremental Fock matrix formation  ***
    1    -193.6334530110636081     0.00e+00  1.57e-02  5.35e-02  1.84e-01  0.700   0.1
    2    -193.7139226485413985    -8.05e-02  1.25e-02  4.05e-02  1.21e-01  0.700   0.0
                               ***Turning on AO-DIIS***
    3    -193.7636415736410243    -4.97e-02  7.65e-03  2.04e-02  7.24e-02  0.700   0.0
    4    -193.7950609086707061    -3.14e-02  1.82e-02  4.42e-02  4.91e-02  0.000   0.0
                              *** Initializing SOSCF ***
---------------------------------------S-O-S-C-F--------------------------------------
Iteration    Energy (Eh)           Delta-E    RMSDP     MaxDP     MaxGrad    Time(sec)
--------------------------------------------------------------------------------------
    5    -193.8630708580276689    -6.80e-02  1.72e-03  2.87e-03  2.37e-03     0.0
               *** Restarting incremental Fock matrix formation ***
    6    -193.8632002282252813    -1.29e-04  9.16e-04  1.57e-03  1.48e-03     0.0
    7    -193.8632413451771015    -4.11e-05  6.12e-04  1.20e-03  6.31e-04     0.0
    8    -193.8632502307782772    -8.89e-06  8.34e-05  2.61e-04  1.41e-04     0.0
    9    -193.8632504965657688    -2.66e-07  3.63e-05  1.05e-04  4.07e-05     0.0
                 **** Energy Check signals convergence ****

               *****************************************************
               *                     SUCCESS                       *
               *           SCF CONVERGED AFTER   9 CYCLES          *
               *****************************************************

             **** ENERGY FILE WAS UPDATED (h-shift_058.en.tmp) ****

----------------
TOTAL SCF ENERGY
----------------

Total Energy       :       -193.86325056645032 Eh           -5275.28724 eV

Components:
Nuclear Repulsion  :        162.43268268214987 Eh            4420.01801 eV
Electronic Energy  :       -356.29593324860019 Eh           -9695.30524 eV
One Electron Energy:       -581.79807814367211 Eh          -15831.53057 eV
Two Electron Energy:        225.50214489507192 Eh            6136.22532 eV

Virial components:
Potential Energy   :       -388.07126490101689 Eh          -10559.95598 eV
Kinetic Energy     :        194.20801433456657 Eh            5284.66874 eV
Virial Ratio       :          1.99822477064452

---------------
SCF CONVERGENCE
---------------

  Last Energy change         ...    2.6579e-07  Tolerance :   1.0000e-06
  Last MAX-Density change    ...    1.0512e-04  Tolerance :   1.0000e-05
  Last RMS-Density change    ...    3.6300e-05  Tolerance :   1.0000e-06
  Last DIIS Error            ...    2.3720e-03  Tolerance :   1.0000e-06
  Last Orbital Gradient      ...    4.0750e-05  Tolerance :   5.0000e-05
  Last Orbital Rotation      ...    3.3617e-05  Tolerance :   5.0000e-05


----------------
ORBITAL ENERGIES
----------------

  NO   OCC          E(Eh)            E(eV) 
   0   2.0000     -11.236666      -305.7652 
   1   2.0000     -11.236352      -305.7567 
   2   2.0000     -11.228577      -305.5451 
   3   2.0000     -11.220710      -305.3310 
   4   2.0000     -11.211832      -305.0895 
   5   2.0000      -1.105050       -30.0699 
   6   2.0000      -1.017709       -27.6933 
   7   2.0000      -0.942846       -25.6562 
   8   2.0000      -0.811704       -22.0876 
   9   2.0000      -0.721514       -19.6334 
  10   2.0000      -0.669884       -18.2285 
  11   2.0000      -0.600101       -16.3296 
  12   2.0000      -0.583896       -15.8886 
  13   2.0000      -0.567721       -15.4485 
  14   2.0000      -0.544964       -14.8292 
  15   2.0000      -0.508102       -13.8262 
  16   2.0000      -0.472613       -12.8605 
  17   2.0000      -0.403816       -10.9884 
  18   2.0000      -0.312837        -8.5127 
  19   0.0000       0.132247         3.5986 
  20   0.0000       0.223571         6.0837 
  21   0.0000       0.249053         6.7771 
  22   0.0000       0.271671         7.3925 
  23   0.0000       0.291120         7.9218 
  24   0.0000       0.325539         8.8584 
  25   0.0000       0.334433         9.1004 
  26   0.0000       0.347730         9.4622 
  27   0.0000       0.366682         9.9779 
  28   0.0000       0.371729        10.1153 
  29   0.0000       0.434631        11.8269 
*Only the first 10 virtual orbitals were printed.

                    ********************************
                    * MULLIKEN POPULATION ANALYSIS *
                    ********************************

-----------------------
MULLIKEN ATOMIC CHARGES
-----------------------
   0 C :   -0.370470
   1 H :    0.188346
   2 C :   -0.517718
   3 C :   -0.144061
   4 C :   -0.197537
   5 C :   -0.155572
   6 H :    0.162872
   7 H :    0.176176
   8 H :    0.172133
   9 H :    0.157867
  10 H :    0.179892
  11 H :    0.176156
  12 H :    0.171917
Sum of atomic charges:   -0.0000000

--------------------------------
MULLIKEN REDUCED ORBITAL CHARGES
--------------------------------
  0 C s       :     3.272576  s :     3.272576
      pz      :     1.052806  p :     3.097894
      px      :     1.041286
      py      :     1.003802

  1 H s       :     0.811654  s :     0.811654

  2 C s       :     3.367815  s :     3.367815
      pz      :     1.057421  p :     3.149903
      px      :     1.100026
      py      :     0.992456

  3 C s       :     3.212255  s :     3.212255
      pz      :     0.972205  p :     2.931806
      px      :     0.988554
      py      :     0.971048

  4 C s       :     3.199608  s :     3.199608
      pz      :     1.007403  p :     2.997929
      px      :     0.929145
      py      :     1.061381

  5 C s       :     3.198331  s :     3.198331
      pz      :     0.927571  p :     2.957241
      px      :     1.030599
      py      :     0.999071

  6 H s       :     0.837128  s :     0.837128

  7 H s       :     0.823824  s :     0.823824

  8 H s       :     0.827867  s :     0.827867

  9 H s       :     0.842133  s :     0.842133

 10 H s       :     0.820108  s :     0.820108

 11 H s       :     0.823844  s :     0.823844

 12 H s       :     0.828083  s :     0.828083



                     *******************************
                     * LOEWDIN POPULATION ANALYSIS *
                     *******************************

----------------------
LOEWDIN ATOMIC CHARGES
----------------------
   0 C :   -0.252842
   1 H :    0.130542
   2 C :   -0.322648
   3 C :   -0.103495
   4 C :   -0.150476
   5 C :   -0.114934
   6 H :    0.116625
   7 H :    0.118901
   8 H :    0.116753
   9 H :    0.109091
  10 H :    0.118274
  11 H :    0.117457
  12 H :    0.116751

-------------------------------
LOEWDIN REDUCED ORBITAL CHARGES
-------------------------------
  0 C s       :     2.989818  s :     2.989818
      pz      :     1.093156  p :     3.263024
      px      :     1.062584
      py      :     1.107283

  1 H s       :     0.869458  s :     0.869458

  2 C s       :     2.977154  s :     2.977154
      pz      :     1.127123  p :     3.345494
      px      :     1.128239
      py      :     1.090132

  3 C s       :     2.953597  s :     2.953597
      pz      :     1.011375  p :     3.149898
      px      :     1.098687
      py      :     1.039836

  4 C s       :     2.943020  s :     2.943020
      pz      :     1.053771  p :     3.207456
      px      :     1.082841
      py      :     1.070844

  5 C s       :     2.945685  s :     2.945685
      pz      :     1.030098  p :     3.169248
      px      :     1.031792
      py      :     1.107359

  6 H s       :     0.883375  s :     0.883375

  7 H s       :     0.881099  s :     0.881099

  8 H s       :     0.883247  s :     0.883247

  9 H s       :     0.890909  s :     0.890909

 10 H s       :     0.881726  s :     0.881726

 11 H s       :     0.882543  s :     0.882543

 12 H s       :     0.883249  s :     0.883249



                      *****************************
                      * MAYER POPULATION ANALYSIS *
                      *****************************

  NA   - Mulliken gross atomic population
  ZA   - Total nuclear charge
  QA   - Mulliken gross atomic charge
  VA   - Mayer's total valence
  BVA  - Mayer's bonded valence
  FA   - Mayer's free valence

  ATOM       NA         ZA         QA         VA         BVA        FA
  0 C      6.3705     6.0000    -0.3705     3.8360     3.8360     0.0000
  1 H      0.8117     1.0000     0.1883     0.9241     0.9241     0.0000
  2 C      6.5177     6.0000    -0.5177     3.7691     3.7691    -0.0000
  3 C      6.1441     6.0000    -0.1441     3.7558     3.7558    -0.0000
  4 C      6.1975     6.0000    -0.1975     3.8157     3.8157    -0.0000
  5 C      6.1556     6.0000    -0.1556     3.8059     3.8059     0.0000
  6 H      0.8371     1.0000     0.1629     0.9425     0.9425    -0.0000
  7 H      0.8238     1.0000     0.1762     0.9358     0.9358    -0.0000
  8 H      0.8279     1.0000     0.1721     0.9219     0.9219     0.0000
  9 H      0.8421     1.0000     0.1579     0.9346     0.9346     0.0000
 10 H      0.8201     1.0000     0.1799     0.9381     0.9381    -0.0000
 11 H      0.8238     1.0000     0.1762     0.9387     0.9387    -0.0000
 12 H      0.8281     1.0000     0.1719     0.9368     0.9368     0.0000

  Mayer bond orders larger than 0.100000
B(  0-C ,  5-C ) :   1.8589 B(  0-C ,  6-H ) :   0.9617 B(  0-C ,  7-H ) :   0.9607 
B(  1-H ,  2-C ) :   0.9294 B(  2-C ,  3-C ) :   0.9660 B(  2-C ,  8-H ) :   0.9464 
B(  2-C ,  9-H ) :   0.9608 B(  3-C ,  4-C ) :   1.8592 B(  3-C , 10-H ) :   0.9554 
B(  4-C ,  5-C ) :   1.0604 B(  4-C , 11-H ) :   0.9565 B(  5-C , 12-H ) :   0.9579 


-------
TIMINGS
-------

Total SCF time: 0 days 0 hours 0 min 0 sec 

Total time                  ....       0.644 sec
Sum of individual times     ....       0.600 sec  ( 93.2%)

SCF preparation             ....       0.256 sec  ( 39.8%)
Fock matrix formation       ....       0.288 sec  ( 44.7%)
  Startup                   ....       0.001 sec  (  0.5% of F)
  Coulomb+Exchange Fock     ....       0.307 sec  (106.7% of F)
Diagonalization             ....       0.000 sec  (  0.0%)
Density matrix formation    ....       0.008 sec  (  1.2%)
Total Energy calculation    ....       0.005 sec  (  0.7%)
Population analysis         ....       0.005 sec  (  0.7%)
Orbital Transformation      ....       0.004 sec  (  0.7%)
Orbital Orthonormalization  ....       0.000 sec  (  0.0%)
DIIS solution               ....       0.021 sec  (  3.3%)
SOSCF solution              ....       0.013 sec  (  2.1%)
Finished LeanSCF after   0.6 sec

Maximum memory used throughout the entire LEANSCF-calculation: 6.5 MB

-------------------------   --------------------
FINAL SINGLE POINT ENERGY      -193.863250566450
-------------------------   --------------------



           ************************************************************
           *        Program running with 8 parallel MPI-processes     *
           *              working on a common directory               *
           ************************************************************

------------------------------------------------------------------------------
                              ORCA PROPERTY CALCULATIONS
------------------------------------------------------------------------------

GBWName                                 ... h-shift_058.gbw
Number of atoms                         ...     13
Number of basis functions               ...     61
Max core memory                         ...   1200 MB

Electric properties:
Dipole moment                           ... YES
Quadrupole moment                       ...  NO
Static polarizability (Dipole/Dipole)   ...  NO
Static polarizability (Dipole/Quad.)    ...  NO
Static polarizability (Quad./Quad.)     ...  NO
Static polarizability (Velocity)        ...  NO
Static hyperpolarizability              ...  NO

Atomic electric properties:
Dipole moment                           ...  NO
Quadrupole moment                       ...  NO
Static polarizability                   ...  NO

Choice of electric origin               ... Center of mass
Position of electric origin             ...     1.634607    -1.393783     1.983931

General magnetic properties:
Magnetizability                         ...  NO

EPR properties:
g-Tensor (aka g-matrix)                 ...  NO
Zero-Field splitting spin-orbit         ...  NO
Zero-field splitting spin-spin          ...  NO
Hyperfine couplings                     ...  NO (   0 nuclei)
Quadrupole couplings                    ...  NO (   0 nuclei)
Contact density                         ...  NO (   0 nuclei)

NMR properties:
Chemical shifts                         ...  NO (   0 nuclei)
Spin-rotation constants                 ...  NO (   0 nuclei)
Spin-spin couplings                     ...  NO (   0 nuclei,    0 pairs)

Choice of magnetic origin               ... GIAO
Position of magnetic origin             ...     0.000000     0.000000     0.000000

Properties with geometric perturbations:
SCF Hessian                             ...  NO
IR spectrum                             ...  NO
VCD spectrum                            ...  NO
X-ray spectroscopy properties:
SCF XES/XAS/RIXS spectra                ...  NO

SCF SOC stabilization energy            ...  NO
Diagonal Born-Oppenheimer correction    ...  NO

-------------
DIPOLE MOMENT
-------------

Method             : SCF
Type of density    : Electron Density
Multiplicity       :   1
Irrep              :   0
Energy             :  -193.8632505664503185 Eh
Basis              : AO
                                X                 Y                 Z
Electronic contribution:     -1.490409674      -1.742926624       1.190642195
Nuclear contribution   :      1.676479037       1.696343175      -1.295713096
                        -----------------------------------------
Total Dipole Moment    :      0.186069364      -0.046583449      -0.105070901
                        -----------------------------------------
Magnitude (a.u.)       :      0.218704641
Magnitude (Debye)      :      0.555903020



--------------------
Rotational spectrum 
--------------------
 
Rotational constants in cm-1:             0.276299             0.152091             0.101635 
Rotational constants in MHz :          8283.235869          4559.570813          3046.941736 

Dipole components along the rotational axes: 
x,y,z [a.u.] :     0.125431     0.064885    -0.166999 
x,y,z [Debye]:     0.318820     0.164925    -0.424478 

 

Dipole moment calculation done in   0.0 sec 

Maximum memory used throughout the entire PROP-calculation: 2.2 MB

--------------------------------
SUGGESTED CITATIONS FOR THIS RUN
--------------------------------

Below you find a list of papers that are relevant to this ORCA run
We neither can nor want to force you to cite these papers, but we appreciate if you do
You receive ORCA, which is the product of decades of hard work by many enthusiastic individuals, for free
The only thing we kindly ask in return is that you cite our papers,
We deeply appreciate it, if you show your appreciation for ORCA by not just citing the generic ORCA reference.

Please note that relegating all ORCA citations to the supporting information does *not* help us.
SI sections are not indexed - citations you put there will not count into any citation statistics
But we need these citations in order to attract the funding resources that allow us to do what we are doing

Therefore, if you are a happy ORCA user, please consider citing a few of the papers listed below in the main body of your paper

In addition to the list printed below, the program has created the file h-shift_058.bibtex that contains the list in bibtex format
You can import this file easily into all common literature databanks and citation aid programs


List of essential papers. We consider these as the minimum necessary citations

  1. Neese, F.
     Software update: the ORCA program system, version 6.0
     WIRES Comput. Molec. Sci. 2025 15(1), e70019
     doi.org/10.1002/wcms.7019

List of papers to cite with high priority. The work reported in these papers was absolutely
necessary for this run to complete.
Our perspective: the developers of density functionals and basis sets usually get cited in chemistry papers
Good! But without the algorithms to do something with them, the functionals or basis sets would not do anything.
Hence, in our opinion, the algorithm design and method developments papers are equally worthy of getting cited

  1. Neese, F.
     The SHARK Integral Generation and Digestion System
     J. Comp. Chem. 2022 44(3), 381
     doi.org/10.1002/jcc.26942

List of suggested additional citations. These are papers that are important in the 'surrounding' of 
of this run, or papers that preceded the highly important papers. If you like your results we are grateful for a citation.

  1. Neese, F.
     The ORCA program system
     WIRES Comput. Molec. Sci. 2012 2(1), 73-78
     doi.org/10.1002/wcms.81
  2. Neese, F.
     Software update: the ORCA program system, version 4.0
     WIRES Comput. Molec. Sci. 2018 8(1), 1-6
     doi.org/10.1002/wcms.1327
  3. Neese, F.; Wennmohs, F.; Becker, U.; Riplinger, C.
     The ORCA quantum chemistry program package
     J. Chem. Phys. 2020 152(22), 224108
     doi.org/10.1063/5.0004608
  4. Neese, F.
     Software update: The ORCA program system—Version 5.0
     WIRES Comput. Molec. Sci. 2022 12(1), e1606
     doi.org/10.1002/wcms.1606

List of optional additional citations

  1. Neese, F.
     Approximate second-order SCF convergence for spin unrestricted wavefunctions
     Chem. Phys. Lett. 2000 325(1-3), 93-98
     doi.org/10.1016/s0009-2614(00)00662-x

Timings for individual modules:

Sum of individual times          ...        2.238 sec (=   0.037 min)
Startup calculation              ...        0.654 sec (=   0.011 min)  29.2 %
SCF iterations                   ...        1.200 sec (=   0.020 min)  53.6 %
Property calculations            ...        0.384 sec (=   0.006 min)  17.2 %
                             ****ORCA TERMINATED NORMALLY****
TOTAL RUN TIME: 0 days 0 hours 0 minutes 2 seconds 687 msec
