
                                 *****************
                                 * O   R   C   A *
                                 *****************

                                            #,                                       
                                            ###                                      
                                            ####                                     
                                            #####                                    
                                            ######                                   
                                           ########,                                 
                                     ,,################,,,,,                         
                               ,,#################################,,                 
                          ,,##########################################,,             
                       ,#########################################, ''#####,          
                    ,#############################################,,   '####,        
                  ,##################################################,,,,####,       
                ,###########''''           ''''###############################       
              ,#####''   ,,,,##########,,,,          '''####'''          '####       
            ,##' ,,,,###########################,,,                        '##       
           ' ,,###''''                  '''############,,,                           
         ,,##''                                '''############,,,,        ,,,,,,###''
      ,#''                                            '''#######################'''  
     '                                                          ''''####''''         
             ,#######,   #######,   ,#######,      ##                                
            ,#'     '#,  ##    ##  ,#'     '#,    #''#        ,####,    ,#,          
            ##       ##  ##   ,#'  ##            #'  '#       #'       ,# #          
            ##       ##  #######   ##           ,######,      #####,      #          
            '#,     ,#'  ##    ##  '#,     ,#' ,#      #,     #,   #      #          
             '#######'   ##     ##  '#######'  #'      '#     '####' #    #          



                #########################################################
                #                        -***-                          #
                #          Department of theory and spectroscopy        #
                #                                                       #
                #                      Frank Neese                      #
                #                                                       #
                #     Directorship, Architecture, Infrastructure        #
                #                    SHARK, DRIVERS                     #
                #        Core code/Algorithms in most modules           #
                #                                                       #
                #        Max Planck Institute fuer Kohlenforschung      #
                #                Kaiser Wilhelm Platz 1                 #
                #                 D-45470 Muelheim/Ruhr                 #
                #                      Germany                          #
                #                                                       #
                #                  All rights reserved                  #
                #                        -***-                          #
                #########################################################


                         Program Version 6.1.0  -  RELEASE   -
                                (GIT: $679e74b$)
                          ($2025-06-10 18:02:51 +0200$)


 With contributions from (in alphabetic order):
[Max-Planck-Institut fuer Kohlenforschung]                               
  Daniel Aravena         : Magnetic Suceptibility                        
  Michael Atanasov       : Ab Initio Ligand Field Theory (pilot matlab implementation)
  Alexander A. Auer      : GIAO ZORA, VPT2 properties, NMR spectrum      
  Ute Becker             : All parallelization in ORCA, NUMFREQ, NUMCALC 
  Giovanni Bistoni       : ED, misc. LED, open-shell LED, HFLD           
  Dmytro Bykov           : pre 5.0 version of the SCF Hessian            
  Marcos Casanova-Páez   : Triplet and SCS-CIS(D). UHF-(DLPNO)-IP/EA/STEOM-CCSD. UHF-CVS-IP/STEOM-CCSD   
  Vijay G. Chilkuri      : MRCI spin determinant printing, contributions to CSF-ICE 
  Pauline Colinet        : FMM embedding                                 
  Dipayan Datta          : RHF DLPNO-CCSD density                        
  Achintya Kumar Dutta   : EOM-CC, STEOM-CC                              
  Nicolas Foglia         : Exact transition moments, OPA infrastructure, MCD improvements    
  Dmitry Ganyushin       : Spin-Orbit,Spin-Spin,Magnetic field MRCI      
  Miquel Garcia-Rates    : C-PCM and meta-GGA Hessian, CCSD/C-PCM, Gaussian charge scheme 
  Tiago L. C. Gouveia    : GS-ROHF, GS-ROCIS                             
  Yang Guo               : DLPNO-NEVPT2, F12-NEVPT2, CIM, IAO-localization        
  Andreas Hansen         : Spin unrestricted coupled pair/coupled cluster methods 
  Ingolf Harden          : AUTO-CI MPn and infrastructure                
  Benjamin Helmich-Paris : MC-RPA, TRAH-(SCF,CASSCF), AVAS, COSX integrals, SCF dyn. polar., MC-PDFT, srDFT 
  Lee Huntington         : MR-EOM, pCC                                   
  Robert Izsak           : Overlap fitted RIJCOSX, COSX-SCS-MP3, EOM     
  Riya Kayal             : Wick's Theorem for AUTO-CI, AUTO-CI UHF-CCSDT 
  Emily Kempfer          : AUTO-CI RHF CISDT and CCSDT, approximate NEVPT4
  Christian Kollmar      : KDIIS, OOCD, Brueckner-CCSD(T), CCSD density, CASPT2, CASPT2-K, improved NEVPT2 
  Axel Koslowski         : Symmetry handling                             
  Simone Kossmann        : meta-GGA functionals, TD-DFT gradient, OOMP2, (MP2 Hessian; deprecated post 5.0) 
  Lucas Lang             : DCDCAS, Hyperfine gauge corrections, ICE-SOC+SSC
  Marvin Lechner         : AUTO-CI (C++ implementation), FIC-MRCC        
  Spencer Leger          : CASSCF response                               
  Dagmar Lenk            : GEPOL surface, SMD, ORCA-2-JSON               
  Dimitrios Liakos       : Extrapolation schemes; Compound Job, Property file
  Dimitrios Manganas     : Further ROCIS development; embedding schemes. LFT, Crystal Embedding 
  Dimitrios Pantazis     : SARC Basis sets                               
  Anastasios Papadopoulos: AUTO-CI, single reference methods and gradients 
  Taras Petrenko         : pre 6.0 DFT Hessian and TD-DFT gradient,  ECA, NRVS 
  Petra Pikulova         : Analytic Raman intensities                    
  Peter Pinski           : DLPNO-MP2, DLPNO-MP2 Gradient                 
  Shashank Vittal Rao    : ES-AILFT, MagRelax                            
  Christoph Reimann      : Effective Core Potentials                     
  Marius Retegan         : Local ZFS, SOC                                
  Christoph Riplinger    : Optimizer, TS searches, QM/MM, DLPNO-CCSD(T), (RO)-DLPNO pert. Triples 
  Michael Roemelt        : Original ROCIS implementation, recursive CI coupling coefficients
  Masaaki Saitow         : Open-shell DLPNO-CCSD energy and density      
  Barbara Sandhoefer     : DKH picture change effects                    
  Yorick L. A. Schmerwitz: GMF and freeze-and-release deltaSCF, NEB S-IDPP initial path                    
  Kantharuban Sivalingam : CASSCF convergence/infrastructure, NEVPT2, NEVPT3, NEVPT4(SD), FIC-MRCI and CEPA variants
  Bernardo de Souza      : ESD, SOC TD-DFT                               
  Georgi L. Stoychev     : AutoAux, RI-MP2 NMR, DLPNO-MP2 response, X2C  
  Van Anh Tran           : RI-MP2 g-tensors                              
  Willem Van den Heuvel  : Paramagnetic NMR                              
  Zikuan Wang            : NOTCH, Electric field optimization            
  Frank Wennmohs         : Technical directorship and infrastructure     
  Hang Xu                : AUTO-CI-Response properties                   
                                                                         
[FACCTs GmbH]                                                            
  Markus Bursch, Nicolas Foglia, Miquel Garcia-Rates, Ingolf Harden, Hagen Neugebauer, Anastasios Papadopoulos, 
  Christoph Riplinger, Bernardo de Souza, Georgi L. Stoychev                                                    
                                                                 
  APM, various basis sets, CI-OPT, improved COSX, DLPNO-Multilevel,           
  DOCKER, DRACO, updates on ESD, Fragmentator, GOAT, IRC, LR-CPCM, L-BFGS, MBIS, meta-GGA TD-DFT gradient, ML-optimized integration grids, 
  MM, NACMEs, nearIR, NEB, NEB-TS, NL-DFT gradient (VV10), 2- and 3-layer-ONIOM, interface openCOSMO-RS, QMMM,   
  Crystal-QMMM, RESP, rigid body optimization, SF, symmetry and pop. for TD-DFT, various functionals, SOLVATOR                                   
                                                                         
[Other institutions]                                                     
  V. Asgeirsson          : NEB                                           
  Christoph Bannwarth    : sTDA-DFT, sTD-DFT, PBEh-3c, B97-3c, D3        
  Giovanni Bistoni       : ETS/NOCV, ADLD/ADEX, COVALED                  
  Martin Brehm           : Molecular dynamics                            
  Ronald Cardenas        : ETS/NOCV                                      
  Martina Colucci        : COVALED                                       
  Sebastian Ehlert       : rSCAN, r2SCAN, r2SCAN-3c, D4, dhf basis sets  
  Marvin Friede          : D4 for Fr, Ra, Ac-Lr                          
  Lars Goerigk           : TD-DFT with DH, B97 family of functionals     
  Stefan Grimme          : VdW corrections, initial TS optimization, DFT functionals, gCP, sTDA/sTD-DF 
  Waldemar Hujo          : DFT-NL                                        
  H. Jonsson             : NEB                                           
  Holger Kruse           : gCP                                           
  Marcel Mueller         : wB97X-3c, vDZP basis set                      
  Hagen Neugebauer       : wr2SCAN, Native XTB                           
  Gianluca Regni         : ADLD/ADEX                                     
  Tobias Risthaus        : pre 6.0 range-separated hybrid DFT and stability analysis
  Lukas Wittmann         : regularized MP2, r2SCAN double-hybrids, wr2SCAN        
                                                                         
We gratefully acknowledge several colleagues who have allowed us to      
interface, adapt or use parts of their codes:                            
  Ed Valeev, F. Pavosevic, A. Kumar             : LibInt (2-el integral package), F12 methods 
  Garnet Chan, S. Sharma, J. Yang, R. Olivares  : DMRG                   
  Ulf Ekstrom                                   : XCFun DFT Library      
  Mihaly Kallay                                 : mrcc  (arbitrary order and MRCC methods)
  Frank Weinhold                                : gennbo (NPA and NBO analysis)           
  Simon Mueller                                 : openCOSMO-RS                            
  Christopher J. Cramer and Donald G. Truhlar   : smd solvation model                     
  S Lehtola, MJT Oliveira, MAL Marques          : LibXC Library                           
  Liviu Ungur et al                             : ANISO software                          


 Your calculation uses the libint2 library for the computation of 2-el integrals
 For citations please refer to: http://libint.valeyev.net

 Your ORCA version has been built with support for libXC version: 7.0.0
 For citations please refer to: https://libxc.gitlab.io

 This ORCA versions uses:
   CBLAS   interface :  Fast vector & matrix operations
   LAPACKE interface :  Fast linear algebra routines
   SCALAPACK package :  Parallel linear algebra routines
   Shared memory     :  Shared parallel matrices
   BLAS/LAPACK       :  OpenBLAS 0.3.29  USE64BITINT DYNAMIC_ARCH NO_AFFINITY Zen SINGLE_THREADED
        Core in use  :  Zen
   Copyright (c) 2011-2014, The OpenBLAS Project


  ***********************************
  * Starting time: Sun Apr  5 13:01:18 2026
  * Host name:     QC1
  * Process ID:    8161
  * Working dir.:  /home/user/QC/h-shift/split_2
  ***********************************

NOTE: MaxCore=1200 MB was set to SCF,MP2,MDCI,CIPSI,MRCI,RASCI and CIS
      => If you want to overwrite this, your respective input block should be placed after the MaxCore statement
================================================================================

----- Orbital basis set information -----
Your calculation utilizes the basis: 6-31G
   H-He, Li-Ne : W. J. Hehre, R. Ditchfield and J.A. Pople, J. Chem. Phys. 56, 2257 (1972).
                 Note: He and Ne are unpublished basis sets taken from the Gaussian program.
                 Note: Li and B from J. D. Dill and J. A. Pople, J. Chem. Phys. 62, 2921 (1975).
   Na - Ar     : M. M. Francl, W. J. Pietro, W. J. Hehre, J. S. Binkley, M. S. Gordon, 
                 D. J. DeFrees and J. A. Pople, J. Chem. Phys. 77, 3654 (1982).
   K - Zn      : V. A. Rassolov, J. A. Pople, M. A. Ratner, and T. L. Windus, J. Chem. Phys. 109, 1223 (1998).

================================================================================
                                        WARNINGS
                       Please study these warnings very carefully!
================================================================================


================================================================================
                                       INPUT FILE
================================================================================
NAME = h-shift_040.inp
|  1> ! HF 6-31G
|  2> %maxcore 1200
|  3> %pal nprocs 8 end
|  4> * xyz 0 1
|  5> C    0.08823600   0.01923000  -0.04753600
|  6> H    1.16298700  -0.04161400  -0.20061700
|  7> C    2.45920100   0.03053000   1.37132000
|  8> C    1.93646600  -1.10810100   1.85075500
|  9> C    0.55875300  -1.58864700   1.75660700
| 10> C   -0.25813600  -1.16659600   0.78185100
| 11> H   -0.45351200   0.06518500  -0.97599600
| 12> H   -0.02970300   0.96424700   0.47239900
| 13> H    1.91275400   0.94461000   1.28504500
| 14> H    3.47949100   0.07523500   1.04829200
| 15> H    2.62687800  -1.85806600   2.18466800
| 16> H    0.31666400  -2.48574100   2.29533000
| 17> H   -1.08430500  -1.78231700   0.47827200
| 18> *
| 19> 
| 20>                          ****END OF INPUT****
================================================================================

                       ****************************
                       * Single Point Calculation *
                       ****************************

---------------------------------
CARTESIAN COORDINATES (ANGSTROEM)
---------------------------------
  C      0.088236    0.019230   -0.047536
  H      1.162987   -0.041614   -0.200617
  C      2.459201    0.030530    1.371320
  C      1.936466   -1.108101    1.850755
  C      0.558753   -1.588647    1.756607
  C     -0.258136   -1.166596    0.781851
  H     -0.453512    0.065185   -0.975996
  H     -0.029703    0.964247    0.472399
  H      1.912754    0.944610    1.285045
  H      3.479491    0.075235    1.048292
  H      2.626878   -1.858066    2.184668
  H      0.316664   -2.485741    2.295330
  H     -1.084305   -1.782317    0.478272

----------------------------
CARTESIAN COORDINATES (A.U.)
----------------------------
  NO LB      ZA    FRAG     MASS         X           Y           Z
   0 C     6.0000    0    12.011    0.166742    0.036339   -0.089830
   1 H     1.0000    0     1.008    2.197727   -0.078639   -0.379111
   2 C     6.0000    0    12.011    4.647216    0.057693    2.591419
   3 C     6.0000    0    12.011    3.659390   -2.094007    3.497420
   4 C     6.0000    0    12.011    1.055890   -3.002108    3.319506
   5 C     6.0000    0    12.011   -0.487806   -2.204547    1.477484
   6 H     1.0000    0     1.008   -0.857013    0.123182   -1.844365
   7 H     1.0000    0     1.008   -0.056131    1.822163    0.892705
   8 H     1.0000    0     1.008    3.614581    1.785054    2.428383
   9 H     1.0000    0     1.008    6.575285    0.142174    1.980985
  10 H     1.0000    0     1.008    4.964080   -3.511236    4.128424
  11 H     1.0000    0     1.008    0.598408   -4.697370    4.337545
  12 H     1.0000    0     1.008   -2.049039   -3.368091    0.903803

--------------------------------
INTERNAL COORDINATES (ANGSTROEM)
--------------------------------
 C      0   0   0     0.000000000000     0.00000000     0.00000000
 H      1   0   0     1.087301934560     0.00000000     0.00000000
 C      2   1   0     2.038715630612   121.19316764     0.00000000
 C      3   2   1     1.341488111617    89.87262104    63.11387372
 C      4   3   2     1.462149586872   128.54369404   327.40912455
 C      5   4   3     1.339994009113   121.18083431    23.77148525
 H      1   2   3     1.075937139952   112.24690986   174.34298635
 H      1   2   3     1.085034166391   102.92313601    57.57833976
 H      3   2   1     1.068452126131    69.07426250   296.54360940
 H      3   2   1     1.071138324358   111.99756351   186.74641632
 H      4   3   2     1.072666827369   116.99293252   134.58674782
 H      5   4   3     1.074061078098   117.03851665   186.05443558
 H      6   5   4     1.074163756437   119.59869849   155.25225270

---------------------------
INTERNAL COORDINATES (A.U.)
---------------------------
 C      0   0   0     0.000000000000     0.00000000     0.00000000
 H      1   0   0     2.054702881201     0.00000000     0.00000000
 C      2   1   0     3.852614206801   121.19316764     0.00000000
 C      3   2   1     2.535045142868    89.87262104    63.11387372
 C      4   3   2     2.763062286014   128.54369404   327.40912455
 C      5   4   3     2.532221698318   121.18083431    23.77148525
 H      1   2   3     2.033226531825   112.24690986   174.34298635
 H      1   2   3     2.050417420426   102.92313601    57.57833976
 H      3   2   1     2.019081905594    69.07426250   296.54360940
 H      3   2   1     2.024158084584   111.99756351   186.74641632
 H      4   3   2     2.027046536670   116.99293252   134.58674782
 H      5   4   3     2.029681288710   117.03851665   186.05443558
 H      6   5   4     2.029875322650   119.59869849   155.25225270

---------------------
BASIS SET INFORMATION
---------------------
There are 2 groups of distinct atoms

 Group   1 Type C   : 10s4p contracted to 3s2p pattern {631/31}
 Group   2 Type H   : 4s contracted to 2s pattern {31}

Atom   0C    basis set group =>   1
Atom   1H    basis set group =>   2
Atom   2C    basis set group =>   1
Atom   3C    basis set group =>   1
Atom   4C    basis set group =>   1
Atom   5C    basis set group =>   1
Atom   6H    basis set group =>   2
Atom   7H    basis set group =>   2
Atom   8H    basis set group =>   2
Atom   9H    basis set group =>   2
Atom  10H    basis set group =>   2
Atom  11H    basis set group =>   2
Atom  12H    basis set group =>   2


           ************************************************************
           *        Program running with 8 parallel MPI-processes     *
           *              working on a common directory               *
           ************************************************************
------------------------------------------------------------------------------
                             ORCA STARTUP CALCULATIONS
------------------------------------------------------------------------------
------------------------------------------------------------------------------
                   ___                                                        
                  /   \      - P O W E R E D   B Y -                         
                 /     \                                                     
                 |  |  |   _    _      __       _____    __    __             
                 |  |  |  | |  | |    /  \     |  _  \  |  |  /  |          
                  \  \/   | |  | |   /    \    | | | |  |  | /  /          
                 / \  \   | |__| |  /  /\  \   | |_| |  |  |/  /          
                |  |  |   |  __  | /  /__\  \  |    /   |      \           
                |  |  |   | |  | | |   __   |  |    \   |  |\   \          
                \     /   | |  | | |  |  |  |  | |\  \  |  | \   \       
                 \___/    |_|  |_| |__|  |__|  |_| \__\ |__|  \__/        
                                                                              
                      - O R C A' S   B I G   F R I E N D -                    
                                      &                                       
                       - I N T E G R A L  F E E D E R -                       
                                                                              
 v1 FN, 2020, v2 2021, v3 2022-2024                                           
------------------------------------------------------------------------------


----------------------
SHARK INTEGRAL PACKAGE
----------------------

Number of atoms                             ...     13
Number of basis functions                   ...     61
Number of shells                            ...     41
Maximum angular momentum                    ...      1
Integral batch strategy                     ... SHARK/LIBINT Hybrid
RI-J (if used) integral strategy            ... SPLIT-RIJ (Revised 2003 algorithm where possible)
Printlevel                                  ...      1
Contraction scheme used                     ... SEGMENTED contraction
Prescreening option                         ... SCHWARTZ
   Thresh                                   ... 1.000e-10
   Tcut                                     ... 1.000e-11
   Tpresel                                  ... 1.000e-11 
Coulomb Range Separation                    ... NOT USED
Exchange Range Separation                   ... NOT USED
Multipole approximations                    ... NOT USED
Finite Nucleus Model                        ... NOT USED
CABS basis                                  ... NOT available
Auxiliary Coulomb fitting basis             ... NOT available
Auxiliary J/K fitting basis                 ... NOT available
Auxiliary Correlation fitting basis         ... NOT available
Auxiliary 'external' fitting basis          ... NOT available

Checking pre-screening integrals            ... done (  0.0 sec) Dimension = 41
   => SHARK Basis and OBASIS are compatible. Storing Pre-screening
Shell pair information
Shell pair cut-off parameter TPreSel        ...   1.0e-11
Total number of shell pairs                 ...       861
Shell pairs after pre-screening             ...       847
Total number of primitive shell pairs       ...      5382
Primitive shell pairs kept                  ...      3776
          la=0 lb=0:    482 shell pairs
          la=1 lb=0:    310 shell pairs
          la=1 lb=1:     55 shell pairs

Checking whether 4 symmetric matrices of dimension 61 fit in memory
:Max Core in MB      =   1200.00
 MB in use           =      2.05
 MB left             =   1197.95
 MB needed           =      0.06
 Data fit in memory  = YES
Calculating Nuclear repulsion               ... done (  0.0 sec) ENN=    163.700314688539 Eh

Diagonalization of the overlap matrix:
Smallest eigenvalue                        ... 3.513e-03
Time for diagonalization                   ...    0.000 sec
Threshold for overlap eigenvalues          ... 1.000e-07
Number of eigenvalues below threshold      ... 0
Time for construction of square roots      ...    0.000 sec
Total time needed                          ...    0.001 sec

-------------------
DFT GRID GENERATION
-------------------

General Integration Accuracy     IntAcc      ... 4.388
Radial Grid Type                 RadialGrid  ... OptM3 with GC (2021)
Angular Grid (max. ang.)         AngularGrid ... 4 (Lebedev-302)
Angular grid pruning method      GridPruning ... 4 (adaptive)
Weight generation scheme         WeightScheme... mBecke (2022)
Basis function cutoff            BFCut       ... 1.0000e-10
Integration weight cutoff        WCut        ... 1.0000e-14
Partially contracted basis set               ... off
Rotationally invariant grid construction     ... off
Angular grids for H and He will be reduced by one unit

Total number of grid points                  ...    55981
Total number of batches                      ...      882
Average number of points per batch           ...       63
Average number of grid points per atom       ...     4306
Grids setup in   0.2 sec
Initializing property integral containers    ... done (  0.0 sec)

SHARK setup successfully completed in   0.3 seconds

Maximum memory used throughout the entire STARTUP-calculation: 11.8 MB


           ************************************************************
           *        Program running with 8 parallel MPI-processes     *
           *              working on a common directory               *
           ************************************************************
-------------------------------------------------------------------------------
                                 ORCA GUESS
                   Start orbitals & Density for SCF / CASSCF
-------------------------------------------------------------------------------

------------
SCF SETTINGS
------------
Hamiltonian:
 Ab initio Hamiltonian  Method          .... Hartree-Fock(GTOs)


General Settings:
 Integral files         IntName         .... h-shift_040
 Hartree-Fock type      HFTyp           .... RHF
 Total Charge           Charge          ....    0
 Multiplicity           Mult            ....    1
 Number of Electrons    NEL             ....   38
 Basis Dimension        Dim             ....   61
 Nuclear Repulsion      ENuc            ....    163.7003146885 Eh

Convergence Acceleration:
 AO-DIIS                CNVDIIS         .... on
   Start iteration      DIISMaxIt       ....    12
   Startup error        DIISStart       ....  0.200000
   # of expansion vecs  DIISMaxEq       ....     5
   Bias factor          DIISBfac        ....   1.050
   Max. coefficient     DIISMaxC        ....  10.000
 MO-DIIS                CNVKDIIS        .... off
 Trust-Rad. Augm. Hess. CNVTRAH         .... auto
   Auto Start mean grad. ratio tolernc. ....  1.125000
   Auto Start start iteration           ....    50
   Auto Start num. interpolation iter.  ....    10
   Max. Number of Micro iterations      ....    24
   Max. Number of Macro iterations      .... Maxiter - #DIIS iter
   Number of Davidson start vectors     ....     2
   Converg. threshold    (grad. norm)   ....   5.000e-05
   Grad. Scal. Fac. for Micro threshold ....   0.100
   Minimum threshold for Micro iter.    ....   1.000e-02
   NR start threshold (gradient norm)   ....   1.000e-04
   Initial trust radius                 ....   0.400
   Minimum AH scaling param. (alpha)    ....   1.000
   Maximum AH scaling param. (alpha)    .... 1000.000
   Quad. conv. algorithm                .... NR
   White noise on init. David. guess    .... on
   Maximum white noise                  ....   0.010
   Pseudo random numbers                .... off
   Inactive MOs                         .... canonical
   Orbital update algorithm             .... Taylor
   Preconditioner                       .... Diag
   Full preconditioner red. dimension   ....   250
 SOSCF                 CNVSOSCF           .... on
   Start iteration     SOSCFMaxIt         ....   150
   Startup grad/error  SOSCFStart         ....  0.003300
   Hessian update      SOSCFHessUp        .... L-BFGS
   Autom. constraints  SOSCFAutoConstrain .... off
 Level Shifting         CNVShift        .... on
   Level shift para.    LevelShift      ....    0.2500
   Turn off err/grad.   ShiftErr        ....    0.0010
 Zerner damping         CNVZerner       .... off
 Static damping         CNVDamp         .... on
   Fraction old density DampFac         ....    0.7000
   Max. Damping (<1)    DampMax         ....    0.9800
   Min. Damping (>=0)   DampMin         ....    0.0000
   Turn off err/grad.   DampErr         ....    0.1000

SCF Procedure:
 Maximum # iterations   MaxIter         ....   125
 SCF integral mode      SCFMode         .... Direct
   Integral package                     .... SHARK and LIBINT hybrid scheme
 Reset frequency        DirectResetFreq ....    20
 Integral Threshold     Thresh          ....  1.000e-10 Eh
 Primitive CutOff       TCut            ....  1.000e-11 Eh

Convergence Tolerance:
 Convergence Check Mode ConvCheckMode   .... Total+1el-Energy
 Convergence forced     ConvForced      .... 0
 Energy Change          TolE            ....  1.000e-06 Eh
 1-El. energy change                    ....  1.000e-03 Eh
 Orbital Gradient       TolG            ....  5.000e-05
 Orbital Rotation angle TolX            ....  5.000e-05
 DIIS Error             TolErr          ....  1.000e-06

------------------------------
INITIAL GUESS: MODEL POTENTIAL
------------------------------
Loading Hartree-Fock densities                     ... done
Calculating cut-offs                               ... done
Initializing the effective Hamiltonian             ... done
Setting up the integral package (SHARK)            ... done
Starting the Coulomb interaction                   ... done (   0.0 sec)
Making the grid                                    ... done (   0.1 sec)
Mapping shells                                     ... done
Starting the XC term evaluation                    ... done (   0.0 sec)
Transforming the Hamiltonian                       ... done (   0.0 sec)
Diagonalizing the Hamiltonian                      ... done (   0.0 sec)
Back transforming the eigenvectors                 ... done (   0.0 sec)
Now organizing SCF variables                       ... done
                      ------------------
                      INITIAL GUESS DONE (   0.1 sec)
                      ------------------
             **** ENERGY FILE WAS UPDATED (h-shift_040.en.tmp) ****
Finished Guess after   0.3 sec
Maximum memory used throughout the entire GUESS-calculation: 4.2 MB


           ************************************************************
           *        Program running with 8 parallel MPI-processes     *
           *              working on a common directory               *
           ************************************************************

-------------------------------------------------------------------------------------------
                                      ORCA LEAN-SCF
                              memory conserving SCF solver
-------------------------------------------------------------------------------------------

----------------------------------------D-I-I-S--------------------------------------------
Iteration    Energy (Eh)           Delta-E    RMSDP     MaxDP     DIISErr   Damp  Time(sec)
-------------------------------------------------------------------------------------------
               ***  Starting incremental Fock matrix formation  ***
    1    -193.6186339895204185     0.00e+00  1.58e-02  5.20e-02  1.81e-01  0.700   0.0
    2    -193.6987050050798587    -8.01e-02  1.25e-02  3.93e-02  1.18e-01  0.700   0.0
                               ***Turning on AO-DIIS***
    3    -193.7481608753181774    -4.95e-02  7.64e-03  1.99e-02  7.06e-02  0.700   0.0
    4    -193.7794226367546742    -3.13e-02  1.81e-02  4.23e-02  4.80e-02  0.000   0.0
                              *** Initializing SOSCF ***
---------------------------------------S-O-S-C-F--------------------------------------
Iteration    Energy (Eh)           Delta-E    RMSDP     MaxDP     MaxGrad    Time(sec)
--------------------------------------------------------------------------------------
    5    -193.8471743265713201    -6.78e-02  1.78e-03  2.98e-03  2.91e-03     0.0
               *** Restarting incremental Fock matrix formation ***
    6    -193.8473243249716518    -1.50e-04  1.01e-03  2.12e-03  1.77e-03     0.0
    7    -193.8473781964715101    -5.39e-05  7.67e-04  1.82e-03  8.00e-04     0.0
    8    -193.8473919541362704    -1.38e-05  1.04e-04  2.72e-04  1.61e-04     0.0
    9    -193.8473923275447817    -3.73e-07  4.36e-05  9.59e-05  4.62e-05     0.0
                 **** Energy Check signals convergence ****

               *****************************************************
               *                     SUCCESS                       *
               *           SCF CONVERGED AFTER   9 CYCLES          *
               *****************************************************

             **** ENERGY FILE WAS UPDATED (h-shift_040.en.tmp) ****

----------------
TOTAL SCF ENERGY
----------------

Total Energy       :       -193.84739242576100 Eh           -5274.85572 eV

Components:
Nuclear Repulsion  :        163.70031468853907 Eh            4454.51203 eV
Electronic Energy  :       -357.54770711430007 Eh           -9729.36774 eV
One Electron Energy:       -584.29214988331751 Eh          -15899.39771 eV
Two Electron Energy:        226.74444276901744 Eh            6170.02997 eV

Virial components:
Potential Energy   :       -388.09939769289815 Eh          -10560.72151 eV
Kinetic Energy     :        194.25200526713718 Eh            5285.86579 eV
Virial Ratio       :          1.99791707251197

---------------
SCF CONVERGENCE
---------------

  Last Energy change         ...    3.7341e-07  Tolerance :   1.0000e-06
  Last MAX-Density change    ...    9.5877e-05  Tolerance :   1.0000e-05
  Last RMS-Density change    ...    4.3578e-05  Tolerance :   1.0000e-06
  Last DIIS Error            ...    2.9057e-03  Tolerance :   1.0000e-06
  Last Orbital Gradient      ...    4.6194e-05  Tolerance :   5.0000e-05
  Last Orbital Rotation      ...    3.8747e-05  Tolerance :   5.0000e-05


----------------
ORBITAL ENERGIES
----------------

  NO   OCC          E(Eh)            E(eV) 
   0   2.0000     -11.237216      -305.7802 
   1   2.0000     -11.236874      -305.7709 
   2   2.0000     -11.228820      -305.5517 
   3   2.0000     -11.221868      -305.3626 
   4   2.0000     -11.208725      -305.0049 
   5   2.0000      -1.110244       -30.2113 
   6   2.0000      -1.015959       -27.6457 
   7   2.0000      -0.944796       -25.7092 
   8   2.0000      -0.811067       -22.0702 
   9   2.0000      -0.725025       -19.7289 
  10   2.0000      -0.672931       -18.3114 
  11   2.0000      -0.598905       -16.2970 
  12   2.0000      -0.583693       -15.8831 
  13   2.0000      -0.563304       -15.3283 
  14   2.0000      -0.549698       -14.9581 
  15   2.0000      -0.508451       -13.8357 
  16   2.0000      -0.481838       -13.1115 
  17   2.0000      -0.395182       -10.7535 
  18   2.0000      -0.307035        -8.3549 
  19   0.0000       0.128656         3.5009 
  20   0.0000       0.214552         5.8383 
  21   0.0000       0.246576         6.7097 
  22   0.0000       0.274964         7.4821 
  23   0.0000       0.291886         7.9426 
  24   0.0000       0.327556         8.9133 
  25   0.0000       0.335210         9.1215 
  26   0.0000       0.351627         9.5683 
  27   0.0000       0.373253        10.1567 
  28   0.0000       0.380098        10.3430 
  29   0.0000       0.436167        11.8687 
*Only the first 10 virtual orbitals were printed.

                    ********************************
                    * MULLIKEN POPULATION ANALYSIS *
                    ********************************

-----------------------
MULLIKEN ATOMIC CHARGES
-----------------------
   0 C :   -0.524651
   1 H :    0.194905
   2 C :   -0.386509
   3 C :   -0.160982
   4 C :   -0.197034
   5 C :   -0.137469
   6 H :    0.156990
   7 H :    0.173117
   8 H :    0.182576
   9 H :    0.166224
  10 H :    0.173949
  11 H :    0.176379
  12 H :    0.182504
Sum of atomic charges:   -0.0000000

--------------------------------
MULLIKEN REDUCED ORBITAL CHARGES
--------------------------------
  0 C s       :     3.370020  s :     3.370020
      pz      :     1.059047  p :     3.154631
      px      :     1.105776
      py      :     0.989808

  1 H s       :     0.805095  s :     0.805095

  2 C s       :     3.283840  s :     3.283840
      pz      :     1.009978  p :     3.102669
      px      :     1.083211
      py      :     1.009480

  3 C s       :     3.200438  s :     3.200438
      pz      :     0.984172  p :     2.960544
      px      :     0.972652
      py      :     1.003720

  4 C s       :     3.200444  s :     3.200444
      pz      :     1.004759  p :     2.996589
      px      :     0.930294
      py      :     1.061537

  5 C s       :     3.210730  s :     3.210730
      pz      :     0.934931  p :     2.926739
      px      :     1.015073
      py      :     0.976735

  6 H s       :     0.843010  s :     0.843010

  7 H s       :     0.826883  s :     0.826883

  8 H s       :     0.817424  s :     0.817424

  9 H s       :     0.833776  s :     0.833776

 10 H s       :     0.826051  s :     0.826051

 11 H s       :     0.823621  s :     0.823621

 12 H s       :     0.817496  s :     0.817496



                     *******************************
                     * LOEWDIN POPULATION ANALYSIS *
                     *******************************

----------------------
LOEWDIN ATOMIC CHARGES
----------------------
   0 C :   -0.326849
   1 H :    0.138963
   2 C :   -0.260300
   3 C :   -0.116463
   4 C :   -0.152246
   5 C :   -0.101476
   6 H :    0.109080
   7 H :    0.115752
   8 H :    0.120737
   9 H :    0.117656
  10 H :    0.117962
  11 H :    0.117698
  12 H :    0.119486

-------------------------------
LOEWDIN REDUCED ORBITAL CHARGES
-------------------------------
  0 C s       :     2.977574  s :     2.977574
      pz      :     1.114977  p :     3.349275
      px      :     1.144481
      py      :     1.089817

  1 H s       :     0.861037  s :     0.861037

  2 C s       :     2.992394  s :     2.992394
      pz      :     1.044194  p :     3.267906
      px      :     1.116264
      py      :     1.107448

  3 C s       :     2.945353  s :     2.945353
      pz      :     0.991809  p :     3.171109
      px      :     1.073859
      py      :     1.105441

  4 C s       :     2.943453  s :     2.943453
      pz      :     1.077902  p :     3.208793
      px      :     1.058892
      py      :     1.071999

  5 C s       :     2.953493  s :     2.953493
      pz      :     1.035694  p :     3.147982
      px      :     1.063812
      py      :     1.048476

  6 H s       :     0.890920  s :     0.890920

  7 H s       :     0.884248  s :     0.884248

  8 H s       :     0.879263  s :     0.879263

  9 H s       :     0.882344  s :     0.882344

 10 H s       :     0.882038  s :     0.882038

 11 H s       :     0.882302  s :     0.882302

 12 H s       :     0.880514  s :     0.880514



                      *****************************
                      * MAYER POPULATION ANALYSIS *
                      *****************************

  NA   - Mulliken gross atomic population
  ZA   - Total nuclear charge
  QA   - Mulliken gross atomic charge
  VA   - Mayer's total valence
  BVA  - Mayer's bonded valence
  FA   - Mayer's free valence

  ATOM       NA         ZA         QA         VA         BVA        FA
  0 C      6.5247     6.0000    -0.5247     3.7617     3.7617     0.0000
  1 H      0.8051     1.0000     0.1949     0.9162     0.9162    -0.0000
  2 C      6.3865     6.0000    -0.3865     3.8221     3.8221    -0.0000
  3 C      6.1610     6.0000    -0.1610     3.8001     3.8001    -0.0000
  4 C      6.1970     6.0000    -0.1970     3.8116     3.8116    -0.0000
  5 C      6.1375     6.0000    -0.1375     3.7470     3.7470    -0.0000
  6 H      0.8430     1.0000     0.1570     0.9376     0.9376    -0.0000
  7 H      0.8269     1.0000     0.1731     0.9208     0.9208     0.0000
  8 H      0.8174     1.0000     0.1826     0.9309     0.9309    -0.0000
  9 H      0.8338     1.0000     0.1662     0.9408     0.9408     0.0000
 10 H      0.8261     1.0000     0.1739     0.9362     0.9362     0.0000
 11 H      0.8236     1.0000     0.1764     0.9389     0.9389    -0.0000
 12 H      0.8175     1.0000     0.1825     0.9379     0.9379    -0.0000

  Mayer bond orders larger than 0.100000
B(  0-C ,  1-H ) :   0.9098 B(  0-C ,  5-C ) :   0.9743 B(  0-C ,  6-H ) :   0.9619 
B(  0-C ,  7-H ) :   0.9461 B(  2-C ,  3-C ) :   1.8231 B(  2-C ,  8-H ) :   0.9598 
B(  2-C ,  9-H ) :   0.9599 B(  3-C ,  4-C ) :   1.0839 B(  3-C , 10-H ) :   0.9582 
B(  4-C ,  5-C ) :   1.8283 B(  4-C , 11-H ) :   0.9571 B(  5-C , 12-H ) :   0.9546 


-------
TIMINGS
-------

Total SCF time: 0 days 0 hours 0 min 0 sec 

Total time                  ....       0.631 sec
Sum of individual times     ....       0.587 sec  ( 93.1%)

SCF preparation             ....       0.255 sec  ( 40.5%)
Fock matrix formation       ....       0.277 sec  ( 43.9%)
  Startup                   ....       0.001 sec  (  0.5% of F)
  Coulomb+Exchange Fock     ....       0.296 sec  (106.9% of F)
Diagonalization             ....       0.000 sec  (  0.0%)
Density matrix formation    ....       0.008 sec  (  1.2%)
Total Energy calculation    ....       0.004 sec  (  0.7%)
Population analysis         ....       0.005 sec  (  0.7%)
Orbital Transformation      ....       0.004 sec  (  0.7%)
Orbital Orthonormalization  ....       0.000 sec  (  0.0%)
DIIS solution               ....       0.020 sec  (  3.2%)
SOSCF solution              ....       0.013 sec  (  2.1%)
Finished LeanSCF after   0.6 sec

Maximum memory used throughout the entire LEANSCF-calculation: 6.5 MB

-------------------------   --------------------
FINAL SINGLE POINT ENERGY      -193.847392425761
-------------------------   --------------------



           ************************************************************
           *        Program running with 8 parallel MPI-processes     *
           *              working on a common directory               *
           ************************************************************

------------------------------------------------------------------------------
                              ORCA PROPERTY CALCULATIONS
------------------------------------------------------------------------------

GBWName                                 ... h-shift_040.gbw
Number of atoms                         ...     13
Number of basis functions               ...     61
Max core memory                         ...   1200 MB

Electric properties:
Dipole moment                           ... YES
Quadrupole moment                       ...  NO
Static polarizability (Dipole/Dipole)   ...  NO
Static polarizability (Dipole/Quad.)    ...  NO
Static polarizability (Quad./Quad.)     ...  NO
Static polarizability (Velocity)        ...  NO
Static hyperpolarizability              ...  NO

Atomic electric properties:
Dipole moment                           ...  NO
Quadrupole moment                       ...  NO
Static polarizability                   ...  NO

Choice of electric origin               ... Center of mass
Position of electric origin             ...     1.816005    -1.385867     2.087798

General magnetic properties:
Magnetizability                         ...  NO

EPR properties:
g-Tensor (aka g-matrix)                 ...  NO
Zero-Field splitting spin-orbit         ...  NO
Zero-field splitting spin-spin          ...  NO
Hyperfine couplings                     ...  NO (   0 nuclei)
Quadrupole couplings                    ...  NO (   0 nuclei)
Contact density                         ...  NO (   0 nuclei)

NMR properties:
Chemical shifts                         ...  NO (   0 nuclei)
Spin-rotation constants                 ...  NO (   0 nuclei)
Spin-spin couplings                     ...  NO (   0 nuclei,    0 pairs)

Choice of magnetic origin               ... GIAO
Position of magnetic origin             ...     0.000000     0.000000     0.000000

Properties with geometric perturbations:
SCF Hessian                             ...  NO
IR spectrum                             ...  NO
VCD spectrum                            ...  NO
X-ray spectroscopy properties:
SCF XES/XAS/RIXS spectra                ...  NO

SCF SOC stabilization energy            ...  NO
Diagonal Born-Oppenheimer correction    ...  NO

-------------
DIPOLE MOMENT
-------------

Method             : SCF
Type of density    : Electron Density
Multiplicity       :   1
Irrep              :   0
Energy             :  -193.8473924257610008 Eh
Basis              : AO
                                X                 Y                 Z
Electronic contribution:     -0.227197720      -1.706397012       1.896342315
Nuclear contribution   :      0.228301685       1.640393373      -2.111954937
                        -----------------------------------------
Total Dipole Moment    :      0.001103966      -0.066003639      -0.215612621
                        -----------------------------------------
Magnitude (a.u.)       :      0.225491688
Magnitude (Debye)      :      0.573154323



--------------------
Rotational spectrum 
--------------------
 
Rotational constants in cm-1:             0.273557             0.160003             0.104658 
Rotational constants in MHz :          8201.027502          4796.770152          3137.563564 

Dipole components along the rotational axes: 
x,y,z [a.u.] :    -0.098890     0.063370    -0.192487 
x,y,z [Debye]:    -0.251359     0.161075    -0.489264 

 

Dipole moment calculation done in   0.0 sec 

Maximum memory used throughout the entire PROP-calculation: 2.2 MB

--------------------------------
SUGGESTED CITATIONS FOR THIS RUN
--------------------------------

Below you find a list of papers that are relevant to this ORCA run
We neither can nor want to force you to cite these papers, but we appreciate if you do
You receive ORCA, which is the product of decades of hard work by many enthusiastic individuals, for free
The only thing we kindly ask in return is that you cite our papers,
We deeply appreciate it, if you show your appreciation for ORCA by not just citing the generic ORCA reference.

Please note that relegating all ORCA citations to the supporting information does *not* help us.
SI sections are not indexed - citations you put there will not count into any citation statistics
But we need these citations in order to attract the funding resources that allow us to do what we are doing

Therefore, if you are a happy ORCA user, please consider citing a few of the papers listed below in the main body of your paper

In addition to the list printed below, the program has created the file h-shift_040.bibtex that contains the list in bibtex format
You can import this file easily into all common literature databanks and citation aid programs


List of essential papers. We consider these as the minimum necessary citations

  1. Neese, F.
     Software update: the ORCA program system, version 6.0
     WIRES Comput. Molec. Sci. 2025 15(1), e70019
     doi.org/10.1002/wcms.7019

List of papers to cite with high priority. The work reported in these papers was absolutely
necessary for this run to complete.
Our perspective: the developers of density functionals and basis sets usually get cited in chemistry papers
Good! But without the algorithms to do something with them, the functionals or basis sets would not do anything.
Hence, in our opinion, the algorithm design and method developments papers are equally worthy of getting cited

  1. Neese, F.
     The SHARK Integral Generation and Digestion System
     J. Comp. Chem. 2022 44(3), 381
     doi.org/10.1002/jcc.26942

List of suggested additional citations. These are papers that are important in the 'surrounding' of 
of this run, or papers that preceded the highly important papers. If you like your results we are grateful for a citation.

  1. Neese, F.
     The ORCA program system
     WIRES Comput. Molec. Sci. 2012 2(1), 73-78
     doi.org/10.1002/wcms.81
  2. Neese, F.
     Software update: the ORCA program system, version 4.0
     WIRES Comput. Molec. Sci. 2018 8(1), 1-6
     doi.org/10.1002/wcms.1327
  3. Neese, F.; Wennmohs, F.; Becker, U.; Riplinger, C.
     The ORCA quantum chemistry program package
     J. Chem. Phys. 2020 152(22), 224108
     doi.org/10.1063/5.0004608
  4. Neese, F.
     Software update: The ORCA program system—Version 5.0
     WIRES Comput. Molec. Sci. 2022 12(1), e1606
     doi.org/10.1002/wcms.1606

List of optional additional citations

  1. Neese, F.
     Approximate second-order SCF convergence for spin unrestricted wavefunctions
     Chem. Phys. Lett. 2000 325(1-3), 93-98
     doi.org/10.1016/s0009-2614(00)00662-x

Timings for individual modules:

Sum of individual times          ...        2.185 sec (=   0.036 min)
Startup calculation              ...        0.648 sec (=   0.011 min)  29.7 %
SCF iterations                   ...        1.171 sec (=   0.020 min)  53.6 %
Property calculations            ...        0.366 sec (=   0.006 min)  16.7 %
                             ****ORCA TERMINATED NORMALLY****
TOTAL RUN TIME: 0 days 0 hours 0 minutes 2 seconds 624 msec
