[Molden Format]
[Title]
 Molden file created by orca_2mkl for BaseName=h-shift_023

[Atoms] AU
C    1   6          0.0380704227         0.0208814738        -0.2749400347 
H    2   1          1.9890161244         0.0201123552        -0.8928483551 
C    3   6          4.8259070118         0.0294967352         2.8333797762 
C    4   6          3.8287778994        -2.2052291401         3.4159691152 
C    5   6          1.1879801135        -3.0317877921         3.1677006751 
C    6   6         -0.4516577741        -2.1663177892         1.4615860016 
H    7   1         -1.1662218068        -0.0020314556        -1.9226961858 
H    8   1         -0.2733205394         1.7990589637         0.7047110007 
H    9   1          3.7185596226         1.6516055232         2.3529792676 
H   10   1          6.8343533003         0.2940092611         2.7929037321 
H   11   1          5.1000250156        -3.6759803134         4.0130129694 
H   12   1          0.6393718299        -4.6116271860         4.3265374322 
H   13   1         -2.2415307791        -3.1115871473         1.2660749358 
[GTO]
  1 0
s   6 1.0 
     3047.5249000000         0.5363343823
      457.3695100000         0.9894506076
      103.9486900000         1.5972822308
       29.2101550000         2.0791870615
        9.2866630000         1.7741742532
        3.1639270000         0.6125798260
s   3 1.0 
        7.8682724000        -0.3995563516
        1.8812885000        -0.1841552393
        0.5442493000         0.5163903794
p   3 1.0 
        7.8682724000         1.2960827175
        1.8812885000         0.9937536282
        0.5442493000         0.4959527138
s   1 1.0 
        0.1687144000         0.1876178721
p   1 1.0 
        0.1687144000         0.1541275509

  2 0
s   3 1.0 
       18.7311370000         0.2149354183
        2.8253937000         0.3645711272
        0.6401217000         0.4150514277
s   1 1.0 
        0.1612778000         0.1813806839

  3 0
s   6 1.0 
     3047.5249000000         0.5363343823
      457.3695100000         0.9894506076
      103.9486900000         1.5972822308
       29.2101550000         2.0791870615
        9.2866630000         1.7741742532
        3.1639270000         0.6125798260
s   3 1.0 
        7.8682724000        -0.3995563516
        1.8812885000        -0.1841552393
        0.5442493000         0.5163903794
p   3 1.0 
        7.8682724000         1.2960827175
        1.8812885000         0.9937536282
        0.5442493000         0.4959527138
s   1 1.0 
        0.1687144000         0.1876178721
p   1 1.0 
        0.1687144000         0.1541275509

  4 0
s   6 1.0 
     3047.5249000000         0.5363343823
      457.3695100000         0.9894506076
      103.9486900000         1.5972822308
       29.2101550000         2.0791870615
        9.2866630000         1.7741742532
        3.1639270000         0.6125798260
s   3 1.0 
        7.8682724000        -0.3995563516
        1.8812885000        -0.1841552393
        0.5442493000         0.5163903794
p   3 1.0 
        7.8682724000         1.2960827175
        1.8812885000         0.9937536282
        0.5442493000         0.4959527138
s   1 1.0 
        0.1687144000         0.1876178721
p   1 1.0 
        0.1687144000         0.1541275509

  5 0
s   6 1.0 
     3047.5249000000         0.5363343823
      457.3695100000         0.9894506076
      103.9486900000         1.5972822308
       29.2101550000         2.0791870615
        9.2866630000         1.7741742532
        3.1639270000         0.6125798260
s   3 1.0 
        7.8682724000        -0.3995563516
        1.8812885000        -0.1841552393
        0.5442493000         0.5163903794
p   3 1.0 
        7.8682724000         1.2960827175
        1.8812885000         0.9937536282
        0.5442493000         0.4959527138
s   1 1.0 
        0.1687144000         0.1876178721
p   1 1.0 
        0.1687144000         0.1541275509

  6 0
s   6 1.0 
     3047.5249000000         0.5363343823
      457.3695100000         0.9894506076
      103.9486900000         1.5972822308
       29.2101550000         2.0791870615
        9.2866630000         1.7741742532
        3.1639270000         0.6125798260
s   3 1.0 
        7.8682724000        -0.3995563516
        1.8812885000        -0.1841552393
        0.5442493000         0.5163903794
p   3 1.0 
        7.8682724000         1.2960827175
        1.8812885000         0.9937536282
        0.5442493000         0.4959527138
s   1 1.0 
        0.1687144000         0.1876178721
p   1 1.0 
        0.1687144000         0.1541275509

  7 0
s   3 1.0 
       18.7311370000         0.2149354183
        2.8253937000         0.3645711272
        0.6401217000         0.4150514277
s   1 1.0 
        0.1612778000         0.1813806839

  8 0
s   3 1.0 
       18.7311370000         0.2149354183
        2.8253937000         0.3645711272
        0.6401217000         0.4150514277
s   1 1.0 
        0.1612778000         0.1813806839

  9 0
s   3 1.0 
       18.7311370000         0.2149354183
        2.8253937000         0.3645711272
        0.6401217000         0.4150514277
s   1 1.0 
        0.1612778000         0.1813806839

 10 0
s   3 1.0 
       18.7311370000         0.2149354183
        2.8253937000         0.3645711272
        0.6401217000         0.4150514277
s   1 1.0 
        0.1612778000         0.1813806839

 11 0
s   3 1.0 
       18.7311370000         0.2149354183
        2.8253937000         0.3645711272
        0.6401217000         0.4150514277
s   1 1.0 
        0.1612778000         0.1813806839

 12 0
s   3 1.0 
       18.7311370000         0.2149354183
        2.8253937000         0.3645711272
        0.6401217000         0.4150514277
s   1 1.0 
        0.1612778000         0.1813806839

 13 0
s   3 1.0 
       18.7311370000         0.2149354183
        2.8253937000         0.3645711272
        0.6401217000         0.4150514277
s   1 1.0 
        0.1612778000         0.1813806839

[5D]
[7F]
[9G]
[MO]
 Sym=     1a
 Ene= -1.12360488647744E+01
 Spin= Alpha
 Occup= 2.000000
  1      -0.001949381702
  2       0.000030507435
  3       0.000001379360
  4      -0.000072695706
  5       0.000059546283
  6      -0.000426755010
  7       0.000371339974
  8       0.000480418812
  9      -0.000394852866
 10       0.000127888258
 11      -0.000600602205
 12      -0.054736890112
 13      -0.000550887529
 14      -0.000093187947
 15      -0.000175170078
 16       0.000091962338
 17      -0.005396668368
 18       0.001919849406
 19       0.001958437804
 20      -0.000495749010
 21      -0.982508359933
 22      -0.024566016958
 23       0.000036862000
 24      -0.000138700153
 25       0.000114687961
 26       0.017108220385
 27      -0.001286601992
 28       0.001630501437
 29      -0.000902458372
 30      -0.058015267541
 31      -0.000695473636
 32       0.000158708755
 33       0.000081299947
 34       0.000007987217
 35      -0.004268036682
 36      -0.002142967841
 37      -0.001513417934
 38       0.000150645286
 39      -0.143422534662
 40      -0.003300789450
 41       0.000167802104
 42      -0.000040085791
 43       0.000059835557
 44       0.002375497428
 45      -0.000317211905
 46       0.000463348439
 47      -0.000296455024
 48       0.000012150957
 49      -0.000011699433
 50       0.000015028378
 51      -0.000082780394
 52       0.000268183310
 53       0.000281652309
 54       0.000080556554
 55      -0.000496638402
 56       0.000255693610
 57      -0.002105225067
 58       0.000089339619
 59      -0.000479771058
 60      -0.000013554629
 61      -0.000718870078
 Sym=     1a
 Ene= -1.12358546518452E+01
 Spin= Alpha
 Occup= 2.000000
  1       0.014900036989
  2      -0.000017153858
  3       0.000031835124
  4       0.000149861713
  5      -0.000027096580
  6       0.003631689460
  7       0.000058408007
  8      -0.002162503046
  9       0.001378724553
 10      -0.000186259256
 11       0.000128207680
 12      -0.008730584569
 13      -0.000112562925
 14       0.000019180283
 15      -0.000048839184
 16       0.000009384846
 17      -0.000445676063
 18       0.000047783686
 19       0.000422722592
 20      -0.000062521798
 21      -0.148169915821
 22      -0.003897752091
 23       0.000179899203
 24       0.000035178475
 25       0.000065312142
 26       0.002022885079
 27       0.000083350332
 28      -0.000059928952
 29       0.000037388575
 30       0.091698857431
 31       0.001392883715
 32       0.000150560859
 33      -0.000118496585
 34       0.000175351535
 35       0.004813467734
 36      -0.001264038080
 37       0.001805045174
 38      -0.002390728685
 39       0.980629284132
 40       0.024530419363
 41       0.000194294975
 42       0.000037585631
 43       0.000076124503
 44      -0.017148291811
 45      -0.002347091911
 46      -0.000940759912
 47      -0.000261141099
 48      -0.000087395892
 49       0.000176666301
 50      -0.000203029831
 51       0.000898753602
 52       0.000043971638
 53      -0.000363491808
 54       0.000016690532
 55       0.000009020291
 56       0.000029107641
 57      -0.000335217951
 58      -0.000040301823
 59       0.000735681998
 60      -0.000270744794
 61       0.001975939937
 Sym=     1a
 Ene= -1.12275767130248E+01
 Spin= Alpha
 Occup= 2.000000
  1       0.003173946658
  2       0.000073362805
  3      -0.000016380141
  4      -0.000107706983
  5       0.000142427208
  6       0.001735133232
  7       0.000239634267
  8      -0.000654278713
  9       0.000346742074
 10      -0.000053852927
 11      -0.000171437578
 12       0.007068620079
 13       0.000318190730
 14      -0.000156419466
 15      -0.000123350551
 16       0.000057866901
 17       0.000849237239
 18      -0.000026450595
 19       0.000059203203
 20      -0.000261522403
 21       0.043812128496
 22       0.001740675498
 23      -0.000164233672
 24      -0.000038470724
 25      -0.000035172018
 26      -0.006107967223
 27       0.002893061296
 28      -0.000018203638
 29       0.000968220947
 30      -0.990232783068
 31      -0.025147250288
 32      -0.000099561802
 33      -0.000160301911
 34       0.000256696832
 35       0.019572205407
 36       0.000906504047
 37       0.002625124276
 38      -0.002580756847
 39       0.099802543017
 40       0.003520790827
 41       0.000199732005
 42      -0.000025649090
 43       0.000133571026
 44      -0.009400248443
 45      -0.003461922256
 46      -0.000200096966
 47      -0.001509286656
 48      -0.000061278199
 49      -0.000165522680
 50      -0.000016832402
 51       0.000145635676
 52       0.000035231922
 53      -0.000290532366
 54      -0.000048725464
 55      -0.000322757638
 56       0.000074588593
 57      -0.000355215402
 58       0.000296700539
 59      -0.001676969561
 60       0.000010194250
 61      -0.000335305640
 Sym=     1a
 Ene= -1.12211642439966E+01
 Spin= Alpha
 Occup= 2.000000
  1       0.000417373973
  2       0.000059162030
  3       0.000014936366
  4       0.000009518616
  5       0.000129015222
  6      -0.000000393229
  7       0.000381177576
  8       0.000091278596
  9      -0.000882010375
 10       0.000165083763
 11      -0.001234689678
 12      -0.994570914514
 13      -0.024865428185
 14       0.000098261221
 15       0.000205950955
 16       0.000037762497
 17       0.016665748015
 18      -0.000971930007
 19      -0.001679782089
 20       0.000148991776
 21       0.056262440601
 22       0.002237040992
 23       0.000123997917
 24       0.000286537180
 25      -0.000051404113
 26      -0.006837634714
 27      -0.001174192073
 28      -0.002795790021
 29       0.000758452457
 30      -0.004636461334
 31      -0.000017996928
 32       0.000111478799
 33       0.000081637062
 34       0.000001325590
 35       0.000426485891
 36      -0.000380962942
 37      -0.000032397861
 38      -0.000108244758
 39      -0.000024053832
 40      -0.000044786599
 41       0.000040476722
 42       0.000018628991
 43       0.000014688664
 44       0.000257868864
 45      -0.000013451299
 46       0.000461350235
 47      -0.000331940940
 48      -0.000033862632
 49      -0.000312461465
 50      -0.000006208229
 51       0.000544967938
 52       0.000119976437
 53      -0.002729396638
 54       0.000210154106
 55      -0.002653766662
 56       0.000115364051
 57       0.000002718868
 58      -0.000037651182
 59      -0.000225374666
 60       0.000008211767
 61       0.000040878078
 Sym=     1a
 Ene= -1.12145188964618E+01
 Spin= Alpha
 Occup= 2.000000
  1       0.996085578569
  2       0.026154663670
  3      -0.000002066696
  4       0.000002006006
  5       0.000111367872
  6      -0.019232452322
  7       0.000055791230
  8       0.000721004748
  9      -0.000892952890
 10       0.000075146027
 11       0.003263090386
 12       0.000414792059
 13      -0.000040909145
 14       0.000148873516
 15      -0.000009866435
 16       0.000004981649
 17       0.000292289854
 18      -0.000849606209
 19      -0.000267795202
 20       0.000100091766
 21       0.000139464737
 22       0.000012284026
 23       0.000049507119
 24      -0.000043415866
 25       0.000041257893
 26      -0.000548356018
 27      -0.000006218044
 28      -0.000410847339
 29       0.000173533544
 30       0.001662805417
 31      -0.000160539146
 32       0.000050875710
 33      -0.000091234732
 34       0.000116008409
 35       0.000657065137
 36      -0.000458667010
 37       0.000419388533
 38      -0.000610733089
 39      -0.015430949520
 40      -0.000814777975
 41      -0.000009735968
 42      -0.000108158157
 43       0.000109443657
 44       0.004074408621
 45       0.000099238599
 46       0.002214617060
 47      -0.001988167472
 48       0.000034430252
 49       0.003089429419
 50       0.000073769021
 51       0.003331299361
 52      -0.000041219217
 53      -0.000107195385
 54       0.000067352028
 55       0.000516628738
 56      -0.000024471916
 57      -0.000015472603
 58       0.000033462381
 59       0.000449460372
 60      -0.000138499202
 61       0.000039591548
 Sym=     1a
 Ene= -1.10131753026029E+00
 Spin= Alpha
 Occup= 2.000000
  1       0.069437736007
  2      -0.128647114479
  3      -0.001642864655
  4       0.032403267497
  5      -0.030208486884
  6      -0.122654893310
  7      -0.007674497969
  8       0.003794699336
  9      -0.011091557743
 10      -0.039561038528
 11      -0.001198598446
 12       0.074826999638
 13      -0.146000663658
 14       0.033889778610
 15       0.055688666069
 16      -0.010770630808
 17      -0.099592413072
 18      -0.000857002706
 19       0.003013613105
 20       0.001343634937
 21       0.109971790851
 22      -0.218065057120
 23       0.031918125000
 24      -0.028160752482
 25       0.021625757184
 26      -0.138461495576
 27       0.006189859210
 28       0.000008628636
 29       0.002828583189
 30       0.125531673263
 31      -0.247613864567
 32       0.000788661160
 33      -0.041214453979
 34       0.048744695195
 35      -0.163362244706
 36      -0.004041112649
 37      -0.003768108923
 38       0.003429926924
 39       0.113950519763
 40      -0.226284889377
 41      -0.060306484936
 42       0.003541995143
 43      -0.034657529117
 44      -0.136566743989
 45       0.003784665518
 46       0.004274370793
 47      -0.001778795441
 48      -0.032066712362
 49      -0.005453031794
 50      -0.035425143268
 51      -0.000192326502
 52      -0.039568969153
 53      -0.006968151938
 54      -0.032779844290
 55      -0.001511464654
 56      -0.052870215308
 57      -0.008263005234
 58      -0.058356724492
 59      -0.008042443809
 60      -0.052753419117
 61      -0.004127958407
 Sym=     1a
 Ene= -1.02038984618916E+00
 Spin= Alpha
 Occup= 2.000000
  1      -0.099510480306
  2       0.189330682596
  3      -0.010552396129
  4      -0.030716799448
  5       0.023989274525
  6       0.176887921417
  7      -0.003120233978
  8      -0.000937756105
  9       0.001691509684
 10       0.052865491346
 11       0.005279208452
 12       0.122174006891
 13      -0.239692713390
 14       0.025887566696
 15       0.078639335868
 16      -0.021659041110
 17      -0.185474658322
 18       0.004345622794
 19       0.003110044383
 20      -0.000886970914
 21       0.116487664250
 22      -0.232641076356
 23      -0.055397122965
 24      -0.076013685137
 25       0.015415587555
 26      -0.161478579580
 27      -0.011785697997
 28       0.004578191245
 29      -0.004076518600
 30      -0.020549751502
 31       0.040836896048
 32      -0.097390554442
 33       0.005351312437
 34      -0.053378766188
 35       0.025273353852
 36      -0.014087951080
 37      -0.011672405636
 38       0.001203550517
 39      -0.101407667426
 40       0.201364342374
 41       0.013155810063
 42       0.021731830407
 43      -0.013253645681
 44       0.148594796308
 45       0.003558729422
 46       0.005831249171
 47      -0.003410939780
 48       0.059049554134
 49       0.008801412147
 50       0.057644783344
 51       0.005487165476
 52      -0.061788966006
 53      -0.005817028532
 54      -0.069987946955
 55      -0.016137858583
 56      -0.069261708384
 57      -0.011743843014
 58       0.010033759311
 59      -0.003786254253
 60       0.062352710745
 61       0.016583506792
 Sym=     1a
 Ene= -9.41417018717298E-01
 Spin= Alpha
 Occup= 2.000000
  1      -0.138760745714
  2       0.260901838542
  3       0.001195867352
  4       0.020912699871
  5      -0.015803798581
  6       0.294016583376
  7       0.002946083966
  8       0.002077663622
  9       0.003849748846
 10       0.099354180133
 11       0.022214146017
 12      -0.079114700133
 13       0.154698738240
 14      -0.002077794219
 15      -0.011162232333
 16       0.000446658093
 17       0.136365426387
 18      -0.003422250428
 19       0.001916281942
 20      -0.004201824789
 21      -0.002384626566
 22       0.003674151604
 23       0.095760033727
 24       0.088836759668
 25      -0.013299401350
 26       0.000516512329
 27       0.019975386556
 28       0.005830844137
 29       0.001824157763
 30       0.118919598955
 31      -0.236560791690
 32       0.035477160576
 33       0.012925590923
 34       0.017822555819
 35      -0.184664466154
 36       0.002127780927
 37       0.015648912275
 38      -0.008188942393
 39       0.029705447664
 40      -0.055904462449
 41      -0.046771086452
 42       0.114020275671
 43      -0.128041798171
 44      -0.074262686839
 45      -0.011050178583
 46       0.009334711004
 47      -0.015637559409
 48       0.101019158814
 49       0.028059375010
 50       0.099652505790
 51       0.024315728710
 52       0.060235492107
 53       0.017814201972
 54       0.057533293666
 55       0.018509502014
 56      -0.002587106849
 57      -0.004938737317
 58      -0.091183776440
 59      -0.025174941405
 60      -0.020613081038
 61      -0.007380252386
 Sym=     1a
 Ene= -8.13456889443508E-01
 Spin= Alpha
 Occup= 2.000000
  1      -0.060329440366
  2       0.114474274678
  3       0.015740574570
  4       0.064572130302
  5      -0.051450722149
  6       0.146387463176
  7      -0.002933599629
  8       0.015154260891
  9      -0.017752029503
 10       0.058686405589
 11       0.022974930511
 12       0.102007591996
 13      -0.203055614045
 14      -0.041319124623
 15      -0.079545226963
 16       0.020910334480
 17      -0.190062031900
 18      -0.015318242257
 19      -0.032105923263
 20       0.008649335562
 21      -0.086006773389
 22       0.175690673895
 23      -0.078773483787
 24      -0.151153069608
 25       0.036287360187
 26       0.162798943240
 27      -0.019832993009
 28      -0.050385031962
 29       0.013087201648
 30      -0.029847620894
 31       0.062225803689
 32       0.192708840845
 33      -0.026185067295
 34       0.100394579430
 35       0.051230353753
 36       0.044905381021
 37      -0.007253719160
 38       0.024553731594
 39       0.091995507671
 40      -0.184344158555
 41       0.038264441891
 42       0.067557821267
 43      -0.047563642271
 44      -0.178924526720
 45       0.024441403709
 46       0.011388164959
 47      -0.000173917325
 48       0.062824668700
 49       0.021136229313
 50       0.060109707947
 51       0.024094018306
 52      -0.109021373256
 53      -0.042049879673
 54      -0.113336830345
 55      -0.048440264897
 56       0.108745186379
 57       0.045045358160
 58       0.039507918763
 59       0.017754685063
 60      -0.107921622281
 61      -0.043685071424
 Sym=     1a
 Ene= -7.18282950778236E-01
 Spin= Alpha
 Occup= 2.000000
  1       0.020578669252
  2      -0.035739433862
  3      -0.095781480529
  4      -0.110404295423
  5       0.038505462593
  6      -0.060794936203
  7      -0.037554250731
  8      -0.039923971118
  9       0.010429281482
 10      -0.078959039603
 11      -0.043191869025
 12       0.038836718694
 13      -0.077657334227
 14       0.026109860750
 15      -0.197052230667
 16       0.062736514095
 17      -0.080561668938
 18       0.006418230377
 19      -0.064254513492
 20       0.023037746471
 21      -0.069893938590
 22       0.141969643615
 23       0.178465657372
 24      -0.026053029600
 25       0.029935221328
 26       0.140786672690
 27       0.059225634361
 28      -0.039198411696
 29       0.020538825265
 30       0.078107749750
 31      -0.159721623213
 32       0.005490523716
 33       0.030056604138
 34      -0.040609885911
 35      -0.155368993370
 36      -0.002484716614
 37       0.034725987278
 38      -0.034980051266
 39      -0.073718361560
 40       0.150014917279
 41      -0.157460589760
 42       0.001206829687
 43      -0.101011830619
 44       0.155047083316
 45      -0.069526560391
 46      -0.006889903147
 47      -0.039483144552
 48      -0.002387847901
 49       0.001219922894
 50      -0.054054953890
 51      -0.029459318350
 52      -0.142462846250
 53      -0.087410032619
 54      -0.040316098961
 55      -0.019710512542
 56       0.141065240824
 57       0.067840380340
 58      -0.102199633610
 59      -0.041500147501
 60       0.151873935846
 61       0.076556070745
 Sym=     1a
 Ene= -6.67877365933398E-01
 Spin= Alpha
 Occup= 2.000000
  1       0.017189719559
  2      -0.031753810809
  3       0.087046452122
  4      -0.068386621647
  5       0.111025504972
  6      -0.051127414554
  7       0.045086350958
  8      -0.023754348017
  9       0.047518604201
 10       0.015661531442
 11       0.010059132949
 12       0.021693736060
 13      -0.043103062107
 14      -0.190413426931
 15      -0.085693723789
 16       0.000665892443
 17      -0.061072894289
 18      -0.073248150595
 19      -0.021212048320
 20      -0.006272339587
 21      -0.024905297377
 22       0.053142541700
 23      -0.098837650146
 24       0.139006400570
 25      -0.082421526765
 26       0.046696206909
 27      -0.031210145043
 28       0.043886154764
 29      -0.028831081149
 30       0.020995843475
 31      -0.040423923474
 32       0.065298311139
 33       0.232468609087
 34      -0.167798079192
 35      -0.054645084523
 36       0.024373874912
 37       0.097317982437
 38      -0.068870189640
 39      -0.023326402266
 40       0.048766821260
 41       0.168351218135
 42       0.091126035362
 43       0.017495127223
 44       0.034625060947
 45       0.051685301531
 46       0.037559592980
 47      -0.002770408703
 48      -0.097228587089
 49      -0.058285827705
 50      -0.026826403133
 51      -0.015565874364
 52      -0.001428687430
 53      -0.006478720731
 54      -0.135906371853
 55      -0.085275603084
 56      -0.080238804427
 57      -0.058763932817
 58      -0.188084677319
 59      -0.114069333529
 60      -0.083356896953
 61      -0.058516955006
 Sym=     1a
 Ene= -6.02444746359109E-01
 Spin= Alpha
 Occup= 2.000000
  1       0.010803751068
  2      -0.020781355354
  3      -0.161205188536
  4      -0.028746907878
  5      -0.017780878456
  6      -0.031162464410
  7      -0.069929352672
  8      -0.014194025723
  9      -0.000755635973
 10      -0.094636874966
 11      -0.063911650434
 12      -0.007727789680
 13       0.017048761530
 14      -0.263139241929
 15       0.100433623467
 16      -0.014349454880
 17       0.030638858371
 18      -0.120790658841
 19       0.046992478180
 20      -0.003915505552
 21      -0.015612300566
 22       0.036094821716
 23      -0.191911503732
 24       0.071952312181
 25      -0.004965968599
 26       0.025088750828
 27      -0.067858648302
 28       0.017165149460
 29       0.009748553556
 30       0.009820862030
 31      -0.022214307958
 32       0.166622756286
 33      -0.036216087106
 34       0.156564768506
 35       0.011578951677
 36       0.050223431918
 37       0.006078616245
 38       0.043595945216
 39       0.003345017873
 40      -0.009179309515
 41      -0.244788402622
 42       0.015821892088
 43      -0.125653613345
 44      -0.002330150338
 45      -0.108634466076
 46      -0.001803328360
 47      -0.045447251040
 48       0.059422772102
 49       0.050266379185
 50      -0.011913951749
 51      -0.003157512086
 52       0.142542591969
 53       0.091977900394
 54      -0.143909203753
 55      -0.100421745946
 56      -0.089382582275
 57      -0.071678271029
 58       0.034331946325
 59       0.033111632586
 60       0.135673919531
 61       0.094285534651
 Sym=     1a
 Ene= -5.84591992045243E-01
 Spin= Alpha
 Occup= 2.000000
  1       0.006800866738
  2      -0.008168108276
  3       0.015512754891
  4      -0.179946793918
  5       0.124643130326
  6      -0.037498968763
  7       0.009391799038
  8      -0.075242947812
  9       0.051599834531
 10      -0.017598373804
 11      -0.010187488916
 12       0.007197981859
 13      -0.019260284466
 14       0.147990917161
 15       0.283279615677
 16      -0.084916882227
 17       0.016864597239
 18       0.049464831476
 19       0.101882842757
 20      -0.033306219583
 21       0.007806841576
 22      -0.018610931014
 23      -0.125905235455
 24      -0.307160379185
 25       0.056079152456
 26       0.004045016846
 27      -0.031301476045
 28      -0.111213680219
 29       0.019005620099
 30       0.010665222954
 31      -0.021289703553
 32       0.203400451957
 33       0.048610373351
 34      -0.006699579910
 35      -0.022136623284
 36       0.083519866005
 37       0.020648576302
 38      -0.009218118902
 39      -0.024236352977
 40       0.049280380978
 41       0.023305181272
 42       0.141582325588
 43      -0.159286330878
 44       0.084207776911
 45       0.015544448366
 46       0.055170866185
 47      -0.064515403172
 48      -0.075827943482
 49      -0.055723294912
 50      -0.068059531928
 51      -0.051482800018
 52       0.097030945631
 53       0.070633516853
 54       0.111422835524
 55       0.087676065535
 56       0.094888032200
 57       0.070703662598
 58      -0.073757177618
 59      -0.051111741830
 60      -0.014437615874
 61      -0.013574582551
 Sym=     1a
 Ene= -5.67642431198550E-01
 Spin= Alpha
 Occup= 2.000000
  1       0.000461002851
  2      -0.001904039479
  3      -0.126234030069
  4       0.236953362440
  5       0.316131386294
  6      -0.000855863832
  7      -0.064144427792
  8       0.121670004831
  9       0.158360929292
 10      -0.146938625819
 11      -0.115543296434
 12       0.004429192926
 13      -0.008626642297
 14       0.022737594138
 15       0.022370710126
 16       0.021439718597
 17      -0.012261318014
 18       0.004918811000
 19       0.004819153002
 20       0.018137352813
 21      -0.001201995904
 22       0.003189154471
 23       0.025729551139
 24      -0.029998892540
 25       0.050085796276
 26       0.004000018393
 27       0.011687252452
 28      -0.015340484937
 29       0.026128304013
 30       0.002992089578
 31      -0.003864898449
 32      -0.034300846059
 33       0.045136012911
 34       0.047311331715
 35      -0.020797755931
 36      -0.017838321618
 37       0.022339100672
 38       0.039770258295
 39      -0.005711379800
 40       0.009566521809
 41      -0.028514980102
 42       0.103649909999
 43       0.082523739418
 44       0.029244780851
 45      -0.008252331841
 46       0.049477000776
 47       0.046126976510
 48      -0.124068352935
 49      -0.095788199011
 50       0.251735447648
 51       0.196265489009
 52       0.003648227899
 53       0.013293956108
 54       0.011245925486
 55       0.011370063661
 56       0.037369399922
 57       0.027203101025
 58      -0.002114355198
 59      -0.004897736097
 60      -0.013816427251
 61      -0.011345923609
 Sym=     1a
 Ene= -5.42565048234318E-01
 Spin= Alpha
 Occup= 2.000000
  1      -0.006206515318
  2       0.016257202622
  3      -0.306462585769
  4      -0.068176851358
  5      -0.069193915865
  6      -0.008162077177
  7      -0.173681860899
  8      -0.030867593321
  9      -0.050713018612
 10      -0.183290558356
 11      -0.142047557851
 12      -0.012934477319
 13       0.028525373613
 14       0.167197944537
 15      -0.071119980507
 16       0.038846139486
 17       0.015259174698
 18       0.104328701908
 19      -0.032498856756
 20       0.027068180499
 21       0.007998894734
 22      -0.014839896574
 23      -0.136618519945
 24       0.088055809609
 25      -0.040267875655
 26      -0.014759910825
 27      -0.085070883228
 28       0.064438458612
 29      -0.026576160797
 30      -0.035120725185
 31       0.078222903907
 32       0.070499530731
 33       0.102292637418
 34      -0.025501692370
 35       0.071737033253
 36       0.017155513936
 37       0.023175538685
 38       0.005329340880
 39       0.007992029171
 40      -0.016042186345
 41       0.108877471093
 42       0.102173244727
 43      -0.002525096086
 44      -0.015468059517
 45       0.073154637133
 46       0.066862861620
 47      -0.001381522943
 48       0.174259638285
 49       0.133613741398
 50      -0.027318641502
 51      -0.022781550705
 52      -0.110366260923
 53      -0.085363317571
 54       0.125638266497
 55       0.089294841967
 56      -0.122847420624
 57      -0.083766309028
 58      -0.032269524795
 59      -0.041777722061
 60      -0.108693503676
 61      -0.071963233955
 Sym=     1a
 Ene= -5.07272762884951E-01
 Spin= Alpha
 Occup= 2.000000
  1      -0.016973809908
  2       0.037846995116