
                                 *****************
                                 * O   R   C   A *
                                 *****************

                                            #,                                       
                                            ###                                      
                                            ####                                     
                                            #####                                    
                                            ######                                   
                                           ########,                                 
                                     ,,################,,,,,                         
                               ,,#################################,,                 
                          ,,##########################################,,             
                       ,#########################################, ''#####,          
                    ,#############################################,,   '####,        
                  ,##################################################,,,,####,       
                ,###########''''           ''''###############################       
              ,#####''   ,,,,##########,,,,          '''####'''          '####       
            ,##' ,,,,###########################,,,                        '##       
           ' ,,###''''                  '''############,,,                           
         ,,##''                                '''############,,,,        ,,,,,,###''
      ,#''                                            '''#######################'''  
     '                                                          ''''####''''         
             ,#######,   #######,   ,#######,      ##                                
            ,#'     '#,  ##    ##  ,#'     '#,    #''#        ,####,    ,#,          
            ##       ##  ##   ,#'  ##            #'  '#       #'       ,# #          
            ##       ##  #######   ##           ,######,      #####,      #          
            '#,     ,#'  ##    ##  '#,     ,#' ,#      #,     #,   #      #          
             '#######'   ##     ##  '#######'  #'      '#     '####' #    #          



                #########################################################
                #                        -***-                          #
                #          Department of theory and spectroscopy        #
                #                                                       #
                #                      Frank Neese                      #
                #                                                       #
                #     Directorship, Architecture, Infrastructure        #
                #                    SHARK, DRIVERS                     #
                #        Core code/Algorithms in most modules           #
                #                                                       #
                #        Max Planck Institute fuer Kohlenforschung      #
                #                Kaiser Wilhelm Platz 1                 #
                #                 D-45470 Muelheim/Ruhr                 #
                #                      Germany                          #
                #                                                       #
                #                  All rights reserved                  #
                #                        -***-                          #
                #########################################################


                         Program Version 6.1.0  -  RELEASE   -
                                (GIT: $679e74b$)
                          ($2025-06-10 18:02:51 +0200$)


 With contributions from (in alphabetic order):
[Max-Planck-Institut fuer Kohlenforschung]                               
  Daniel Aravena         : Magnetic Suceptibility                        
  Michael Atanasov       : Ab Initio Ligand Field Theory (pilot matlab implementation)
  Alexander A. Auer      : GIAO ZORA, VPT2 properties, NMR spectrum      
  Ute Becker             : All parallelization in ORCA, NUMFREQ, NUMCALC 
  Giovanni Bistoni       : ED, misc. LED, open-shell LED, HFLD           
  Dmytro Bykov           : pre 5.0 version of the SCF Hessian            
  Marcos Casanova-Páez   : Triplet and SCS-CIS(D). UHF-(DLPNO)-IP/EA/STEOM-CCSD. UHF-CVS-IP/STEOM-CCSD   
  Vijay G. Chilkuri      : MRCI spin determinant printing, contributions to CSF-ICE 
  Pauline Colinet        : FMM embedding                                 
  Dipayan Datta          : RHF DLPNO-CCSD density                        
  Achintya Kumar Dutta   : EOM-CC, STEOM-CC                              
  Nicolas Foglia         : Exact transition moments, OPA infrastructure, MCD improvements    
  Dmitry Ganyushin       : Spin-Orbit,Spin-Spin,Magnetic field MRCI      
  Miquel Garcia-Rates    : C-PCM and meta-GGA Hessian, CCSD/C-PCM, Gaussian charge scheme 
  Tiago L. C. Gouveia    : GS-ROHF, GS-ROCIS                             
  Yang Guo               : DLPNO-NEVPT2, F12-NEVPT2, CIM, IAO-localization        
  Andreas Hansen         : Spin unrestricted coupled pair/coupled cluster methods 
  Ingolf Harden          : AUTO-CI MPn and infrastructure                
  Benjamin Helmich-Paris : MC-RPA, TRAH-(SCF,CASSCF), AVAS, COSX integrals, SCF dyn. polar., MC-PDFT, srDFT 
  Lee Huntington         : MR-EOM, pCC                                   
  Robert Izsak           : Overlap fitted RIJCOSX, COSX-SCS-MP3, EOM     
  Riya Kayal             : Wick's Theorem for AUTO-CI, AUTO-CI UHF-CCSDT 
  Emily Kempfer          : AUTO-CI RHF CISDT and CCSDT, approximate NEVPT4
  Christian Kollmar      : KDIIS, OOCD, Brueckner-CCSD(T), CCSD density, CASPT2, CASPT2-K, improved NEVPT2 
  Axel Koslowski         : Symmetry handling                             
  Simone Kossmann        : meta-GGA functionals, TD-DFT gradient, OOMP2, (MP2 Hessian; deprecated post 5.0) 
  Lucas Lang             : DCDCAS, Hyperfine gauge corrections, ICE-SOC+SSC
  Marvin Lechner         : AUTO-CI (C++ implementation), FIC-MRCC        
  Spencer Leger          : CASSCF response                               
  Dagmar Lenk            : GEPOL surface, SMD, ORCA-2-JSON               
  Dimitrios Liakos       : Extrapolation schemes; Compound Job, Property file
  Dimitrios Manganas     : Further ROCIS development; embedding schemes. LFT, Crystal Embedding 
  Dimitrios Pantazis     : SARC Basis sets                               
  Anastasios Papadopoulos: AUTO-CI, single reference methods and gradients 
  Taras Petrenko         : pre 6.0 DFT Hessian and TD-DFT gradient,  ECA, NRVS 
  Petra Pikulova         : Analytic Raman intensities                    
  Peter Pinski           : DLPNO-MP2, DLPNO-MP2 Gradient                 
  Shashank Vittal Rao    : ES-AILFT, MagRelax                            
  Christoph Reimann      : Effective Core Potentials                     
  Marius Retegan         : Local ZFS, SOC                                
  Christoph Riplinger    : Optimizer, TS searches, QM/MM, DLPNO-CCSD(T), (RO)-DLPNO pert. Triples 
  Michael Roemelt        : Original ROCIS implementation, recursive CI coupling coefficients
  Masaaki Saitow         : Open-shell DLPNO-CCSD energy and density      
  Barbara Sandhoefer     : DKH picture change effects                    
  Yorick L. A. Schmerwitz: GMF and freeze-and-release deltaSCF, NEB S-IDPP initial path                    
  Kantharuban Sivalingam : CASSCF convergence/infrastructure, NEVPT2, NEVPT3, NEVPT4(SD), FIC-MRCI and CEPA variants
  Bernardo de Souza      : ESD, SOC TD-DFT                               
  Georgi L. Stoychev     : AutoAux, RI-MP2 NMR, DLPNO-MP2 response, X2C  
  Van Anh Tran           : RI-MP2 g-tensors                              
  Willem Van den Heuvel  : Paramagnetic NMR                              
  Zikuan Wang            : NOTCH, Electric field optimization            
  Frank Wennmohs         : Technical directorship and infrastructure     
  Hang Xu                : AUTO-CI-Response properties                   
                                                                         
[FACCTs GmbH]                                                            
  Markus Bursch, Nicolas Foglia, Miquel Garcia-Rates, Ingolf Harden, Hagen Neugebauer, Anastasios Papadopoulos, 
  Christoph Riplinger, Bernardo de Souza, Georgi L. Stoychev                                                    
                                                                 
  APM, various basis sets, CI-OPT, improved COSX, DLPNO-Multilevel,           
  DOCKER, DRACO, updates on ESD, Fragmentator, GOAT, IRC, LR-CPCM, L-BFGS, MBIS, meta-GGA TD-DFT gradient, ML-optimized integration grids, 
  MM, NACMEs, nearIR, NEB, NEB-TS, NL-DFT gradient (VV10), 2- and 3-layer-ONIOM, interface openCOSMO-RS, QMMM,   
  Crystal-QMMM, RESP, rigid body optimization, SF, symmetry and pop. for TD-DFT, various functionals, SOLVATOR                                   
                                                                         
[Other institutions]                                                     
  V. Asgeirsson          : NEB                                           
  Christoph Bannwarth    : sTDA-DFT, sTD-DFT, PBEh-3c, B97-3c, D3        
  Giovanni Bistoni       : ETS/NOCV, ADLD/ADEX, COVALED                  
  Martin Brehm           : Molecular dynamics                            
  Ronald Cardenas        : ETS/NOCV                                      
  Martina Colucci        : COVALED                                       
  Sebastian Ehlert       : rSCAN, r2SCAN, r2SCAN-3c, D4, dhf basis sets  
  Marvin Friede          : D4 for Fr, Ra, Ac-Lr                          
  Lars Goerigk           : TD-DFT with DH, B97 family of functionals     
  Stefan Grimme          : VdW corrections, initial TS optimization, DFT functionals, gCP, sTDA/sTD-DF 
  Waldemar Hujo          : DFT-NL                                        
  H. Jonsson             : NEB                                           
  Holger Kruse           : gCP                                           
  Marcel Mueller         : wB97X-3c, vDZP basis set                      
  Hagen Neugebauer       : wr2SCAN, Native XTB                           
  Gianluca Regni         : ADLD/ADEX                                     
  Tobias Risthaus        : pre 6.0 range-separated hybrid DFT and stability analysis
  Lukas Wittmann         : regularized MP2, r2SCAN double-hybrids, wr2SCAN        
                                                                         
We gratefully acknowledge several colleagues who have allowed us to      
interface, adapt or use parts of their codes:                            
  Ed Valeev, F. Pavosevic, A. Kumar             : LibInt (2-el integral package), F12 methods 
  Garnet Chan, S. Sharma, J. Yang, R. Olivares  : DMRG                   
  Ulf Ekstrom                                   : XCFun DFT Library      
  Mihaly Kallay                                 : mrcc  (arbitrary order and MRCC methods)
  Frank Weinhold                                : gennbo (NPA and NBO analysis)           
  Simon Mueller                                 : openCOSMO-RS                            
  Christopher J. Cramer and Donald G. Truhlar   : smd solvation model                     
  S Lehtola, MJT Oliveira, MAL Marques          : LibXC Library                           
  Liviu Ungur et al                             : ANISO software                          


 Your calculation uses the libint2 library for the computation of 2-el integrals
 For citations please refer to: http://libint.valeyev.net

 Your ORCA version has been built with support for libXC version: 7.0.0
 For citations please refer to: https://libxc.gitlab.io

 This ORCA versions uses:
   CBLAS   interface :  Fast vector & matrix operations
   LAPACKE interface :  Fast linear algebra routines
   SCALAPACK package :  Parallel linear algebra routines
   Shared memory     :  Shared parallel matrices
   BLAS/LAPACK       :  OpenBLAS 0.3.29  USE64BITINT DYNAMIC_ARCH NO_AFFINITY Zen SINGLE_THREADED
        Core in use  :  Zen
   Copyright (c) 2011-2014, The OpenBLAS Project


  ***********************************
  * Starting time: Sun Apr  5 13:01:04 2026
  * Host name:     QC1
  * Process ID:    7364
  * Working dir.:  /home/user/QC/h-shift/split_2
  ***********************************

NOTE: MaxCore=1200 MB was set to SCF,MP2,MDCI,CIPSI,MRCI,RASCI and CIS
      => If you want to overwrite this, your respective input block should be placed after the MaxCore statement
================================================================================

----- Orbital basis set information -----
Your calculation utilizes the basis: 6-31G
   H-He, Li-Ne : W. J. Hehre, R. Ditchfield and J.A. Pople, J. Chem. Phys. 56, 2257 (1972).
                 Note: He and Ne are unpublished basis sets taken from the Gaussian program.
                 Note: Li and B from J. D. Dill and J. A. Pople, J. Chem. Phys. 62, 2921 (1975).
   Na - Ar     : M. M. Francl, W. J. Pietro, W. J. Hehre, J. S. Binkley, M. S. Gordon, 
                 D. J. DeFrees and J. A. Pople, J. Chem. Phys. 77, 3654 (1982).
   K - Zn      : V. A. Rassolov, J. A. Pople, M. A. Ratner, and T. L. Windus, J. Chem. Phys. 109, 1223 (1998).

================================================================================
                                        WARNINGS
                       Please study these warnings very carefully!
================================================================================


================================================================================
                                       INPUT FILE
================================================================================
NAME = h-shift_035.inp
|  1> ! HF 6-31G
|  2> %maxcore 1200
|  3> %pal nprocs 8 end
|  4> * xyz 0 1
|  5> C    0.05719500   0.01485100  -0.09755700
|  6> H    1.10739900  -0.00915300  -0.36305300
|  7> C    2.50966100   0.02799200   1.45129500
|  8> C    1.98161500  -1.13340300   1.84027500
|  9> C    0.59182200  -1.59388300   1.72485800
| 10> C   -0.24412800  -1.16261300   0.77653100
| 11> H   -0.52648800   0.04265000  -1.00341500
| 12> H   -0.09884500   0.94734100   0.43784900
| 13> H    1.93379200   0.90594500   1.24984100
| 14> H    3.56258100   0.11813500   1.26841100
| 15> H    2.66302300  -1.91065300   2.13568900
| 16> H    0.32176300  -2.46047500   2.30539500
| 17> H   -1.14361500  -1.71878100   0.57427200
| 18> *
| 19> 
| 20>                          ****END OF INPUT****
================================================================================

                       ****************************
                       * Single Point Calculation *
                       ****************************

---------------------------------
CARTESIAN COORDINATES (ANGSTROEM)
---------------------------------
  C      0.057195    0.014851   -0.097557
  H      1.107399   -0.009153   -0.363053
  C      2.509661    0.027992    1.451295
  C      1.981615   -1.133403    1.840275
  C      0.591822   -1.593883    1.724858
  C     -0.244128   -1.162613    0.776531
  H     -0.526488    0.042650   -1.003415
  H     -0.098845    0.947341    0.437849
  H      1.933792    0.905945    1.249841
  H      3.562581    0.118135    1.268411
  H      2.663023   -1.910653    2.135689
  H      0.321763   -2.460475    2.305395
  H     -1.143615   -1.718781    0.574272

----------------------------
CARTESIAN COORDINATES (A.U.)
----------------------------
  NO LB      ZA    FRAG     MASS         X           Y           Z
   0 C     6.0000    0    12.011    0.108083    0.028064   -0.184356
   1 H     1.0000    0     1.008    2.092681   -0.017297   -0.686071
   2 C     6.0000    0    12.011    4.742572    0.052897    2.742550
   3 C     6.0000    0    12.011    3.744710   -2.141821    3.477616
   4 C     6.0000    0    12.011    1.118382   -3.012002    3.259509
   5 C     6.0000    0    12.011   -0.461335   -2.197020    1.467431
   6 H     1.0000    0     1.008   -0.994918    0.080597   -1.896180
   7 H     1.0000    0     1.008   -0.186790    1.790215    0.827415
   8 H     1.0000    0     1.008    3.654337    1.711988    2.361857
   9 H     1.0000    0     1.008    6.732302    0.223243    2.396949
  10 H     1.0000    0     1.008    5.032384   -3.610611    4.035867
  11 H     1.0000    0     1.008    0.608044   -4.649624    4.356565
  12 H     1.0000    0     1.008   -2.161119   -3.248025    1.085217

--------------------------------
INTERNAL COORDINATES (ANGSTROEM)
--------------------------------
 C      0   0   0     0.000000000000     0.00000000     0.00000000
 H      1   0   0     1.083509464494     0.00000000     0.00000000
 C      2   1   0     2.293376796947   113.48033069     0.00000000
 C      3   2   1     1.333782727636    88.54155959    62.33194344
 C      4   3   2     1.468634568958   128.66361462   323.80911726
 C      5   4   3     1.335713410253   123.14829528    27.08759701
 H      1   2   3     1.077978360197   108.63144267   177.30457910
 H      1   2   3     1.086529183472   106.19792745    60.99542362
 H      3   2   1     1.069116593027    62.28218188   292.35239189
 H      3   2   1     1.072479764054   117.82312840   186.74994812
 H      4   3   2     1.075036676751   117.30665218   132.92232103
 H      5   4   3     1.077467756508   116.55278180   194.10113936
 H      6   5   4     1.076711851181   119.30255624   163.38823005

---------------------------
INTERNAL COORDINATES (A.U.)
---------------------------
 C      0   0   0     0.000000000000     0.00000000     0.00000000
 H      1   0   0     2.047536151405     0.00000000     0.00000000
 C      2   1   0     4.333854068119   113.48033069     0.00000000
 C      3   2   1     2.520484077387    88.54155959    62.33194344
 C      4   3   2     2.775317126140   128.66361462   323.80911726
 C      5   4   3     2.524132538784   123.14829528    27.08759701
 H      1   2   3     2.037083879067   108.63144267   177.30457910
 H      1   2   3     2.053242593275   106.19792745    60.99542362
 H      3   2   1     2.020337566052    62.28218188   292.35239189
 H      3   2   1     2.026693038234   117.82312840   186.74994812
 H      4   3   2     2.031524902980   117.30665218   132.92232103
 H      5   4   3     2.036118977930   116.55278180   194.10113936
 H      6   5   4     2.034690523880   119.30255624   163.38823005

---------------------
BASIS SET INFORMATION
---------------------
There are 2 groups of distinct atoms

 Group   1 Type C   : 10s4p contracted to 3s2p pattern {631/31}
 Group   2 Type H   : 4s contracted to 2s pattern {31}

Atom   0C    basis set group =>   1
Atom   1H    basis set group =>   2
Atom   2C    basis set group =>   1
Atom   3C    basis set group =>   1
Atom   4C    basis set group =>   1
Atom   5C    basis set group =>   1
Atom   6H    basis set group =>   2
Atom   7H    basis set group =>   2
Atom   8H    basis set group =>   2
Atom   9H    basis set group =>   2
Atom  10H    basis set group =>   2
Atom  11H    basis set group =>   2
Atom  12H    basis set group =>   2


           ************************************************************
           *        Program running with 8 parallel MPI-processes     *
           *              working on a common directory               *
           ************************************************************
------------------------------------------------------------------------------
                             ORCA STARTUP CALCULATIONS
------------------------------------------------------------------------------
------------------------------------------------------------------------------
                   ___                                                        
                  /   \      - P O W E R E D   B Y -                         
                 /     \                                                     
                 |  |  |   _    _      __       _____    __    __             
                 |  |  |  | |  | |    /  \     |  _  \  |  |  /  |          
                  \  \/   | |  | |   /    \    | | | |  |  | /  /          
                 / \  \   | |__| |  /  /\  \   | |_| |  |  |/  /          
                |  |  |   |  __  | /  /__\  \  |    /   |      \           
                |  |  |   | |  | | |   __   |  |    \   |  |\   \          
                \     /   | |  | | |  |  |  |  | |\  \  |  | \   \       
                 \___/    |_|  |_| |__|  |__|  |_| \__\ |__|  \__/        
                                                                              
                      - O R C A' S   B I G   F R I E N D -                    
                                      &                                       
                       - I N T E G R A L  F E E D E R -                       
                                                                              
 v1 FN, 2020, v2 2021, v3 2022-2024                                           
------------------------------------------------------------------------------


----------------------
SHARK INTEGRAL PACKAGE
----------------------

Number of atoms                             ...     13
Number of basis functions                   ...     61
Number of shells                            ...     41
Maximum angular momentum                    ...      1
Integral batch strategy                     ... SHARK/LIBINT Hybrid
RI-J (if used) integral strategy            ... SPLIT-RIJ (Revised 2003 algorithm where possible)
Printlevel                                  ...      1
Contraction scheme used                     ... SEGMENTED contraction
Prescreening option                         ... SCHWARTZ
   Thresh                                   ... 1.000e-10
   Tcut                                     ... 1.000e-11
   Tpresel                                  ... 1.000e-11 
Coulomb Range Separation                    ... NOT USED
Exchange Range Separation                   ... NOT USED
Multipole approximations                    ... NOT USED
Finite Nucleus Model                        ... NOT USED
CABS basis                                  ... NOT available
Auxiliary Coulomb fitting basis             ... NOT available
Auxiliary J/K fitting basis                 ... NOT available
Auxiliary Correlation fitting basis         ... NOT available
Auxiliary 'external' fitting basis          ... NOT available

Checking pre-screening integrals            ... done (  0.0 sec) Dimension = 41
   => SHARK Basis and OBASIS are compatible. Storing Pre-screening
Shell pair information
Shell pair cut-off parameter TPreSel        ...   1.0e-11
Total number of shell pairs                 ...       861
Shell pairs after pre-screening             ...       846
Total number of primitive shell pairs       ...      5382
Primitive shell pairs kept                  ...      3750
          la=0 lb=0:    481 shell pairs
          la=1 lb=0:    310 shell pairs
          la=1 lb=1:     55 shell pairs

Checking whether 4 symmetric matrices of dimension 61 fit in memory
:Max Core in MB      =   1200.00
 MB in use           =      2.05
 MB left             =   1197.95
 MB needed           =      0.06
 Data fit in memory  = YES
Calculating Nuclear repulsion               ... done (  0.0 sec) ENN=    162.224341231235 Eh

Diagonalization of the overlap matrix:
Smallest eigenvalue                        ... 3.463e-03
Time for diagonalization                   ...    0.001 sec
Threshold for overlap eigenvalues          ... 1.000e-07
Number of eigenvalues below threshold      ... 0
Time for construction of square roots      ...    0.001 sec
Total time needed                          ...    0.003 sec

-------------------
DFT GRID GENERATION
-------------------

General Integration Accuracy     IntAcc      ... 4.388
Radial Grid Type                 RadialGrid  ... OptM3 with GC (2021)
Angular Grid (max. ang.)         AngularGrid ... 4 (Lebedev-302)
Angular grid pruning method      GridPruning ... 4 (adaptive)
Weight generation scheme         WeightScheme... mBecke (2022)
Basis function cutoff            BFCut       ... 1.0000e-10
Integration weight cutoff        WCut        ... 1.0000e-14
Partially contracted basis set               ... off
Rotationally invariant grid construction     ... off
Angular grids for H and He will be reduced by one unit

Total number of grid points                  ...    56014
Total number of batches                      ...      881
Average number of points per batch           ...       63
Average number of grid points per atom       ...     4309
Grids setup in   0.2 sec
Initializing property integral containers    ... done (  0.0 sec)

SHARK setup successfully completed in   0.3 seconds

Maximum memory used throughout the entire STARTUP-calculation: 11.8 MB


           ************************************************************
           *        Program running with 8 parallel MPI-processes     *
           *              working on a common directory               *
           ************************************************************
-------------------------------------------------------------------------------
                                 ORCA GUESS
                   Start orbitals & Density for SCF / CASSCF
-------------------------------------------------------------------------------

------------
SCF SETTINGS
------------
Hamiltonian:
 Ab initio Hamiltonian  Method          .... Hartree-Fock(GTOs)


General Settings:
 Integral files         IntName         .... h-shift_035
 Hartree-Fock type      HFTyp           .... RHF
 Total Charge           Charge          ....    0
 Multiplicity           Mult            ....    1
 Number of Electrons    NEL             ....   38
 Basis Dimension        Dim             ....   61
 Nuclear Repulsion      ENuc            ....    162.2243412312 Eh

Convergence Acceleration:
 AO-DIIS                CNVDIIS         .... on
   Start iteration      DIISMaxIt       ....    12
   Startup error        DIISStart       ....  0.200000
   # of expansion vecs  DIISMaxEq       ....     5
   Bias factor          DIISBfac        ....   1.050
   Max. coefficient     DIISMaxC        ....  10.000
 MO-DIIS                CNVKDIIS        .... off
 Trust-Rad. Augm. Hess. CNVTRAH         .... auto
   Auto Start mean grad. ratio tolernc. ....  1.125000
   Auto Start start iteration           ....    50
   Auto Start num. interpolation iter.  ....    10
   Max. Number of Micro iterations      ....    24
   Max. Number of Macro iterations      .... Maxiter - #DIIS iter
   Number of Davidson start vectors     ....     2
   Converg. threshold    (grad. norm)   ....   5.000e-05
   Grad. Scal. Fac. for Micro threshold ....   0.100
   Minimum threshold for Micro iter.    ....   1.000e-02
   NR start threshold (gradient norm)   ....   1.000e-04
   Initial trust radius                 ....   0.400
   Minimum AH scaling param. (alpha)    ....   1.000
   Maximum AH scaling param. (alpha)    .... 1000.000
   Quad. conv. algorithm                .... NR
   White noise on init. David. guess    .... on
   Maximum white noise                  ....   0.010
   Pseudo random numbers                .... off
   Inactive MOs                         .... canonical
   Orbital update algorithm             .... Taylor
   Preconditioner                       .... Diag
   Full preconditioner red. dimension   ....   250
 SOSCF                 CNVSOSCF           .... on
   Start iteration     SOSCFMaxIt         ....   150
   Startup grad/error  SOSCFStart         ....  0.003300
   Hessian update      SOSCFHessUp        .... L-BFGS
   Autom. constraints  SOSCFAutoConstrain .... off
 Level Shifting         CNVShift        .... on
   Level shift para.    LevelShift      ....    0.2500
   Turn off err/grad.   ShiftErr        ....    0.0010
 Zerner damping         CNVZerner       .... off
 Static damping         CNVDamp         .... on
   Fraction old density DampFac         ....    0.7000
   Max. Damping (<1)    DampMax         ....    0.9800
   Min. Damping (>=0)   DampMin         ....    0.0000
   Turn off err/grad.   DampErr         ....    0.1000

SCF Procedure:
 Maximum # iterations   MaxIter         ....   125
 SCF integral mode      SCFMode         .... Direct
   Integral package                     .... SHARK and LIBINT hybrid scheme
 Reset frequency        DirectResetFreq ....    20
 Integral Threshold     Thresh          ....  1.000e-10 Eh
 Primitive CutOff       TCut            ....  1.000e-11 Eh

Convergence Tolerance:
 Convergence Check Mode ConvCheckMode   .... Total+1el-Energy
 Convergence forced     ConvForced      .... 0
 Energy Change          TolE            ....  1.000e-06 Eh
 1-El. energy change                    ....  1.000e-03 Eh
 Orbital Gradient       TolG            ....  5.000e-05
 Orbital Rotation angle TolX            ....  5.000e-05
 DIIS Error             TolErr          ....  1.000e-06

------------------------------
INITIAL GUESS: MODEL POTENTIAL
------------------------------
Loading Hartree-Fock densities                     ... done
Calculating cut-offs                               ... done
Initializing the effective Hamiltonian             ... done
Setting up the integral package (SHARK)            ... done
Starting the Coulomb interaction                   ... done (   0.0 sec)
Making the grid                                    ... done (   0.1 sec)
Mapping shells                                     ... done
Starting the XC term evaluation                    ... done (   0.0 sec)
Transforming the Hamiltonian                       ... done (   0.0 sec)
Diagonalizing the Hamiltonian                      ... done (   0.0 sec)
Back transforming the eigenvectors                 ... done (   0.0 sec)
Now organizing SCF variables                       ... done
                      ------------------
                      INITIAL GUESS DONE (   0.1 sec)
                      ------------------
             **** ENERGY FILE WAS UPDATED (h-shift_035.en.tmp) ****
Finished Guess after   0.4 sec
Maximum memory used throughout the entire GUESS-calculation: 4.2 MB


           ************************************************************
           *        Program running with 8 parallel MPI-processes     *
           *              working on a common directory               *
           ************************************************************

-------------------------------------------------------------------------------------------
                                      ORCA LEAN-SCF
                              memory conserving SCF solver
-------------------------------------------------------------------------------------------

----------------------------------------D-I-I-S--------------------------------------------
Iteration    Energy (Eh)           Delta-E    RMSDP     MaxDP     DIISErr   Damp  Time(sec)
-------------------------------------------------------------------------------------------
               ***  Starting incremental Fock matrix formation  ***
    1    -193.6356533444424031     0.00e+00  1.57e-02  5.28e-02  1.85e-01  0.700   0.1
    2    -193.7162388222010350    -8.06e-02  1.25e-02  4.00e-02  1.21e-01  0.700   0.0
                               ***Turning on AO-DIIS***
    3    -193.7660239997944700    -4.98e-02  7.65e-03  2.00e-02  7.18e-02  0.700   0.0
    4    -193.7974821964391481    -3.15e-02  1.82e-02  4.25e-02  4.85e-02  0.000   0.0
                              *** Initializing SOSCF ***
---------------------------------------S-O-S-C-F--------------------------------------
Iteration    Energy (Eh)           Delta-E    RMSDP     MaxDP     MaxGrad    Time(sec)
--------------------------------------------------------------------------------------
    5    -193.8655752115058135    -6.81e-02  1.72e-03  2.88e-03  2.80e-03     0.0
               *** Restarting incremental Fock matrix formation ***
    6    -193.8657048545766770    -1.30e-04  9.12e-04  1.93e-03  1.48e-03     0.0
    7    -193.8657456275330446    -4.08e-05  6.04e-04  1.36e-03  6.29e-04     0.0
    8    -193.8657543100699741    -8.68e-06  8.17e-05  1.94e-04  1.42e-04     0.0
    9    -193.8657545707576446    -2.61e-07  3.58e-05  8.28e-05  3.88e-05     0.0
                 **** Energy Check signals convergence ****

               *****************************************************
               *                     SUCCESS                       *
               *           SCF CONVERGED AFTER   9 CYCLES          *
               *****************************************************

             **** ENERGY FILE WAS UPDATED (h-shift_035.en.tmp) ****

----------------
TOTAL SCF ENERGY
----------------

Total Energy       :       -193.86575464009786 Eh           -5275.35538 eV

Components:
Nuclear Repulsion  :        162.22434123123531 Eh            4414.34875 eV
Electronic Energy  :       -356.09009587133318 Eh           -9689.70412 eV
One Electron Energy:       -581.38587392152670 Eh          -15820.31392 eV
Two Electron Energy:        225.29577805019352 Eh            6130.60979 eV

Virial components:
Potential Energy   :       -388.06398401359411 Eh          -10559.75785 eV
Kinetic Energy     :        194.19822937349628 Eh            5284.40248 eV
Virial Ratio       :          1.99828796207632

---------------
SCF CONVERGENCE
---------------

  Last Energy change         ...    2.6069e-07  Tolerance :   1.0000e-06
  Last MAX-Density change    ...    8.2767e-05  Tolerance :   1.0000e-05
  Last RMS-Density change    ...    3.5795e-05  Tolerance :   1.0000e-06
  Last DIIS Error            ...    2.7969e-03  Tolerance :   1.0000e-06
  Last Orbital Gradient      ...    3.8840e-05  Tolerance :   5.0000e-05
  Last Orbital Rotation      ...    3.1068e-05  Tolerance :   5.0000e-05


----------------
ORBITAL ENERGIES
----------------

  NO   OCC          E(Eh)            E(eV) 
   0   2.0000     -11.236815      -305.7693 
   1   2.0000     -11.236239      -305.7536 
   2   2.0000     -11.228471      -305.5422 
   3   2.0000     -11.220764      -305.3325 
   4   2.0000     -11.212420      -305.1055 
   5   2.0000      -1.104580       -30.0572 
   6   2.0000      -1.018331       -27.7102 
   7   2.0000      -0.942498       -25.6467 
   8   2.0000      -0.812077       -22.0977 
   9   2.0000      -0.720740       -19.6123 
  10   2.0000      -0.669349       -18.2139 
  11   2.0000      -0.600067       -16.3286 
  12   2.0000      -0.584207       -15.8971 
  13   2.0000      -0.568117       -15.4592 
  14   2.0000      -0.544478       -14.8160 
  15   2.0000      -0.507991       -13.8231 
  16   2.0000      -0.471691       -12.8354 
  17   2.0000      -0.405283       -11.0283 
  18   2.0000      -0.313042        -8.5183 
  19   0.0000       0.132117         3.5951 
  20   0.0000       0.225007         6.1227 
  21   0.0000       0.249029         6.7764 
  22   0.0000       0.271202         7.3798 
  23   0.0000       0.290852         7.9145 
  24   0.0000       0.324783         8.8378 
  25   0.0000       0.334752         9.1091 
  26   0.0000       0.347778         9.4635 
  27   0.0000       0.366187         9.9644 
  28   0.0000       0.370231        10.0745 
  29   0.0000       0.434997        11.8369 
*Only the first 10 virtual orbitals were printed.

                    ********************************
                    * MULLIKEN POPULATION ANALYSIS *
                    ********************************

-----------------------
MULLIKEN ATOMIC CHARGES
-----------------------
   0 C :   -0.517849
   1 H :    0.187045
   2 C :   -0.368930
   3 C :   -0.155178
   4 C :   -0.197899
   5 C :   -0.144116
   6 H :    0.158348
   7 H :    0.172606
   8 H :    0.175470
   9 H :    0.162294
  10 H :    0.171974
  11 H :    0.176469
  12 H :    0.179765
Sum of atomic charges:    0.0000000

--------------------------------
MULLIKEN REDUCED ORBITAL CHARGES
--------------------------------
  0 C s       :     3.367908  s :     3.367908
      pz      :     1.047961  p :     3.149941
      px      :     1.109731
      py      :     0.992249

  1 H s       :     0.812955  s :     0.812955

  2 C s       :     3.271015  s :     3.271015
      pz      :     1.012582  p :     3.097915
      px      :     1.082328
      py      :     1.003005

  3 C s       :     3.197524  s :     3.197524
      pz      :     0.992158  p :     2.957654
      px      :     0.966793
      py      :     0.998703

  4 C s       :     3.198735  s :     3.198735
      pz      :     1.009493  p :     2.999164
      px      :     0.927784
      py      :     1.061887

  5 C s       :     3.212051  s :     3.212051
      pz      :     0.936012  p :     2.932065
      px      :     1.026028
      py      :     0.970026

  6 H s       :     0.841652  s :     0.841652

  7 H s       :     0.827394  s :     0.827394

  8 H s       :     0.824530  s :     0.824530

  9 H s       :     0.837706  s :     0.837706

 10 H s       :     0.828026  s :     0.828026

 11 H s       :     0.823531  s :     0.823531

 12 H s       :     0.820235  s :     0.820235



                     *******************************
                     * LOEWDIN POPULATION ANALYSIS *
                     *******************************

----------------------
LOEWDIN ATOMIC CHARGES
----------------------
   0 C :   -0.322287
   1 H :    0.129652
   2 C :   -0.252460
   3 C :   -0.114649
   4 C :   -0.150797
   5 C :   -0.103578
   6 H :    0.109455
   7 H :    0.117124
   8 H :    0.118669
   9 H :    0.116377
  10 H :    0.116791
  11 H :    0.117507
  12 H :    0.118196

-------------------------------
LOEWDIN REDUCED ORBITAL CHARGES
-------------------------------
  0 C s       :     2.976725  s :     2.976725
      pz      :     1.110125  p :     3.345562
      px      :     1.145109
      py      :     1.090327

  1 H s       :     0.870348  s :     0.870348

  2 C s       :     2.989565  s :     2.989565
      pz      :     1.039077  p :     3.262895
      px      :     1.116885
      py      :     1.106933

  3 C s       :     2.945171  s :     2.945171
      pz      :     0.989589  p :     3.169478
      px      :     1.072665
      py      :     1.107224

  4 C s       :     2.942607  s :     2.942607
      pz      :     1.076693  p :     3.208190
      px      :     1.060763
      py      :     1.070734

  5 C s       :     2.953438  s :     2.953438
      pz      :     1.034307  p :     3.150140
      px      :     1.076618
      py      :     1.039215

  6 H s       :     0.890545  s :     0.890545

  7 H s       :     0.882876  s :     0.882876

  8 H s       :     0.881331  s :     0.881331

  9 H s       :     0.883623  s :     0.883623

 10 H s       :     0.883209  s :     0.883209

 11 H s       :     0.882493  s :     0.882493

 12 H s       :     0.881804  s :     0.881804



                      *****************************
                      * MAYER POPULATION ANALYSIS *
                      *****************************

  NA   - Mulliken gross atomic population
  ZA   - Total nuclear charge
  QA   - Mulliken gross atomic charge
  VA   - Mayer's total valence
  BVA  - Mayer's bonded valence
  FA   - Mayer's free valence

  ATOM       NA         ZA         QA         VA         BVA        FA
  0 C      6.5178     6.0000    -0.5178     3.7688     3.7688     0.0000
  1 H      0.8130     1.0000     0.1870     0.9257     0.9257     0.0000
  2 C      6.3689     6.0000    -0.3689     3.8379     3.8379    -0.0000
  3 C      6.1552     6.0000    -0.1552     3.8062     3.8062     0.0000
  4 C      6.1979     6.0000    -0.1979     3.8159     3.8159     0.0000
  5 C      6.1441     6.0000    -0.1441     3.7563     3.7563     0.0000
  6 H      0.8417     1.0000     0.1583     0.9343     0.9343    -0.0000
  7 H      0.8274     1.0000     0.1726     0.9215     0.9215    -0.0000
  8 H      0.8245     1.0000     0.1755     0.9364     0.9364    -0.0000
  9 H      0.8377     1.0000     0.1623     0.9429     0.9429    -0.0000
 10 H      0.8280     1.0000     0.1720     0.9369     0.9369    -0.0000
 11 H      0.8235     1.0000     0.1765     0.9387     0.9387     0.0000
 12 H      0.8202     1.0000     0.1798     0.9381     0.9381     0.0000

  Mayer bond orders larger than 0.100000
B(  0-C ,  1-H ) :   0.9314 B(  0-C ,  5-C ) :   0.9648 B(  0-C ,  6-H ) :   0.9607 
B(  0-C ,  7-H ) :   0.9460 B(  2-C ,  3-C ) :   1.8616 B(  2-C ,  8-H ) :   0.9607 
B(  2-C ,  9-H ) :   0.9622 B(  3-C ,  4-C ) :   1.0586 B(  3-C , 10-H ) :   0.9581 
B(  4-C ,  5-C ) :   1.8616 B(  4-C , 11-H ) :   0.9566 B(  5-C , 12-H ) :   0.9555 


-------
TIMINGS
-------

Total SCF time: 0 days 0 hours 0 min 0 sec 

Total time                  ....       0.674 sec
Sum of individual times     ....       0.632 sec  ( 93.7%)

SCF preparation             ....       0.268 sec  ( 39.7%)
Fock matrix formation       ....       0.309 sec  ( 45.8%)
  Startup                   ....       0.001 sec  (  0.5% of F)
  Coulomb+Exchange Fock     ....       0.328 sec  (106.0% of F)
Diagonalization             ....       0.000 sec  (  0.0%)
Density matrix formation    ....       0.008 sec  (  1.1%)
Total Energy calculation    ....       0.005 sec  (  0.7%)
Population analysis         ....       0.005 sec  (  0.7%)
Orbital Transformation      ....       0.005 sec  (  0.7%)
Orbital Orthonormalization  ....       0.000 sec  (  0.0%)
DIIS solution               ....       0.020 sec  (  3.0%)
SOSCF solution              ....       0.013 sec  (  2.0%)
Finished LeanSCF after   0.7 sec

Maximum memory used throughout the entire LEANSCF-calculation: 6.5 MB

-------------------------   --------------------
FINAL SINGLE POINT ENERGY      -193.865754640098
-------------------------   --------------------



           ************************************************************
           *        Program running with 8 parallel MPI-processes     *
           *              working on a common directory               *
           ************************************************************

------------------------------------------------------------------------------
                              ORCA PROPERTY CALCULATIONS
------------------------------------------------------------------------------

GBWName                                 ... h-shift_035.gbw
Number of atoms                         ...     13
Number of basis functions               ...     61
Max core memory                         ...   1200 MB

Electric properties:
Dipole moment                           ... YES
Quadrupole moment                       ...  NO
Static polarizability (Dipole/Dipole)   ...  NO
Static polarizability (Dipole/Quad.)    ...  NO
Static polarizability (Quad./Quad.)     ...  NO
Static polarizability (Velocity)        ...  NO
Static hyperpolarizability              ...  NO

Atomic electric properties:
Dipole moment                           ...  NO
Quadrupole moment                       ...  NO
Static polarizability                   ...  NO

Choice of electric origin               ... Center of mass
Position of electric origin             ...     1.850084    -1.396084     2.082427

General magnetic properties:
Magnetizability                         ...  NO

EPR properties:
g-Tensor (aka g-matrix)                 ...  NO
Zero-Field splitting spin-orbit         ...  NO
Zero-field splitting spin-spin          ...  NO
Hyperfine couplings                     ...  NO (   0 nuclei)
Quadrupole couplings                    ...  NO (   0 nuclei)
Contact density                         ...  NO (   0 nuclei)

NMR properties:
Chemical shifts                         ...  NO (   0 nuclei)
Spin-rotation constants                 ...  NO (   0 nuclei)
Spin-spin couplings                     ...  NO (   0 nuclei,    0 pairs)

Choice of magnetic origin               ... GIAO
Position of magnetic origin             ...     0.000000     0.000000     0.000000

Properties with geometric perturbations:
SCF Hessian                             ...  NO
IR spectrum                             ...  NO
VCD spectrum                            ...  NO
X-ray spectroscopy properties:
SCF XES/XAS/RIXS spectra                ...  NO

SCF SOC stabilization energy            ...  NO
Diagonal Born-Oppenheimer correction    ...  NO

-------------
DIPOLE MOMENT
-------------

Method             : SCF
Type of density    : Electron Density
Multiplicity       :   1
Irrep              :   0
Energy             :  -193.8657546400978617 Eh
Basis              : AO
                                X                 Y                 Z
Electronic contribution:     -0.022237789      -1.750360963       1.875717928
Nuclear contribution   :     -0.011789684       1.712373142      -2.074116121
                        -----------------------------------------
Total Dipole Moment    :     -0.034027473      -0.037987820      -0.198398194
                        -----------------------------------------
Magnitude (a.u.)       :      0.204848204
Magnitude (Debye)      :      0.520682755



--------------------
Rotational spectrum 
--------------------
 
Rotational constants in cm-1:             0.277853             0.150382             0.101004 
Rotational constants in MHz :          8329.832912          4508.342803          3028.010628 

Dipole components along the rotational axes: 
x,y,z [a.u.] :     0.124320    -0.062537    -0.150321 
x,y,z [Debye]:     0.315997    -0.158956    -0.382086 

 

Dipole moment calculation done in   0.0 sec 

Maximum memory used throughout the entire PROP-calculation: 2.2 MB

--------------------------------
SUGGESTED CITATIONS FOR THIS RUN
--------------------------------

Below you find a list of papers that are relevant to this ORCA run
We neither can nor want to force you to cite these papers, but we appreciate if you do
You receive ORCA, which is the product of decades of hard work by many enthusiastic individuals, for free
The only thing we kindly ask in return is that you cite our papers,
We deeply appreciate it, if you show your appreciation for ORCA by not just citing the generic ORCA reference.

Please note that relegating all ORCA citations to the supporting information does *not* help us.
SI sections are not indexed - citations you put there will not count into any citation statistics
But we need these citations in order to attract the funding resources that allow us to do what we are doing

Therefore, if you are a happy ORCA user, please consider citing a few of the papers listed below in the main body of your paper

In addition to the list printed below, the program has created the file h-shift_035.bibtex that contains the list in bibtex format
You can import this file easily into all common literature databanks and citation aid programs


List of essential papers. We consider these as the minimum necessary citations

  1. Neese, F.
     Software update: the ORCA program system, version 6.0
     WIRES Comput. Molec. Sci. 2025 15(1), e70019
     doi.org/10.1002/wcms.7019

List of papers to cite with high priority. The work reported in these papers was absolutely
necessary for this run to complete.
Our perspective: the developers of density functionals and basis sets usually get cited in chemistry papers
Good! But without the algorithms to do something with them, the functionals or basis sets would not do anything.
Hence, in our opinion, the algorithm design and method developments papers are equally worthy of getting cited

  1. Neese, F.
     The SHARK Integral Generation and Digestion System
     J. Comp. Chem. 2022 44(3), 381
     doi.org/10.1002/jcc.26942

List of suggested additional citations. These are papers that are important in the 'surrounding' of 
of this run, or papers that preceded the highly important papers. If you like your results we are grateful for a citation.

  1. Neese, F.
     The ORCA program system
     WIRES Comput. Molec. Sci. 2012 2(1), 73-78
     doi.org/10.1002/wcms.81
  2. Neese, F.
     Software update: the ORCA program system, version 4.0
     WIRES Comput. Molec. Sci. 2018 8(1), 1-6
     doi.org/10.1002/wcms.1327
  3. Neese, F.; Wennmohs, F.; Becker, U.; Riplinger, C.
     The ORCA quantum chemistry program package
     J. Chem. Phys. 2020 152(22), 224108
     doi.org/10.1063/5.0004608
  4. Neese, F.
     Software update: The ORCA program system—Version 5.0
     WIRES Comput. Molec. Sci. 2022 12(1), e1606
     doi.org/10.1002/wcms.1606

List of optional additional citations

  1. Neese, F.
     Approximate second-order SCF convergence for spin unrestricted wavefunctions
     Chem. Phys. Lett. 2000 325(1-3), 93-98
     doi.org/10.1016/s0009-2614(00)00662-x

Timings for individual modules:

Sum of individual times          ...        2.339 sec (=   0.039 min)
Startup calculation              ...        0.677 sec (=   0.011 min)  28.9 %
SCF iterations                   ...        1.298 sec (=   0.022 min)  55.5 %
Property calculations            ...        0.365 sec (=   0.006 min)  15.6 %
                             ****ORCA TERMINATED NORMALLY****
TOTAL RUN TIME: 0 days 0 hours 0 minutes 2 seconds 773 msec
