
                                 *****************
                                 * O   R   C   A *
                                 *****************

                                            #,                                       
                                            ###                                      
                                            ####                                     
                                            #####                                    
                                            ######                                   
                                           ########,                                 
                                     ,,################,,,,,                         
                               ,,#################################,,                 
                          ,,##########################################,,             
                       ,#########################################, ''#####,          
                    ,#############################################,,   '####,        
                  ,##################################################,,,,####,       
                ,###########''''           ''''###############################       
              ,#####''   ,,,,##########,,,,          '''####'''          '####       
            ,##' ,,,,###########################,,,                        '##       
           ' ,,###''''                  '''############,,,                           
         ,,##''                                '''############,,,,        ,,,,,,###''
      ,#''                                            '''#######################'''  
     '                                                          ''''####''''         
             ,#######,   #######,   ,#######,      ##                                
            ,#'     '#,  ##    ##  ,#'     '#,    #''#        ,####,    ,#,          
            ##       ##  ##   ,#'  ##            #'  '#       #'       ,# #          
            ##       ##  #######   ##           ,######,      #####,      #          
            '#,     ,#'  ##    ##  '#,     ,#' ,#      #,     #,   #      #          
             '#######'   ##     ##  '#######'  #'      '#     '####' #    #          



                #########################################################
                #                        -***-                          #
                #          Department of theory and spectroscopy        #
                #                                                       #
                #                      Frank Neese                      #
                #                                                       #
                #     Directorship, Architecture, Infrastructure        #
                #                    SHARK, DRIVERS                     #
                #        Core code/Algorithms in most modules           #
                #                                                       #
                #        Max Planck Institute fuer Kohlenforschung      #
                #                Kaiser Wilhelm Platz 1                 #
                #                 D-45470 Muelheim/Ruhr                 #
                #                      Germany                          #
                #                                                       #
                #                  All rights reserved                  #
                #                        -***-                          #
                #########################################################


                         Program Version 6.1.0  -  RELEASE   -
                                (GIT: $679e74b$)
                          ($2025-06-10 18:02:51 +0200$)


 With contributions from (in alphabetic order):
[Max-Planck-Institut fuer Kohlenforschung]                               
  Daniel Aravena         : Magnetic Suceptibility                        
  Michael Atanasov       : Ab Initio Ligand Field Theory (pilot matlab implementation)
  Alexander A. Auer      : GIAO ZORA, VPT2 properties, NMR spectrum      
  Ute Becker             : All parallelization in ORCA, NUMFREQ, NUMCALC 
  Giovanni Bistoni       : ED, misc. LED, open-shell LED, HFLD           
  Dmytro Bykov           : pre 5.0 version of the SCF Hessian            
  Marcos Casanova-Páez   : Triplet and SCS-CIS(D). UHF-(DLPNO)-IP/EA/STEOM-CCSD. UHF-CVS-IP/STEOM-CCSD   
  Vijay G. Chilkuri      : MRCI spin determinant printing, contributions to CSF-ICE 
  Pauline Colinet        : FMM embedding                                 
  Dipayan Datta          : RHF DLPNO-CCSD density                        
  Achintya Kumar Dutta   : EOM-CC, STEOM-CC                              
  Nicolas Foglia         : Exact transition moments, OPA infrastructure, MCD improvements    
  Dmitry Ganyushin       : Spin-Orbit,Spin-Spin,Magnetic field MRCI      
  Miquel Garcia-Rates    : C-PCM and meta-GGA Hessian, CCSD/C-PCM, Gaussian charge scheme 
  Tiago L. C. Gouveia    : GS-ROHF, GS-ROCIS                             
  Yang Guo               : DLPNO-NEVPT2, F12-NEVPT2, CIM, IAO-localization        
  Andreas Hansen         : Spin unrestricted coupled pair/coupled cluster methods 
  Ingolf Harden          : AUTO-CI MPn and infrastructure                
  Benjamin Helmich-Paris : MC-RPA, TRAH-(SCF,CASSCF), AVAS, COSX integrals, SCF dyn. polar., MC-PDFT, srDFT 
  Lee Huntington         : MR-EOM, pCC                                   
  Robert Izsak           : Overlap fitted RIJCOSX, COSX-SCS-MP3, EOM     
  Riya Kayal             : Wick's Theorem for AUTO-CI, AUTO-CI UHF-CCSDT 
  Emily Kempfer          : AUTO-CI RHF CISDT and CCSDT, approximate NEVPT4
  Christian Kollmar      : KDIIS, OOCD, Brueckner-CCSD(T), CCSD density, CASPT2, CASPT2-K, improved NEVPT2 
  Axel Koslowski         : Symmetry handling                             
  Simone Kossmann        : meta-GGA functionals, TD-DFT gradient, OOMP2, (MP2 Hessian; deprecated post 5.0) 
  Lucas Lang             : DCDCAS, Hyperfine gauge corrections, ICE-SOC+SSC
  Marvin Lechner         : AUTO-CI (C++ implementation), FIC-MRCC        
  Spencer Leger          : CASSCF response                               
  Dagmar Lenk            : GEPOL surface, SMD, ORCA-2-JSON               
  Dimitrios Liakos       : Extrapolation schemes; Compound Job, Property file
  Dimitrios Manganas     : Further ROCIS development; embedding schemes. LFT, Crystal Embedding 
  Dimitrios Pantazis     : SARC Basis sets                               
  Anastasios Papadopoulos: AUTO-CI, single reference methods and gradients 
  Taras Petrenko         : pre 6.0 DFT Hessian and TD-DFT gradient,  ECA, NRVS 
  Petra Pikulova         : Analytic Raman intensities                    
  Peter Pinski           : DLPNO-MP2, DLPNO-MP2 Gradient                 
  Shashank Vittal Rao    : ES-AILFT, MagRelax                            
  Christoph Reimann      : Effective Core Potentials                     
  Marius Retegan         : Local ZFS, SOC                                
  Christoph Riplinger    : Optimizer, TS searches, QM/MM, DLPNO-CCSD(T), (RO)-DLPNO pert. Triples 
  Michael Roemelt        : Original ROCIS implementation, recursive CI coupling coefficients
  Masaaki Saitow         : Open-shell DLPNO-CCSD energy and density      
  Barbara Sandhoefer     : DKH picture change effects                    
  Yorick L. A. Schmerwitz: GMF and freeze-and-release deltaSCF, NEB S-IDPP initial path                    
  Kantharuban Sivalingam : CASSCF convergence/infrastructure, NEVPT2, NEVPT3, NEVPT4(SD), FIC-MRCI and CEPA variants
  Bernardo de Souza      : ESD, SOC TD-DFT                               
  Georgi L. Stoychev     : AutoAux, RI-MP2 NMR, DLPNO-MP2 response, X2C  
  Van Anh Tran           : RI-MP2 g-tensors                              
  Willem Van den Heuvel  : Paramagnetic NMR                              
  Zikuan Wang            : NOTCH, Electric field optimization            
  Frank Wennmohs         : Technical directorship and infrastructure     
  Hang Xu                : AUTO-CI-Response properties                   
                                                                         
[FACCTs GmbH]                                                            
  Markus Bursch, Nicolas Foglia, Miquel Garcia-Rates, Ingolf Harden, Hagen Neugebauer, Anastasios Papadopoulos, 
  Christoph Riplinger, Bernardo de Souza, Georgi L. Stoychev                                                    
                                                                 
  APM, various basis sets, CI-OPT, improved COSX, DLPNO-Multilevel,           
  DOCKER, DRACO, updates on ESD, Fragmentator, GOAT, IRC, LR-CPCM, L-BFGS, MBIS, meta-GGA TD-DFT gradient, ML-optimized integration grids, 
  MM, NACMEs, nearIR, NEB, NEB-TS, NL-DFT gradient (VV10), 2- and 3-layer-ONIOM, interface openCOSMO-RS, QMMM,   
  Crystal-QMMM, RESP, rigid body optimization, SF, symmetry and pop. for TD-DFT, various functionals, SOLVATOR                                   
                                                                         
[Other institutions]                                                     
  V. Asgeirsson          : NEB                                           
  Christoph Bannwarth    : sTDA-DFT, sTD-DFT, PBEh-3c, B97-3c, D3        
  Giovanni Bistoni       : ETS/NOCV, ADLD/ADEX, COVALED                  
  Martin Brehm           : Molecular dynamics                            
  Ronald Cardenas        : ETS/NOCV                                      
  Martina Colucci        : COVALED                                       
  Sebastian Ehlert       : rSCAN, r2SCAN, r2SCAN-3c, D4, dhf basis sets  
  Marvin Friede          : D4 for Fr, Ra, Ac-Lr                          
  Lars Goerigk           : TD-DFT with DH, B97 family of functionals     
  Stefan Grimme          : VdW corrections, initial TS optimization, DFT functionals, gCP, sTDA/sTD-DF 
  Waldemar Hujo          : DFT-NL                                        
  H. Jonsson             : NEB                                           
  Holger Kruse           : gCP                                           
  Marcel Mueller         : wB97X-3c, vDZP basis set                      
  Hagen Neugebauer       : wr2SCAN, Native XTB                           
  Gianluca Regni         : ADLD/ADEX                                     
  Tobias Risthaus        : pre 6.0 range-separated hybrid DFT and stability analysis
  Lukas Wittmann         : regularized MP2, r2SCAN double-hybrids, wr2SCAN        
                                                                         
We gratefully acknowledge several colleagues who have allowed us to      
interface, adapt or use parts of their codes:                            
  Ed Valeev, F. Pavosevic, A. Kumar             : LibInt (2-el integral package), F12 methods 
  Garnet Chan, S. Sharma, J. Yang, R. Olivares  : DMRG                   
  Ulf Ekstrom                                   : XCFun DFT Library      
  Mihaly Kallay                                 : mrcc  (arbitrary order and MRCC methods)
  Frank Weinhold                                : gennbo (NPA and NBO analysis)           
  Simon Mueller                                 : openCOSMO-RS                            
  Christopher J. Cramer and Donald G. Truhlar   : smd solvation model                     
  S Lehtola, MJT Oliveira, MAL Marques          : LibXC Library                           
  Liviu Ungur et al                             : ANISO software                          


 Your calculation uses the libint2 library for the computation of 2-el integrals
 For citations please refer to: http://libint.valeyev.net

 Your ORCA version has been built with support for libXC version: 7.0.0
 For citations please refer to: https://libxc.gitlab.io

 This ORCA versions uses:
   CBLAS   interface :  Fast vector & matrix operations
   LAPACKE interface :  Fast linear algebra routines
   SCALAPACK package :  Parallel linear algebra routines
   Shared memory     :  Shared parallel matrices
   BLAS/LAPACK       :  OpenBLAS 0.3.29  USE64BITINT DYNAMIC_ARCH NO_AFFINITY Zen SINGLE_THREADED
        Core in use  :  Zen
   Copyright (c) 2011-2014, The OpenBLAS Project


  ***********************************
  * Starting time: Sun Apr  5 13:01:10 2026
  * Host name:     QC1
  * Process ID:    7660
  * Working dir.:  /home/user/QC/h-shift/split_2
  ***********************************

NOTE: MaxCore=1200 MB was set to SCF,MP2,MDCI,CIPSI,MRCI,RASCI and CIS
      => If you want to overwrite this, your respective input block should be placed after the MaxCore statement
================================================================================

----- Orbital basis set information -----
Your calculation utilizes the basis: 6-31G
   H-He, Li-Ne : W. J. Hehre, R. Ditchfield and J.A. Pople, J. Chem. Phys. 56, 2257 (1972).
                 Note: He and Ne are unpublished basis sets taken from the Gaussian program.
                 Note: Li and B from J. D. Dill and J. A. Pople, J. Chem. Phys. 62, 2921 (1975).
   Na - Ar     : M. M. Francl, W. J. Pietro, W. J. Hehre, J. S. Binkley, M. S. Gordon, 
                 D. J. DeFrees and J. A. Pople, J. Chem. Phys. 77, 3654 (1982).
   K - Zn      : V. A. Rassolov, J. A. Pople, M. A. Ratner, and T. L. Windus, J. Chem. Phys. 109, 1223 (1998).

================================================================================
                                        WARNINGS
                       Please study these warnings very carefully!
================================================================================


================================================================================
                                       INPUT FILE
================================================================================
NAME = h-shift_037.inp
|  1> ! HF 6-31G
|  2> %maxcore 1200
|  3> %pal nprocs 8 end
|  4> * xyz 0 1
|  5> C    0.07048100   0.01765300  -0.07528300
|  6> H    1.12811600  -0.02363500  -0.30727500
|  7> C    2.49070100   0.03199500   1.42865700
|  8> C    1.96320800  -1.11881900   1.85280300
|  9> C    0.57662800  -1.59018800   1.74187400
| 10> C   -0.24822200  -1.16605900   0.78032700
| 11> H   -0.48773600   0.05600800  -0.99550000
| 12> H   -0.07627900   0.95257600   0.45866400
| 13> H    1.92277200   0.92146600   1.25751600
| 14> H    3.53053200   0.09933100   1.17278700
| 15> H    2.64785900  -1.89311800   2.14946900
| 16> H    0.31912800  -2.47282400   2.30329100
| 17> H   -1.12141400  -1.74643300   0.53306200
| 18> *
| 19> 
| 20>                          ****END OF INPUT****
================================================================================

                       ****************************
                       * Single Point Calculation *
                       ****************************

---------------------------------
CARTESIAN COORDINATES (ANGSTROEM)
---------------------------------
  C      0.070481    0.017653   -0.075283
  H      1.128116   -0.023635   -0.307275
  C      2.490701    0.031995    1.428657
  C      1.963208   -1.118819    1.852803
  C      0.576628   -1.590188    1.741874
  C     -0.248222   -1.166059    0.780327
  H     -0.487736    0.056008   -0.995500
  H     -0.076279    0.952576    0.458664
  H      1.922772    0.921466    1.257516
  H      3.530532    0.099331    1.172787
  H      2.647859   -1.893118    2.149469
  H      0.319128   -2.472824    2.303291
  H     -1.121414   -1.746433    0.533062

----------------------------
CARTESIAN COORDINATES (A.U.)
----------------------------
  NO LB      ZA    FRAG     MASS         X           Y           Z
   0 C     6.0000    0    12.011    0.133190    0.033359   -0.142264
   1 H     1.0000    0     1.008    2.131830   -0.044664   -0.580666
   2 C     6.0000    0    12.011    4.706743    0.060462    2.699770
   3 C     6.0000    0    12.011    3.709925   -2.114262    3.501290
   4 C     6.0000    0    12.011    1.089669   -3.005020    3.291665
   5 C     6.0000    0    12.011   -0.469072   -2.203532    1.474604
   6 H     1.0000    0     1.008   -0.921687    0.105840   -1.881222
   7 H     1.0000    0     1.008   -0.144146    1.800108    0.866749
   8 H     1.0000    0     1.008    3.633512    1.741318    2.376361
   9 H     1.0000    0     1.008    6.671739    0.187708    2.216246
  10 H     1.0000    0     1.008    5.003728   -3.577475    4.061908
  11 H     1.0000    0     1.008    0.603065   -4.672960    4.352589
  12 H     1.0000    0     1.008   -2.119165   -3.300280    1.007341

--------------------------------
INTERNAL COORDINATES (ANGSTROEM)
--------------------------------
 C      0   0   0     0.000000000000     0.00000000     0.00000000
 H      1   0   0     1.083566693948     0.00000000     0.00000000
 C      2   1   0     2.207530857712   115.66764986     0.00000000
 C      3   2   1     1.335111065403    89.09628532    62.65425387
 C      4   3   2     1.468706258447   128.72957023   325.17906080
 C      5   4   3     1.335977381676   122.36838460    25.78273878
 H      1   2   3     1.076975697127   108.92527135   175.93627302
 H      1   2   3     1.086608904960   105.65362740    59.41471591
 H      3   2   1     1.069107689039    64.35425701   293.84399906
 H      3   2   1     1.072964166390   114.34559462   186.41483262
 H      4   3   2     1.075312349393   117.17834554   132.33283285
 H      5   4   3     1.077284366537   116.69575333   190.56242696
 H      6   5   4     1.077236384906   119.64546874   160.20772659

---------------------------
INTERNAL COORDINATES (A.U.)
---------------------------
 C      0   0   0     0.000000000000     0.00000000     0.00000000
 H      1   0   0     2.047644299400     0.00000000     0.00000000
 C      2   1   0     4.171628753255   115.66764986     0.00000000
 C      3   2   1     2.522994271979    89.09628532    62.65425387
 C      4   3   2     2.775452599641   128.72957023   325.17906080
 C      5   4   3     2.524631372481   122.36838460    25.78273878
 H      1   2   3     2.035189120460   108.92527135   175.93627302
 H      1   2   3     2.053393245054   105.65362740    59.41471591
 H      3   2   1     2.020320739954    64.35425701   293.84399906
 H      3   2   1     2.027608425988   114.34559462   186.41483262
 H      4   3   2     2.032045848777   117.17834554   132.33283285
 H      5   4   3     2.035772421110   116.69575333   190.56242696
 H      6   5   4     2.035681748967   119.64546874   160.20772659

---------------------
BASIS SET INFORMATION
---------------------
There are 2 groups of distinct atoms

 Group   1 Type C   : 10s4p contracted to 3s2p pattern {631/31}
 Group   2 Type H   : 4s contracted to 2s pattern {31}

Atom   0C    basis set group =>   1
Atom   1H    basis set group =>   2
Atom   2C    basis set group =>   1
Atom   3C    basis set group =>   1
Atom   4C    basis set group =>   1
Atom   5C    basis set group =>   1
Atom   6H    basis set group =>   2
Atom   7H    basis set group =>   2
Atom   8H    basis set group =>   2
Atom   9H    basis set group =>   2
Atom  10H    basis set group =>   2
Atom  11H    basis set group =>   2
Atom  12H    basis set group =>   2


           ************************************************************
           *        Program running with 8 parallel MPI-processes     *
           *              working on a common directory               *
           ************************************************************
------------------------------------------------------------------------------
                             ORCA STARTUP CALCULATIONS
------------------------------------------------------------------------------
------------------------------------------------------------------------------
                   ___                                                        
                  /   \      - P O W E R E D   B Y -                         
                 /     \                                                     
                 |  |  |   _    _      __       _____    __    __             
                 |  |  |  | |  | |    /  \     |  _  \  |  |  /  |          
                  \  \/   | |  | |   /    \    | | | |  |  | /  /          
                 / \  \   | |__| |  /  /\  \   | |_| |  |  |/  /          
                |  |  |   |  __  | /  /__\  \  |    /   |      \           
                |  |  |   | |  | | |   __   |  |    \   |  |\   \          
                \     /   | |  | | |  |  |  |  | |\  \  |  | \   \       
                 \___/    |_|  |_| |__|  |__|  |_| \__\ |__|  \__/        
                                                                              
                      - O R C A' S   B I G   F R I E N D -                    
                                      &                                       
                       - I N T E G R A L  F E E D E R -                       
                                                                              
 v1 FN, 2020, v2 2021, v3 2022-2024                                           
------------------------------------------------------------------------------


----------------------
SHARK INTEGRAL PACKAGE
----------------------

Number of atoms                             ...     13
Number of basis functions                   ...     61
Number of shells                            ...     41
Maximum angular momentum                    ...      1
Integral batch strategy                     ... SHARK/LIBINT Hybrid
RI-J (if used) integral strategy            ... SPLIT-RIJ (Revised 2003 algorithm where possible)
Printlevel                                  ...      1
Contraction scheme used                     ... SEGMENTED contraction
Prescreening option                         ... SCHWARTZ
   Thresh                                   ... 1.000e-10
   Tcut                                     ... 1.000e-11
   Tpresel                                  ... 1.000e-11 
Coulomb Range Separation                    ... NOT USED
Exchange Range Separation                   ... NOT USED
Multipole approximations                    ... NOT USED
Finite Nucleus Model                        ... NOT USED
CABS basis                                  ... NOT available
Auxiliary Coulomb fitting basis             ... NOT available
Auxiliary J/K fitting basis                 ... NOT available
Auxiliary Correlation fitting basis         ... NOT available
Auxiliary 'external' fitting basis          ... NOT available

Checking pre-screening integrals            ... done (  0.0 sec) Dimension = 41
   => SHARK Basis and OBASIS are compatible. Storing Pre-screening
Shell pair information
Shell pair cut-off parameter TPreSel        ...   1.0e-11
Total number of shell pairs                 ...       861
Shell pairs after pre-screening             ...       847
Total number of primitive shell pairs       ...      5382
Primitive shell pairs kept                  ...      3758
          la=0 lb=0:    482 shell pairs
          la=1 lb=0:    310 shell pairs
          la=1 lb=1:     55 shell pairs

Checking whether 4 symmetric matrices of dimension 61 fit in memory
:Max Core in MB      =   1200.00
 MB in use           =      2.05
 MB left             =   1197.95
 MB needed           =      0.06
 Data fit in memory  = YES
Calculating Nuclear repulsion               ... done (  0.0 sec) ENN=    162.728318539648 Eh

Diagonalization of the overlap matrix:
Smallest eigenvalue                        ... 3.496e-03
Time for diagonalization                   ...    0.000 sec
Threshold for overlap eigenvalues          ... 1.000e-07
Number of eigenvalues below threshold      ... 0
Time for construction of square roots      ...    0.000 sec
Total time needed                          ...    0.001 sec

-------------------
DFT GRID GENERATION
-------------------

General Integration Accuracy     IntAcc      ... 4.388
Radial Grid Type                 RadialGrid  ... OptM3 with GC (2021)
Angular Grid (max. ang.)         AngularGrid ... 4 (Lebedev-302)
Angular grid pruning method      GridPruning ... 4 (adaptive)
Weight generation scheme         WeightScheme... mBecke (2022)
Basis function cutoff            BFCut       ... 1.0000e-10
Integration weight cutoff        WCut        ... 1.0000e-14
Partially contracted basis set               ... off
Rotationally invariant grid construction     ... off
Angular grids for H and He will be reduced by one unit

Total number of grid points                  ...    56008
Total number of batches                      ...      882
Average number of points per batch           ...       63
Average number of grid points per atom       ...     4308
Grids setup in   0.2 sec
Initializing property integral containers    ... done (  0.0 sec)

SHARK setup successfully completed in   0.3 seconds

Maximum memory used throughout the entire STARTUP-calculation: 11.8 MB


           ************************************************************
           *        Program running with 8 parallel MPI-processes     *
           *              working on a common directory               *
           ************************************************************
-------------------------------------------------------------------------------
                                 ORCA GUESS
                   Start orbitals & Density for SCF / CASSCF
-------------------------------------------------------------------------------

------------
SCF SETTINGS
------------
Hamiltonian:
 Ab initio Hamiltonian  Method          .... Hartree-Fock(GTOs)


General Settings:
 Integral files         IntName         .... h-shift_037
 Hartree-Fock type      HFTyp           .... RHF
 Total Charge           Charge          ....    0
 Multiplicity           Mult            ....    1
 Number of Electrons    NEL             ....   38
 Basis Dimension        Dim             ....   61
 Nuclear Repulsion      ENuc            ....    162.7283185396 Eh

Convergence Acceleration:
 AO-DIIS                CNVDIIS         .... on
   Start iteration      DIISMaxIt       ....    12
   Startup error        DIISStart       ....  0.200000
   # of expansion vecs  DIISMaxEq       ....     5
   Bias factor          DIISBfac        ....   1.050
   Max. coefficient     DIISMaxC        ....  10.000
 MO-DIIS                CNVKDIIS        .... off
 Trust-Rad. Augm. Hess. CNVTRAH         .... auto
   Auto Start mean grad. ratio tolernc. ....  1.125000
   Auto Start start iteration           ....    50
   Auto Start num. interpolation iter.  ....    10
   Max. Number of Micro iterations      ....    24
   Max. Number of Macro iterations      .... Maxiter - #DIIS iter
   Number of Davidson start vectors     ....     2
   Converg. threshold    (grad. norm)   ....   5.000e-05
   Grad. Scal. Fac. for Micro threshold ....   0.100
   Minimum threshold for Micro iter.    ....   1.000e-02
   NR start threshold (gradient norm)   ....   1.000e-04
   Initial trust radius                 ....   0.400
   Minimum AH scaling param. (alpha)    ....   1.000
   Maximum AH scaling param. (alpha)    .... 1000.000
   Quad. conv. algorithm                .... NR
   White noise on init. David. guess    .... on
   Maximum white noise                  ....   0.010
   Pseudo random numbers                .... off
   Inactive MOs                         .... canonical
   Orbital update algorithm             .... Taylor
   Preconditioner                       .... Diag
   Full preconditioner red. dimension   ....   250
 SOSCF                 CNVSOSCF           .... on
   Start iteration     SOSCFMaxIt         ....   150
   Startup grad/error  SOSCFStart         ....  0.003300
   Hessian update      SOSCFHessUp        .... L-BFGS
   Autom. constraints  SOSCFAutoConstrain .... off
 Level Shifting         CNVShift        .... on
   Level shift para.    LevelShift      ....    0.2500
   Turn off err/grad.   ShiftErr        ....    0.0010
 Zerner damping         CNVZerner       .... off
 Static damping         CNVDamp         .... on
   Fraction old density DampFac         ....    0.7000
   Max. Damping (<1)    DampMax         ....    0.9800
   Min. Damping (>=0)   DampMin         ....    0.0000
   Turn off err/grad.   DampErr         ....    0.1000

SCF Procedure:
 Maximum # iterations   MaxIter         ....   125
 SCF integral mode      SCFMode         .... Direct
   Integral package                     .... SHARK and LIBINT hybrid scheme
 Reset frequency        DirectResetFreq ....    20
 Integral Threshold     Thresh          ....  1.000e-10 Eh
 Primitive CutOff       TCut            ....  1.000e-11 Eh

Convergence Tolerance:
 Convergence Check Mode ConvCheckMode   .... Total+1el-Energy
 Convergence forced     ConvForced      .... 0
 Energy Change          TolE            ....  1.000e-06 Eh
 1-El. energy change                    ....  1.000e-03 Eh
 Orbital Gradient       TolG            ....  5.000e-05
 Orbital Rotation angle TolX            ....  5.000e-05
 DIIS Error             TolErr          ....  1.000e-06

------------------------------
INITIAL GUESS: MODEL POTENTIAL
------------------------------
Loading Hartree-Fock densities                     ... done
Calculating cut-offs                               ... done
Initializing the effective Hamiltonian             ... done
Setting up the integral package (SHARK)            ... done
Starting the Coulomb interaction                   ... done (   0.0 sec)
Making the grid                                    ... done (   0.1 sec)
Mapping shells                                     ... done
Starting the XC term evaluation                    ... done (   0.0 sec)
Transforming the Hamiltonian                       ... done (   0.0 sec)
Diagonalizing the Hamiltonian                      ... done (   0.0 sec)
Back transforming the eigenvectors                 ... done (   0.0 sec)
Now organizing SCF variables                       ... done
                      ------------------
                      INITIAL GUESS DONE (   0.1 sec)
                      ------------------
             **** ENERGY FILE WAS UPDATED (h-shift_037.en.tmp) ****
Finished Guess after   0.4 sec
Maximum memory used throughout the entire GUESS-calculation: 4.2 MB


           ************************************************************
           *        Program running with 8 parallel MPI-processes     *
           *              working on a common directory               *
           ************************************************************

-------------------------------------------------------------------------------------------
                                      ORCA LEAN-SCF
                              memory conserving SCF solver
-------------------------------------------------------------------------------------------

----------------------------------------D-I-I-S--------------------------------------------
Iteration    Energy (Eh)           Delta-E    RMSDP     MaxDP     DIISErr   Damp  Time(sec)
-------------------------------------------------------------------------------------------
               ***  Starting incremental Fock matrix formation  ***
    1    -193.6299108988929731     0.00e+00  1.58e-02  5.26e-02  1.84e-01  0.700   0.0
    2    -193.7103628083197862    -8.05e-02  1.25e-02  3.98e-02  1.20e-01  0.700   0.0
                               ***Turning on AO-DIIS***
    3    -193.7600512562275696    -4.97e-02  7.64e-03  2.00e-02  7.11e-02  0.700   0.0
    4    -193.7914477799514827    -3.14e-02  1.81e-02  4.25e-02  4.79e-02  0.000   0.0
                              *** Initializing SOSCF ***
---------------------------------------S-O-S-C-F--------------------------------------
Iteration    Energy (Eh)           Delta-E    RMSDP     MaxDP     MaxGrad    Time(sec)
--------------------------------------------------------------------------------------
    5    -193.8594253231162554    -6.80e-02  1.73e-03  2.91e-03  2.81e-03     0.0
               *** Restarting incremental Fock matrix formation ***
    6    -193.8595599642495984    -1.35e-04  9.36e-04  1.99e-03  1.55e-03     0.0
    7    -193.8596038788313365    -4.39e-05  6.43e-04  1.45e-03  6.70e-04     0.0
    8    -193.8596137113308657    -9.83e-06  8.78e-05  2.20e-04  1.47e-04     0.0
    9    -193.8596140014666105    -2.90e-07  3.79e-05  8.60e-05  4.26e-05     0.0
                 **** Energy Check signals convergence ****

               *****************************************************
               *                     SUCCESS                       *
               *           SCF CONVERGED AFTER   9 CYCLES          *
               *****************************************************

             **** ENERGY FILE WAS UPDATED (h-shift_037.en.tmp) ****

----------------
TOTAL SCF ENERGY
----------------

Total Energy       :       -193.85961407801776 Eh           -5275.18828 eV

Components:
Nuclear Repulsion  :        162.72831853964820 Eh            4428.06267 eV
Electronic Energy  :       -356.58793261766596 Eh           -9703.25095 eV
One Electron Energy:       -582.37968335226856 Eh          -15847.35685 eV
Two Electron Energy:        225.79175073460260 Eh            6144.10590 eV

Virial components:
Potential Energy   :       -388.07112310545938 Eh          -10559.95212 eV
Kinetic Energy     :        194.21150902744159 Eh            5284.76383 eV
Virial Ratio       :          1.99818808395452

---------------
SCF CONVERGENCE
---------------

  Last Energy change         ...    2.9014e-07  Tolerance :   1.0000e-06
  Last MAX-Density change    ...    8.5985e-05  Tolerance :   1.0000e-05
  Last RMS-Density change    ...    3.7883e-05  Tolerance :   1.0000e-06
  Last DIIS Error            ...    2.8100e-03  Tolerance :   1.0000e-06
  Last Orbital Gradient      ...    4.2630e-05  Tolerance :   5.0000e-05
  Last Orbital Rotation      ...    3.3661e-05  Tolerance :   5.0000e-05


----------------
ORBITAL ENERGIES
----------------

  NO   OCC          E(Eh)            E(eV) 
   0   2.0000     -11.237043      -305.7755 
   1   2.0000     -11.236647      -305.7647 
   2   2.0000     -11.228982      -305.5561 
   3   2.0000     -11.220993      -305.3388 
   4   2.0000     -11.211231      -305.0731 
   5   2.0000      -1.106422       -30.1073 
   6   2.0000      -1.017537       -27.6886 
   7   2.0000      -0.943258       -25.6674 
   8   2.0000      -0.811341       -22.0777 
   9   2.0000      -0.721924       -19.6445 
  10   2.0000      -0.670167       -18.2362 
  11   2.0000      -0.599337       -16.3088 
  12   2.0000      -0.584195       -15.8967 
  13   2.0000      -0.567759       -15.4495 
  14   2.0000      -0.545197       -14.8356 
  15   2.0000      -0.508178       -13.8282 
  16   2.0000      -0.474021       -12.8988 
  17   2.0000      -0.402254       -10.9459 
  18   2.0000      -0.311605        -8.4792 
  19   0.0000       0.131376         3.5749 
  20   0.0000       0.221675         6.0321 
  21   0.0000       0.247684         6.7398 
  22   0.0000       0.272462         7.4141 
  23   0.0000       0.290654         7.9091 
  24   0.0000       0.326197         8.8763 
  25   0.0000       0.334315         9.0972 
  26   0.0000       0.347842         9.4653 
  27   0.0000       0.368234        10.0202 
  28   0.0000       0.372574        10.1383 
  29   0.0000       0.436113        11.8672 
*Only the first 10 virtual orbitals were printed.

                    ********************************
                    * MULLIKEN POPULATION ANALYSIS *
                    ********************************

-----------------------
MULLIKEN ATOMIC CHARGES
-----------------------
   0 C :   -0.520488
   1 H :    0.189346
   2 C :   -0.372627
   3 C :   -0.157084
   4 C :   -0.197548
   5 C :   -0.142513
   6 H :    0.157991
   7 H :    0.172839
   8 H :    0.177175
   9 H :    0.163382
  10 H :    0.171872
  11 H :    0.176394
  12 H :    0.181259
Sum of atomic charges:    0.0000000

--------------------------------
MULLIKEN REDUCED ORBITAL CHARGES
--------------------------------
  0 C s       :     3.368474  s :     3.368474
      pz      :     1.052458  p :     3.152014
      px      :     1.107787
      py      :     0.991770

  1 H s       :     0.810654  s :     0.810654

  2 C s       :     3.274363  s :     3.274363
      pz      :     1.010451  p :     3.098265
      px      :     1.081865
      py      :     1.005948

  3 C s       :     3.199044  s :     3.199044
      pz      :     0.989628  p :     2.958040
      px      :     0.968150
      py      :     1.000262

  4 C s       :     3.200288  s :     3.200288
      pz      :     1.006981  p :     2.997260
      px      :     0.928983
      py      :     1.061296

  5 C s       :     3.211954  s :     3.211954
      pz      :     0.935579  p :     2.930558
      px      :     1.022009
      py      :     0.972970

  6 H s       :     0.842009  s :     0.842009

  7 H s       :     0.827161  s :     0.827161

  8 H s       :     0.822825  s :     0.822825

  9 H s       :     0.836618  s :     0.836618

 10 H s       :     0.828128  s :     0.828128

 11 H s       :     0.823606  s :     0.823606

 12 H s       :     0.818741  s :     0.818741



                     *******************************
                     * LOEWDIN POPULATION ANALYSIS *
                     *******************************

----------------------
LOEWDIN ATOMIC CHARGES
----------------------
   0 C :   -0.323522
   1 H :    0.132013
   2 C :   -0.254432
   3 C :   -0.115460
   4 C :   -0.150800
   5 C :   -0.102960
   6 H :    0.109086
   7 H :    0.116840
   8 H :    0.119092
   9 H :    0.116879
  10 H :    0.116947
  11 H :    0.117575
  12 H :    0.118743

-------------------------------
LOEWDIN REDUCED ORBITAL CHARGES
-------------------------------
  0 C s       :     2.976970  s :     2.976970
      pz      :     1.111448  p :     3.346551
      px      :     1.144948
      py      :     1.090156

  1 H s       :     0.867987  s :     0.867987

  2 C s       :     2.990408  s :     2.990408
      pz      :     1.040001  p :     3.264024
      px      :     1.116684
      py      :     1.107339

  3 C s       :     2.945567  s :     2.945567
      pz      :     0.990993  p :     3.169893
      px      :     1.072452
      py      :     1.106448

  4 C s       :     2.943329  s :     2.943329
      pz      :     1.077051  p :     3.207471
      px      :     1.059432
      py      :     1.070988

  5 C s       :     2.953668  s :     2.953668
      pz      :     1.035364  p :     3.149293
      px      :     1.071439
      py      :     1.042490

  6 H s       :     0.890914  s :     0.890914

  7 H s       :     0.883160  s :     0.883160

  8 H s       :     0.880908  s :     0.880908

  9 H s       :     0.883121  s :     0.883121

 10 H s       :     0.883053  s :     0.883053

 11 H s       :     0.882425  s :     0.882425

 12 H s       :     0.881257  s :     0.881257



                      *****************************
                      * MAYER POPULATION ANALYSIS *
                      *****************************

  NA   - Mulliken gross atomic population
  ZA   - Total nuclear charge
  QA   - Mulliken gross atomic charge
  VA   - Mayer's total valence
  BVA  - Mayer's bonded valence
  FA   - Mayer's free valence

  ATOM       NA         ZA         QA         VA         BVA        FA
  0 C      6.5205     6.0000    -0.5205     3.7674     3.7674     0.0000
  1 H      0.8107     1.0000     0.1893     0.9225     0.9225     0.0000
  2 C      6.3726     6.0000    -0.3726     3.8333     3.8333    -0.0000
  3 C      6.1571     6.0000    -0.1571     3.8048     3.8048     0.0000
  4 C      6.1975     6.0000    -0.1975     3.8140     3.8140     0.0000
  5 C      6.1425     6.0000    -0.1425     3.7525     3.7525     0.0000
  6 H      0.8420     1.0000     0.1580     0.9350     0.9350    -0.0000
  7 H      0.8272     1.0000     0.1728     0.9217     0.9217     0.0000
  8 H      0.8228     1.0000     0.1772     0.9350     0.9350     0.0000
  9 H      0.8366     1.0000     0.1634     0.9422     0.9422     0.0000
 10 H      0.8281     1.0000     0.1719     0.9368     0.9368     0.0000
 11 H      0.8236     1.0000     0.1764     0.9388     0.9388    -0.0000
 12 H      0.8187     1.0000     0.1813     0.9380     0.9380     0.0000

  Mayer bond orders larger than 0.100000
B(  0-C ,  1-H ) :   0.9258 B(  0-C ,  5-C ) :   0.9673 B(  0-C ,  6-H ) :   0.9610 
B(  0-C ,  7-H ) :   0.9464 B(  2-C ,  3-C ) :   1.8521 B(  2-C ,  8-H ) :   0.9605 
B(  2-C ,  9-H ) :   0.9614 B(  3-C ,  4-C ) :   1.0649 B(  3-C , 10-H ) :   0.9582 
B(  4-C ,  5-C ) :   1.8525 B(  4-C , 11-H ) :   0.9567 B(  5-C , 12-H ) :   0.9549 


-------
TIMINGS
-------

Total SCF time: 0 days 0 hours 0 min 0 sec 

Total time                  ....       0.618 sec
Sum of individual times     ....       0.575 sec  ( 93.1%)

SCF preparation             ....       0.253 sec  ( 41.0%)
Fock matrix formation       ....       0.267 sec  ( 43.2%)
  Startup                   ....       0.001 sec  (  0.5% of F)
  Coulomb+Exchange Fock     ....       0.284 sec  (106.7% of F)
Diagonalization             ....       0.000 sec  (  0.0%)
Density matrix formation    ....       0.008 sec  (  1.3%)
Total Energy calculation    ....       0.005 sec  (  0.8%)
Population analysis         ....       0.005 sec  (  0.7%)
Orbital Transformation      ....       0.005 sec  (  0.7%)
Orbital Orthonormalization  ....       0.000 sec  (  0.0%)
DIIS solution               ....       0.020 sec  (  3.3%)
SOSCF solution              ....       0.014 sec  (  2.2%)
Finished LeanSCF after   0.6 sec

Maximum memory used throughout the entire LEANSCF-calculation: 6.5 MB

-------------------------   --------------------
FINAL SINGLE POINT ENERGY      -193.859614078018
-------------------------   --------------------



           ************************************************************
           *        Program running with 8 parallel MPI-processes     *
           *              working on a common directory               *
           ************************************************************

------------------------------------------------------------------------------
                              ORCA PROPERTY CALCULATIONS
------------------------------------------------------------------------------

GBWName                                 ... h-shift_037.gbw
Number of atoms                         ...     13
Number of basis functions               ...     61
Max core memory                         ...   1200 MB

Electric properties:
Dipole moment                           ... YES
Quadrupole moment                       ...  NO
Static polarizability (Dipole/Dipole)   ...  NO
Static polarizability (Dipole/Quad.)    ...  NO
Static polarizability (Quad./Quad.)     ...  NO
Static polarizability (Velocity)        ...  NO
Static hyperpolarizability              ...  NO

Atomic electric properties:
Dipole moment                           ...  NO
Quadrupole moment                       ...  NO
Static polarizability                   ...  NO

Choice of electric origin               ... Center of mass
Position of electric origin             ...     1.836846    -1.389479     2.092493

General magnetic properties:
Magnetizability                         ...  NO

EPR properties:
g-Tensor (aka g-matrix)                 ...  NO
Zero-Field splitting spin-orbit         ...  NO
Zero-field splitting spin-spin          ...  NO
Hyperfine couplings                     ...  NO (   0 nuclei)
Quadrupole couplings                    ...  NO (   0 nuclei)
Contact density                         ...  NO (   0 nuclei)

NMR properties:
Chemical shifts                         ...  NO (   0 nuclei)
Spin-rotation constants                 ...  NO (   0 nuclei)
Spin-spin couplings                     ...  NO (   0 nuclei,    0 pairs)

Choice of magnetic origin               ... GIAO
Position of magnetic origin             ...     0.000000     0.000000     0.000000

Properties with geometric perturbations:
SCF Hessian                             ...  NO
IR spectrum                             ...  NO
VCD spectrum                            ...  NO
X-ray spectroscopy properties:
SCF XES/XAS/RIXS spectra                ...  NO

SCF SOC stabilization energy            ...  NO
Diagonal Born-Oppenheimer correction    ...  NO

-------------
DIPOLE MOMENT
-------------

Method             : SCF
Type of density    : Electron Density
Multiplicity       :   1
Irrep              :   0
Energy             :  -193.8596140780177564 Eh
Basis              : AO
                                X                 Y                 Z
Electronic contribution:     -0.103754380      -1.719941097       1.919887230
Nuclear contribution   :      0.081474377       1.665840696      -2.145030071
                        -----------------------------------------
Total Dipole Moment    :     -0.022280003      -0.054100401      -0.225142841
                        -----------------------------------------
Magnitude (a.u.)       :      0.232621045
Magnitude (Debye)      :      0.591275708



--------------------
Rotational spectrum 
--------------------
 
Rotational constants in cm-1:             0.275723             0.153944             0.102339 
Rotational constants in MHz :          8265.963503          4615.132246          3068.032102 

Dipole components along the rotational axes: 
x,y,z [a.u.] :     0.125992    -0.068824    -0.183035 
x,y,z [Debye]:     0.320245    -0.174936    -0.465239 

 

Dipole moment calculation done in   0.0 sec 

Maximum memory used throughout the entire PROP-calculation: 2.2 MB

--------------------------------
SUGGESTED CITATIONS FOR THIS RUN
--------------------------------

Below you find a list of papers that are relevant to this ORCA run
We neither can nor want to force you to cite these papers, but we appreciate if you do
You receive ORCA, which is the product of decades of hard work by many enthusiastic individuals, for free
The only thing we kindly ask in return is that you cite our papers,
We deeply appreciate it, if you show your appreciation for ORCA by not just citing the generic ORCA reference.

Please note that relegating all ORCA citations to the supporting information does *not* help us.
SI sections are not indexed - citations you put there will not count into any citation statistics
But we need these citations in order to attract the funding resources that allow us to do what we are doing

Therefore, if you are a happy ORCA user, please consider citing a few of the papers listed below in the main body of your paper

In addition to the list printed below, the program has created the file h-shift_037.bibtex that contains the list in bibtex format
You can import this file easily into all common literature databanks and citation aid programs


List of essential papers. We consider these as the minimum necessary citations

  1. Neese, F.
     Software update: the ORCA program system, version 6.0
     WIRES Comput. Molec. Sci. 2025 15(1), e70019
     doi.org/10.1002/wcms.7019

List of papers to cite with high priority. The work reported in these papers was absolutely
necessary for this run to complete.
Our perspective: the developers of density functionals and basis sets usually get cited in chemistry papers
Good! But without the algorithms to do something with them, the functionals or basis sets would not do anything.
Hence, in our opinion, the algorithm design and method developments papers are equally worthy of getting cited

  1. Neese, F.
     The SHARK Integral Generation and Digestion System
     J. Comp. Chem. 2022 44(3), 381
     doi.org/10.1002/jcc.26942

List of suggested additional citations. These are papers that are important in the 'surrounding' of 
of this run, or papers that preceded the highly important papers. If you like your results we are grateful for a citation.

  1. Neese, F.
     The ORCA program system
     WIRES Comput. Molec. Sci. 2012 2(1), 73-78
     doi.org/10.1002/wcms.81
  2. Neese, F.
     Software update: the ORCA program system, version 4.0
     WIRES Comput. Molec. Sci. 2018 8(1), 1-6
     doi.org/10.1002/wcms.1327
  3. Neese, F.; Wennmohs, F.; Becker, U.; Riplinger, C.
     The ORCA quantum chemistry program package
     J. Chem. Phys. 2020 152(22), 224108
     doi.org/10.1063/5.0004608
  4. Neese, F.
     Software update: The ORCA program system—Version 5.0
     WIRES Comput. Molec. Sci. 2022 12(1), e1606
     doi.org/10.1002/wcms.1606

List of optional additional citations

  1. Neese, F.
     Approximate second-order SCF convergence for spin unrestricted wavefunctions
     Chem. Phys. Lett. 2000 325(1-3), 93-98
     doi.org/10.1016/s0009-2614(00)00662-x

Timings for individual modules:

Sum of individual times          ...        2.267 sec (=   0.038 min)
Startup calculation              ...        0.656 sec (=   0.011 min)  28.9 %
SCF iterations                   ...        1.183 sec (=   0.020 min)  52.2 %
Property calculations            ...        0.428 sec (=   0.007 min)  18.9 %
                             ****ORCA TERMINATED NORMALLY****
TOTAL RUN TIME: 0 days 0 hours 0 minutes 2 seconds 744 msec
