
                                 *****************
                                 * O   R   C   A *
                                 *****************

                                            #,                                       
                                            ###                                      
                                            ####                                     
                                            #####                                    
                                            ######                                   
                                           ########,                                 
                                     ,,################,,,,,                         
                               ,,#################################,,                 
                          ,,##########################################,,             
                       ,#########################################, ''#####,          
                    ,#############################################,,   '####,        
                  ,##################################################,,,,####,       
                ,###########''''           ''''###############################       
              ,#####''   ,,,,##########,,,,          '''####'''          '####       
            ,##' ,,,,###########################,,,                        '##       
           ' ,,###''''                  '''############,,,                           
         ,,##''                                '''############,,,,        ,,,,,,###''
      ,#''                                            '''#######################'''  
     '                                                          ''''####''''         
             ,#######,   #######,   ,#######,      ##                                
            ,#'     '#,  ##    ##  ,#'     '#,    #''#        ,####,    ,#,          
            ##       ##  ##   ,#'  ##            #'  '#       #'       ,# #          
            ##       ##  #######   ##           ,######,      #####,      #          
            '#,     ,#'  ##    ##  '#,     ,#' ,#      #,     #,   #      #          
             '#######'   ##     ##  '#######'  #'      '#     '####' #    #          



                #########################################################
                #                        -***-                          #
                #          Department of theory and spectroscopy        #
                #                                                       #
                #                      Frank Neese                      #
                #                                                       #
                #     Directorship, Architecture, Infrastructure        #
                #                    SHARK, DRIVERS                     #
                #        Core code/Algorithms in most modules           #
                #                                                       #
                #        Max Planck Institute fuer Kohlenforschung      #
                #                Kaiser Wilhelm Platz 1                 #
                #                 D-45470 Muelheim/Ruhr                 #
                #                      Germany                          #
                #                                                       #
                #                  All rights reserved                  #
                #                        -***-                          #
                #########################################################


                         Program Version 6.1.0  -  RELEASE   -
                                (GIT: $679e74b$)
                          ($2025-06-10 18:02:51 +0200$)


 With contributions from (in alphabetic order):
[Max-Planck-Institut fuer Kohlenforschung]                               
  Daniel Aravena         : Magnetic Suceptibility                        
  Michael Atanasov       : Ab Initio Ligand Field Theory (pilot matlab implementation)
  Alexander A. Auer      : GIAO ZORA, VPT2 properties, NMR spectrum      
  Ute Becker             : All parallelization in ORCA, NUMFREQ, NUMCALC 
  Giovanni Bistoni       : ED, misc. LED, open-shell LED, HFLD           
  Dmytro Bykov           : pre 5.0 version of the SCF Hessian            
  Marcos Casanova-Páez   : Triplet and SCS-CIS(D). UHF-(DLPNO)-IP/EA/STEOM-CCSD. UHF-CVS-IP/STEOM-CCSD   
  Vijay G. Chilkuri      : MRCI spin determinant printing, contributions to CSF-ICE 
  Pauline Colinet        : FMM embedding                                 
  Dipayan Datta          : RHF DLPNO-CCSD density                        
  Achintya Kumar Dutta   : EOM-CC, STEOM-CC                              
  Nicolas Foglia         : Exact transition moments, OPA infrastructure, MCD improvements    
  Dmitry Ganyushin       : Spin-Orbit,Spin-Spin,Magnetic field MRCI      
  Miquel Garcia-Rates    : C-PCM and meta-GGA Hessian, CCSD/C-PCM, Gaussian charge scheme 
  Tiago L. C. Gouveia    : GS-ROHF, GS-ROCIS                             
  Yang Guo               : DLPNO-NEVPT2, F12-NEVPT2, CIM, IAO-localization        
  Andreas Hansen         : Spin unrestricted coupled pair/coupled cluster methods 
  Ingolf Harden          : AUTO-CI MPn and infrastructure                
  Benjamin Helmich-Paris : MC-RPA, TRAH-(SCF,CASSCF), AVAS, COSX integrals, SCF dyn. polar., MC-PDFT, srDFT 
  Lee Huntington         : MR-EOM, pCC                                   
  Robert Izsak           : Overlap fitted RIJCOSX, COSX-SCS-MP3, EOM     
  Riya Kayal             : Wick's Theorem for AUTO-CI, AUTO-CI UHF-CCSDT 
  Emily Kempfer          : AUTO-CI RHF CISDT and CCSDT, approximate NEVPT4
  Christian Kollmar      : KDIIS, OOCD, Brueckner-CCSD(T), CCSD density, CASPT2, CASPT2-K, improved NEVPT2 
  Axel Koslowski         : Symmetry handling                             
  Simone Kossmann        : meta-GGA functionals, TD-DFT gradient, OOMP2, (MP2 Hessian; deprecated post 5.0) 
  Lucas Lang             : DCDCAS, Hyperfine gauge corrections, ICE-SOC+SSC
  Marvin Lechner         : AUTO-CI (C++ implementation), FIC-MRCC        
  Spencer Leger          : CASSCF response                               
  Dagmar Lenk            : GEPOL surface, SMD, ORCA-2-JSON               
  Dimitrios Liakos       : Extrapolation schemes; Compound Job, Property file
  Dimitrios Manganas     : Further ROCIS development; embedding schemes. LFT, Crystal Embedding 
  Dimitrios Pantazis     : SARC Basis sets                               
  Anastasios Papadopoulos: AUTO-CI, single reference methods and gradients 
  Taras Petrenko         : pre 6.0 DFT Hessian and TD-DFT gradient,  ECA, NRVS 
  Petra Pikulova         : Analytic Raman intensities                    
  Peter Pinski           : DLPNO-MP2, DLPNO-MP2 Gradient                 
  Shashank Vittal Rao    : ES-AILFT, MagRelax                            
  Christoph Reimann      : Effective Core Potentials                     
  Marius Retegan         : Local ZFS, SOC                                
  Christoph Riplinger    : Optimizer, TS searches, QM/MM, DLPNO-CCSD(T), (RO)-DLPNO pert. Triples 
  Michael Roemelt        : Original ROCIS implementation, recursive CI coupling coefficients
  Masaaki Saitow         : Open-shell DLPNO-CCSD energy and density      
  Barbara Sandhoefer     : DKH picture change effects                    
  Yorick L. A. Schmerwitz: GMF and freeze-and-release deltaSCF, NEB S-IDPP initial path                    
  Kantharuban Sivalingam : CASSCF convergence/infrastructure, NEVPT2, NEVPT3, NEVPT4(SD), FIC-MRCI and CEPA variants
  Bernardo de Souza      : ESD, SOC TD-DFT                               
  Georgi L. Stoychev     : AutoAux, RI-MP2 NMR, DLPNO-MP2 response, X2C  
  Van Anh Tran           : RI-MP2 g-tensors                              
  Willem Van den Heuvel  : Paramagnetic NMR                              
  Zikuan Wang            : NOTCH, Electric field optimization            
  Frank Wennmohs         : Technical directorship and infrastructure     
  Hang Xu                : AUTO-CI-Response properties                   
                                                                         
[FACCTs GmbH]                                                            
  Markus Bursch, Nicolas Foglia, Miquel Garcia-Rates, Ingolf Harden, Hagen Neugebauer, Anastasios Papadopoulos, 
  Christoph Riplinger, Bernardo de Souza, Georgi L. Stoychev                                                    
                                                                 
  APM, various basis sets, CI-OPT, improved COSX, DLPNO-Multilevel,           
  DOCKER, DRACO, updates on ESD, Fragmentator, GOAT, IRC, LR-CPCM, L-BFGS, MBIS, meta-GGA TD-DFT gradient, ML-optimized integration grids, 
  MM, NACMEs, nearIR, NEB, NEB-TS, NL-DFT gradient (VV10), 2- and 3-layer-ONIOM, interface openCOSMO-RS, QMMM,   
  Crystal-QMMM, RESP, rigid body optimization, SF, symmetry and pop. for TD-DFT, various functionals, SOLVATOR                                   
                                                                         
[Other institutions]                                                     
  V. Asgeirsson          : NEB                                           
  Christoph Bannwarth    : sTDA-DFT, sTD-DFT, PBEh-3c, B97-3c, D3        
  Giovanni Bistoni       : ETS/NOCV, ADLD/ADEX, COVALED                  
  Martin Brehm           : Molecular dynamics                            
  Ronald Cardenas        : ETS/NOCV                                      
  Martina Colucci        : COVALED                                       
  Sebastian Ehlert       : rSCAN, r2SCAN, r2SCAN-3c, D4, dhf basis sets  
  Marvin Friede          : D4 for Fr, Ra, Ac-Lr                          
  Lars Goerigk           : TD-DFT with DH, B97 family of functionals     
  Stefan Grimme          : VdW corrections, initial TS optimization, DFT functionals, gCP, sTDA/sTD-DF 
  Waldemar Hujo          : DFT-NL                                        
  H. Jonsson             : NEB                                           
  Holger Kruse           : gCP                                           
  Marcel Mueller         : wB97X-3c, vDZP basis set                      
  Hagen Neugebauer       : wr2SCAN, Native XTB                           
  Gianluca Regni         : ADLD/ADEX                                     
  Tobias Risthaus        : pre 6.0 range-separated hybrid DFT and stability analysis
  Lukas Wittmann         : regularized MP2, r2SCAN double-hybrids, wr2SCAN        
                                                                         
We gratefully acknowledge several colleagues who have allowed us to      
interface, adapt or use parts of their codes:                            
  Ed Valeev, F. Pavosevic, A. Kumar             : LibInt (2-el integral package), F12 methods 
  Garnet Chan, S. Sharma, J. Yang, R. Olivares  : DMRG                   
  Ulf Ekstrom                                   : XCFun DFT Library      
  Mihaly Kallay                                 : mrcc  (arbitrary order and MRCC methods)
  Frank Weinhold                                : gennbo (NPA and NBO analysis)           
  Simon Mueller                                 : openCOSMO-RS                            
  Christopher J. Cramer and Donald G. Truhlar   : smd solvation model                     
  S Lehtola, MJT Oliveira, MAL Marques          : LibXC Library                           
  Liviu Ungur et al                             : ANISO software                          


 Your calculation uses the libint2 library for the computation of 2-el integrals
 For citations please refer to: http://libint.valeyev.net

 Your ORCA version has been built with support for libXC version: 7.0.0
 For citations please refer to: https://libxc.gitlab.io

 This ORCA versions uses:
   CBLAS   interface :  Fast vector & matrix operations
   LAPACKE interface :  Fast linear algebra routines
   SCALAPACK package :  Parallel linear algebra routines
   Shared memory     :  Shared parallel matrices
   BLAS/LAPACK       :  OpenBLAS 0.3.29  USE64BITINT DYNAMIC_ARCH NO_AFFINITY Zen SINGLE_THREADED
        Core in use  :  Zen
   Copyright (c) 2011-2014, The OpenBLAS Project


  ***********************************
  * Starting time: Sun Apr  5 13:00:25 2026
  * Host name:     QC1
  * Process ID:    5292
  * Working dir.:  /home/user/QC/h-shift/split_2
  ***********************************

NOTE: MaxCore=1200 MB was set to SCF,MP2,MDCI,CIPSI,MRCI,RASCI and CIS
      => If you want to overwrite this, your respective input block should be placed after the MaxCore statement
================================================================================

----- Orbital basis set information -----
Your calculation utilizes the basis: 6-31G
   H-He, Li-Ne : W. J. Hehre, R. Ditchfield and J.A. Pople, J. Chem. Phys. 56, 2257 (1972).
                 Note: He and Ne are unpublished basis sets taken from the Gaussian program.
                 Note: Li and B from J. D. Dill and J. A. Pople, J. Chem. Phys. 62, 2921 (1975).
   Na - Ar     : M. M. Francl, W. J. Pietro, W. J. Hehre, J. S. Binkley, M. S. Gordon, 
                 D. J. DeFrees and J. A. Pople, J. Chem. Phys. 77, 3654 (1982).
   K - Zn      : V. A. Rassolov, J. A. Pople, M. A. Ratner, and T. L. Windus, J. Chem. Phys. 109, 1223 (1998).

================================================================================
                                        WARNINGS
                       Please study these warnings very carefully!
================================================================================


================================================================================
                                       INPUT FILE
================================================================================
NAME = h-shift_021.inp
|  1> ! HF 6-31G
|  2> %maxcore 1200
|  3> %pal nprocs 8 end
|  4> * xyz 0 1
|  5> C    0.01534300   0.01088000  -0.15085500
|  6> H    1.04563400   0.01199100  -0.48442400
|  7> C    2.55882100   0.01413200   1.50524600
|  8> C    2.03128600  -1.17061800   1.80433000
|  9> C    0.63311000  -1.60529400   1.67047600
| 10> C   -0.23848600  -1.14352400   0.77364800
| 11> H   -0.62740800  -0.00704400  -1.01899900
| 12> H   -0.15012900   0.95373000   0.36394100
| 13> H    1.97240700   0.87074500   1.24569400
| 14> H    3.62128600   0.15885100   1.50087600
| 15> H    2.70265500  -1.94901800   2.12318100
| 16> H    0.34130100  -2.43923800   2.28583100
| 17> H   -1.19004700  -1.63763900   0.68144700
| 18> *
| 19> 
| 20>                          ****END OF INPUT****
================================================================================

                       ****************************
                       * Single Point Calculation *
                       ****************************

---------------------------------
CARTESIAN COORDINATES (ANGSTROEM)
---------------------------------
  C      0.015343    0.010880   -0.150855
  H      1.045634    0.011991   -0.484424
  C      2.558821    0.014132    1.505246
  C      2.031286   -1.170618    1.804330
  C      0.633110   -1.605294    1.670476
  C     -0.238486   -1.143524    0.773648
  H     -0.627408   -0.007044   -1.018999
  H     -0.150129    0.953730    0.363941
  H      1.972407    0.870745    1.245694
  H      3.621286    0.158851    1.500876
  H      2.702655   -1.949018    2.123181
  H      0.341301   -2.439238    2.285831
  H     -1.190047   -1.637639    0.681447

----------------------------
CARTESIAN COORDINATES (A.U.)
----------------------------
  NO LB      ZA    FRAG     MASS         X           Y           Z
   0 C     6.0000    0    12.011    0.028994    0.020560   -0.285075
   1 H     1.0000    0     1.008    1.975962    0.022660   -0.915429
   2 C     6.0000    0    12.011    4.835471    0.026706    2.844503
   3 C     6.0000    0    12.011    3.838574   -2.212147    3.409690
   4 C     6.0000    0    12.011    1.196405   -3.033566    3.156742
   5 C     6.0000    0    12.011   -0.450673   -2.160947    1.461983
   6 H     1.0000    0     1.008   -1.185629   -0.013311   -1.925629
   7 H     1.0000    0     1.008   -0.283703    1.802289    0.687749
   8 H     1.0000    0     1.008    3.727309    1.645470    2.354021
   9 H     1.0000    0     1.008    6.843239    0.300185    2.836245
  10 H     1.0000    0     1.008    5.107278   -3.683110    4.012231
  11 H     1.0000    0     1.008    0.644965   -4.609492    4.319595
  12 H     1.0000    0     1.008   -2.248863   -3.094689    1.287748

--------------------------------
INTERNAL COORDINATES (ANGSTROEM)
--------------------------------
 C      0   0   0     0.000000000000     0.00000000     0.00000000
 H      1   0   0     1.082944623129     0.00000000     0.00000000
 C      2   1   0     2.499705220571   109.31382927     0.00000000
 C      3   2   1     1.330930868896    86.45491983    63.05780302
 C      4   3   2     1.470291211042   128.28945288   321.14553115
 C      5   4   3     1.333120992896   125.49089177    28.78221560
 H      1   2   3     1.080335189889   108.57366417   180.95173261
 H      1   2   3     1.086904792013   106.84829537    65.01908825
 H      3   2   1     1.070062826132    58.39085670   289.81831337
 H      3   2   1     1.072284739277   126.63208000   189.60003226
 H      4   3   2     1.076247580421   117.58969106   136.48021263
 H      5   4   3     1.076697201465   115.76510293   201.87189926
 H      6   5   4     1.076159372188   118.47008337   171.36655781

---------------------------
INTERNAL COORDINATES (A.U.)
---------------------------
 C      0   0   0     0.000000000000     0.00000000     0.00000000
 H      1   0   0     2.046468755915     0.00000000     0.00000000
 C      2   1   0     4.723758282412   109.31382927     0.00000000
 C      3   2   1     2.515094845396    86.45491983    63.05780302
 C      4   3   2     2.778447725981   128.28945288   321.14553115
 C      5   4   3     2.519233579955   125.49089177    28.78221560
 H      1   2   3     2.041537641728   108.57366417   180.95173261
 H      1   2   3     2.053952390550   106.84829537    65.01908825
 H      3   2   1     2.022125687479    58.39085670   289.81831337
 H      3   2   1     2.026324494816   126.63208000   189.60003226
 H      4   3   2     2.033813179291   117.58969106   136.48021263
 H      5   4   3     2.034662839928   115.76510293   201.87189926
 H      6   5   4     2.033646489887   118.47008337   171.36655781

---------------------
BASIS SET INFORMATION
---------------------
There are 2 groups of distinct atoms

 Group   1 Type C   : 10s4p contracted to 3s2p pattern {631/31}
 Group   2 Type H   : 4s contracted to 2s pattern {31}

Atom   0C    basis set group =>   1
Atom   1H    basis set group =>   2
Atom   2C    basis set group =>   1
Atom   3C    basis set group =>   1
Atom   4C    basis set group =>   1
Atom   5C    basis set group =>   1
Atom   6H    basis set group =>   2
Atom   7H    basis set group =>   2
Atom   8H    basis set group =>   2
Atom   9H    basis set group =>   2
Atom  10H    basis set group =>   2
Atom  11H    basis set group =>   2
Atom  12H    basis set group =>   2


           ************************************************************
           *        Program running with 8 parallel MPI-processes     *
           *              working on a common directory               *
           ************************************************************
------------------------------------------------------------------------------
                             ORCA STARTUP CALCULATIONS
------------------------------------------------------------------------------
------------------------------------------------------------------------------
                   ___                                                        
                  /   \      - P O W E R E D   B Y -                         
                 /     \                                                     
                 |  |  |   _    _      __       _____    __    __             
                 |  |  |  | |  | |    /  \     |  _  \  |  |  /  |          
                  \  \/   | |  | |   /    \    | | | |  |  | /  /          
                 / \  \   | |__| |  /  /\  \   | |_| |  |  |/  /          
                |  |  |   |  __  | /  /__\  \  |    /   |      \           
                |  |  |   | |  | | |   __   |  |    \   |  |\   \          
                \     /   | |  | | |  |  |  |  | |\  \  |  | \   \       
                 \___/    |_|  |_| |__|  |__|  |_| \__\ |__|  \__/        
                                                                              
                      - O R C A' S   B I G   F R I E N D -                    
                                      &                                       
                       - I N T E G R A L  F E E D E R -                       
                                                                              
 v1 FN, 2020, v2 2021, v3 2022-2024                                           
------------------------------------------------------------------------------


----------------------
SHARK INTEGRAL PACKAGE
----------------------

Number of atoms                             ...     13
Number of basis functions                   ...     61
Number of shells                            ...     41
Maximum angular momentum                    ...      1
Integral batch strategy                     ... SHARK/LIBINT Hybrid
RI-J (if used) integral strategy            ... SPLIT-RIJ (Revised 2003 algorithm where possible)
Printlevel                                  ...      1
Contraction scheme used                     ... SEGMENTED contraction
Prescreening option                         ... SCHWARTZ
   Thresh                                   ... 1.000e-10
   Tcut                                     ... 1.000e-11
   Tpresel                                  ... 1.000e-11 
Coulomb Range Separation                    ... NOT USED
Exchange Range Separation                   ... NOT USED
Multipole approximations                    ... NOT USED
Finite Nucleus Model                        ... NOT USED
CABS basis                                  ... NOT available
Auxiliary Coulomb fitting basis             ... NOT available
Auxiliary J/K fitting basis                 ... NOT available
Auxiliary Correlation fitting basis         ... NOT available
Auxiliary 'external' fitting basis          ... NOT available

Checking pre-screening integrals            ... done (  0.0 sec) Dimension = 41
   => SHARK Basis and OBASIS are compatible. Storing Pre-screening
Shell pair information
Shell pair cut-off parameter TPreSel        ...   1.0e-11
Total number of shell pairs                 ...       861
Shell pairs after pre-screening             ...       846
Total number of primitive shell pairs       ...      5382
Primitive shell pairs kept                  ...      3733
          la=0 lb=0:    481 shell pairs
          la=1 lb=0:    310 shell pairs
          la=1 lb=1:     55 shell pairs

Checking whether 4 symmetric matrices of dimension 61 fit in memory
:Max Core in MB      =   1200.00
 MB in use           =      2.04
 MB left             =   1197.96
 MB needed           =      0.06
 Data fit in memory  = YES
Calculating Nuclear repulsion               ... done (  0.0 sec) ENN=    161.022944897434 Eh

Diagonalization of the overlap matrix:
Smallest eigenvalue                        ... 3.373e-03
Time for diagonalization                   ...    0.001 sec
Threshold for overlap eigenvalues          ... 1.000e-07
Number of eigenvalues below threshold      ... 0
Time for construction of square roots      ...    0.000 sec
Total time needed                          ...    0.001 sec

-------------------
DFT GRID GENERATION
-------------------

General Integration Accuracy     IntAcc      ... 4.388
Radial Grid Type                 RadialGrid  ... OptM3 with GC (2021)
Angular Grid (max. ang.)         AngularGrid ... 4 (Lebedev-302)
Angular grid pruning method      GridPruning ... 4 (adaptive)
Weight generation scheme         WeightScheme... mBecke (2022)
Basis function cutoff            BFCut       ... 1.0000e-10
Integration weight cutoff        WCut        ... 1.0000e-14
Partially contracted basis set               ... off
Rotationally invariant grid construction     ... off
Angular grids for H and He will be reduced by one unit

Total number of grid points                  ...    56038
Total number of batches                      ...      883
Average number of points per batch           ...       63
Average number of grid points per atom       ...     4311
Grids setup in   0.2 sec
Initializing property integral containers    ... done (  0.0 sec)

SHARK setup successfully completed in   0.3 seconds

Maximum memory used throughout the entire STARTUP-calculation: 11.8 MB


           ************************************************************
           *        Program running with 8 parallel MPI-processes     *
           *              working on a common directory               *
           ************************************************************
-------------------------------------------------------------------------------
                                 ORCA GUESS
                   Start orbitals & Density for SCF / CASSCF
-------------------------------------------------------------------------------

------------
SCF SETTINGS
------------
Hamiltonian:
 Ab initio Hamiltonian  Method          .... Hartree-Fock(GTOs)


General Settings:
 Integral files         IntName         .... h-shift_021
 Hartree-Fock type      HFTyp           .... RHF
 Total Charge           Charge          ....    0
 Multiplicity           Mult            ....    1
 Number of Electrons    NEL             ....   38
 Basis Dimension        Dim             ....   61
 Nuclear Repulsion      ENuc            ....    161.0229448974 Eh

Convergence Acceleration:
 AO-DIIS                CNVDIIS         .... on
   Start iteration      DIISMaxIt       ....    12
   Startup error        DIISStart       ....  0.200000
   # of expansion vecs  DIISMaxEq       ....     5
   Bias factor          DIISBfac        ....   1.050
   Max. coefficient     DIISMaxC        ....  10.000
 MO-DIIS                CNVKDIIS        .... off
 Trust-Rad. Augm. Hess. CNVTRAH         .... auto
   Auto Start mean grad. ratio tolernc. ....  1.125000
   Auto Start start iteration           ....    50
   Auto Start num. interpolation iter.  ....    10
   Max. Number of Micro iterations      ....    24
   Max. Number of Macro iterations      .... Maxiter - #DIIS iter
   Number of Davidson start vectors     ....     2
   Converg. threshold    (grad. norm)   ....   5.000e-05
   Grad. Scal. Fac. for Micro threshold ....   0.100
   Minimum threshold for Micro iter.    ....   1.000e-02
   NR start threshold (gradient norm)   ....   1.000e-04
   Initial trust radius                 ....   0.400
   Minimum AH scaling param. (alpha)    ....   1.000
   Maximum AH scaling param. (alpha)    .... 1000.000
   Quad. conv. algorithm                .... NR
   White noise on init. David. guess    .... on
   Maximum white noise                  ....   0.010
   Pseudo random numbers                .... off
   Inactive MOs                         .... canonical
   Orbital update algorithm             .... Taylor
   Preconditioner                       .... Diag
   Full preconditioner red. dimension   ....   250
 SOSCF                 CNVSOSCF           .... on
   Start iteration     SOSCFMaxIt         ....   150
   Startup grad/error  SOSCFStart         ....  0.003300
   Hessian update      SOSCFHessUp        .... L-BFGS
   Autom. constraints  SOSCFAutoConstrain .... off
 Level Shifting         CNVShift        .... on
   Level shift para.    LevelShift      ....    0.2500
   Turn off err/grad.   ShiftErr        ....    0.0010
 Zerner damping         CNVZerner       .... off
 Static damping         CNVDamp         .... on
   Fraction old density DampFac         ....    0.7000
   Max. Damping (<1)    DampMax         ....    0.9800
   Min. Damping (>=0)   DampMin         ....    0.0000
   Turn off err/grad.   DampErr         ....    0.1000

SCF Procedure:
 Maximum # iterations   MaxIter         ....   125
 SCF integral mode      SCFMode         .... Direct
   Integral package                     .... SHARK and LIBINT hybrid scheme
 Reset frequency        DirectResetFreq ....    20
 Integral Threshold     Thresh          ....  1.000e-10 Eh
 Primitive CutOff       TCut            ....  1.000e-11 Eh

Convergence Tolerance:
 Convergence Check Mode ConvCheckMode   .... Total+1el-Energy
 Convergence forced     ConvForced      .... 0
 Energy Change          TolE            ....  1.000e-06 Eh
 1-El. energy change                    ....  1.000e-03 Eh
 Orbital Gradient       TolG            ....  5.000e-05
 Orbital Rotation angle TolX            ....  5.000e-05
 DIIS Error             TolErr          ....  1.000e-06

------------------------------
INITIAL GUESS: MODEL POTENTIAL
------------------------------
Loading Hartree-Fock densities                     ... done
Calculating cut-offs                               ... done
Initializing the effective Hamiltonian             ... done
Setting up the integral package (SHARK)            ... done
Starting the Coulomb interaction                   ... done (   0.0 sec)
Making the grid                                    ... done (   0.1 sec)
Mapping shells                                     ... done
Starting the XC term evaluation                    ... done (   0.0 sec)
Transforming the Hamiltonian                       ... done (   0.0 sec)
Diagonalizing the Hamiltonian                      ... done (   0.0 sec)
Back transforming the eigenvectors                 ... done (   0.0 sec)
Now organizing SCF variables                       ... done
                      ------------------
                      INITIAL GUESS DONE (   0.1 sec)
                      ------------------
             **** ENERGY FILE WAS UPDATED (h-shift_021.en.tmp) ****
Finished Guess after   0.3 sec
Maximum memory used throughout the entire GUESS-calculation: 4.2 MB


           ************************************************************
           *        Program running with 8 parallel MPI-processes     *
           *              working on a common directory               *
           ************************************************************

-------------------------------------------------------------------------------------------
                                      ORCA LEAN-SCF
                              memory conserving SCF solver
-------------------------------------------------------------------------------------------

----------------------------------------D-I-I-S--------------------------------------------
Iteration    Energy (Eh)           Delta-E    RMSDP     MaxDP     DIISErr   Damp  Time(sec)
-------------------------------------------------------------------------------------------
               ***  Starting incremental Fock matrix formation  ***
    1    -193.6447505270590739     0.00e+00  1.57e-02  5.33e-02  1.88e-01  0.700   0.0
    2    -193.7256440147810110    -8.09e-02  1.25e-02  4.04e-02  1.23e-01  0.700   0.1
                               ***Turning on AO-DIIS***
    3    -193.7756559023323177    -5.00e-02  7.70e-03  2.03e-02  7.34e-02  0.700   0.0
    4    -193.8072603475406765    -3.16e-02  1.83e-02  4.30e-02  4.96e-02  0.000   0.0
                              *** Initializing SOSCF ***
---------------------------------------S-O-S-C-F--------------------------------------
Iteration    Energy (Eh)           Delta-E    RMSDP     MaxDP     MaxGrad    Time(sec)
--------------------------------------------------------------------------------------
    5    -193.8756385850817594    -6.84e-02  1.70e-03  2.77e-03  2.78e-03     0.1
               *** Restarting incremental Fock matrix formation ***
    6    -193.8757606791888009    -1.22e-04  8.75e-04  1.84e-03  1.36e-03     0.0
    7    -193.8757968157735547    -3.61e-05  5.48e-04  1.20e-03  5.61e-04     0.0
    8    -193.8758038637837160    -7.05e-06  7.22e-05  1.77e-04  1.35e-04     0.0
    9    -193.8758040837839474    -2.20e-07  3.25e-05  7.85e-05  3.01e-05     0.0
                 **** Energy Check signals convergence ****

               *****************************************************
               *                     SUCCESS                       *
               *           SCF CONVERGED AFTER   9 CYCLES          *
               *****************************************************

             **** ENERGY FILE WAS UPDATED (h-shift_021.en.tmp) ****

----------------
TOTAL SCF ENERGY
----------------

Total Energy       :       -193.87580414206948 Eh           -5275.62884 eV

Components:
Nuclear Repulsion  :        161.02294489743363 Eh            4381.65709 eV
Electronic Energy  :       -354.89874903950312 Eh           -9657.28593 eV
One Electron Energy:       -579.00303828504832 Eh          -15755.47366 eV
Two Electron Energy:        224.10428924554520 Eh            6098.18774 eV

Virial components:
Potential Energy   :       -388.04818922736632 Eh          -10559.32805 eV
Kinetic Energy     :        194.17238508529684 Eh            5283.69922 eV
Virial Ratio       :          1.99847258948229

---------------
SCF CONVERGENCE
---------------

  Last Energy change         ...    2.2000e-07  Tolerance :   1.0000e-06
  Last MAX-Density change    ...    7.8470e-05  Tolerance :   1.0000e-05
  Last RMS-Density change    ...    3.2476e-05  Tolerance :   1.0000e-06
  Last DIIS Error            ...    2.7805e-03  Tolerance :   1.0000e-06
  Last Orbital Gradient      ...    3.0116e-05  Tolerance :   5.0000e-05
  Last Orbital Rotation      ...    3.1217e-05  Tolerance :   5.0000e-05


----------------
ORBITAL ENERGIES
----------------

  NO   OCC          E(Eh)            E(eV) 
   0   2.0000     -11.236047      -305.7484 
   1   2.0000     -11.235766      -305.7407 
   2   2.0000     -11.227533      -305.5167 
   3   2.0000     -11.221259      -305.3460 
   4   2.0000     -11.214740      -305.1686 
   5   2.0000      -1.100995       -29.9596 
   6   2.0000      -1.020628       -27.7727 
   7   2.0000      -0.941331       -25.6149 
   8   2.0000      -0.813624       -22.1398 
   9   2.0000      -0.717994       -19.5376 
  10   2.0000      -0.667695       -18.1689 
  11   2.0000      -0.602752       -16.4017 
  12   2.0000      -0.584647       -15.9090 
  13   2.0000      -0.567591       -15.4449 
  14   2.0000      -0.542264       -14.7558 
  15   2.0000      -0.507179       -13.8011 
  16   2.0000      -0.469124       -12.7655 
  17   2.0000      -0.410787       -11.1781 
  18   2.0000      -0.315273        -8.5790 
  19   0.0000       0.132711         3.6112 
  20   0.0000       0.231368         6.2958 
  21   0.0000       0.252466         6.8700 
  22   0.0000       0.266676         7.2566 
  23   0.0000       0.291657         7.9364 
  24   0.0000       0.321235         8.7412 
  25   0.0000       0.336576         9.1587 
  26   0.0000       0.347813         9.4645 
  27   0.0000       0.360374         9.8063 
  28   0.0000       0.367903        10.0112 
  29   0.0000       0.430353        11.7105 
*Only the first 10 virtual orbitals were printed.

                    ********************************
                    * MULLIKEN POPULATION ANALYSIS *
                    ********************************

-----------------------
MULLIKEN ATOMIC CHARGES
-----------------------
   0 C :   -0.511031
   1 H :    0.182566
   2 C :   -0.363498
   3 C :   -0.152217
   4 C :   -0.196850
   5 C :   -0.147497
   6 H :    0.159120
   7 H :    0.171272
   8 H :    0.172389
   9 H :    0.161749
  10 H :    0.173000
  11 H :    0.175475
  12 H :    0.175523
Sum of atomic charges:    0.0000000

--------------------------------
MULLIKEN REDUCED ORBITAL CHARGES
--------------------------------
  0 C s       :     3.366826  s :     3.366826
      pz      :     1.036825  p :     3.144204
      px      :     1.111672
      py      :     0.995707

  1 H s       :     0.817434  s :     0.817434

  2 C s       :     3.266807  s :     3.266807
      pz      :     1.017302  p :     3.096691
      px      :     1.082547
      py      :     0.996842

  3 C s       :     3.195037  s :     3.195037
      pz      :     0.997227  p :     2.957180
      px      :     0.964433
      py      :     0.995519

  4 C s       :     3.194270  s :     3.194270
      pz      :     1.014980  p :     3.002579
      px      :     0.923712
      py      :     1.063888

  5 C s       :     3.210930  s :     3.210930
      pz      :     0.940020  p :     2.936567
      px      :     1.034591
      py      :     0.961956

  6 H s       :     0.840880  s :     0.840880

  7 H s       :     0.828728  s :     0.828728

  8 H s       :     0.827611  s :     0.827611

  9 H s       :     0.838251  s :     0.838251

 10 H s       :     0.827000  s :     0.827000

 11 H s       :     0.824525  s :     0.824525

 12 H s       :     0.824477  s :     0.824477



                     *******************************
                     * LOEWDIN POPULATION ANALYSIS *
                     *******************************

----------------------
LOEWDIN ATOMIC CHARGES
----------------------
   0 C :   -0.319834
   1 H :    0.125427
   2 C :   -0.247772
   3 C :   -0.113846
   4 C :   -0.150061
   5 C :   -0.106451
   6 H :    0.110641
   7 H :    0.117266
   8 H :    0.117743
   9 H :    0.116106
  10 H :    0.116587
  11 H :    0.117336
  12 H :    0.116857

-------------------------------
LOEWDIN REDUCED ORBITAL CHARGES
-------------------------------
  0 C s       :     2.976214  s :     2.976214
      pz      :     1.106900  p :     3.343620
      px      :     1.144722
      py      :     1.091998

  1 H s       :     0.874573  s :     0.874573

  2 C s       :     2.988421  s :     2.988421
      pz      :     1.036862  p :     3.259351
      px      :     1.115738
      py      :     1.106752

  3 C s       :     2.944953  s :     2.944953
      pz      :     0.987942  p :     3.168893
      px      :     1.071942
      py      :     1.109008

  4 C s       :     2.940853  s :     2.940853
      pz      :     1.075120  p :     3.209209
      px      :     1.063423
      py      :     1.070666

  5 C s       :     2.952012  s :     2.952012
      pz      :     1.032339  p :     3.154438
      px      :     1.088463
      py      :     1.033636

  6 H s       :     0.889359  s :     0.889359

  7 H s       :     0.882734  s :     0.882734

  8 H s       :     0.882257  s :     0.882257

  9 H s       :     0.883894  s :     0.883894

 10 H s       :     0.883413  s :     0.883413

 11 H s       :     0.882664  s :     0.882664

 12 H s       :     0.883143  s :     0.883143



                      *****************************
                      * MAYER POPULATION ANALYSIS *
                      *****************************

  NA   - Mulliken gross atomic population
  ZA   - Total nuclear charge
  QA   - Mulliken gross atomic charge
  VA   - Mayer's total valence
  BVA  - Mayer's bonded valence
  FA   - Mayer's free valence

  ATOM       NA         ZA         QA         VA         BVA        FA
  0 C      6.5110     6.0000    -0.5110     3.7712     3.7712     0.0000
  1 H      0.8174     1.0000     0.1826     0.9301     0.9301    -0.0000
  2 C      6.3635     6.0000    -0.3635     3.8446     3.8446     0.0000
  3 C      6.1522     6.0000    -0.1522     3.8085     3.8085    -0.0000
  4 C      6.1968     6.0000    -0.1968     3.8224     3.8224     0.0000
  5 C      6.1475     6.0000    -0.1475     3.7651     3.7651     0.0000
  6 H      0.8409     1.0000     0.1591     0.9329     0.9329    -0.0000
  7 H      0.8287     1.0000     0.1713     0.9219     0.9219    -0.0000
  8 H      0.8276     1.0000     0.1724     0.9386     0.9386     0.0000
  9 H      0.8383     1.0000     0.1617     0.9438     0.9438     0.0000
 10 H      0.8270     1.0000     0.1730     0.9372     0.9372    -0.0000
 11 H      0.8245     1.0000     0.1755     0.9387     0.9387    -0.0000
 12 H      0.8245     1.0000     0.1755     0.9386     0.9386     0.0000

  Mayer bond orders larger than 0.100000
B(  0-C ,  1-H ) :   0.9413 B(  0-C ,  5-C ) :   0.9598 B(  0-C ,  6-H ) :   0.9599 
B(  0-C ,  7-H ) :   0.9452 B(  2-C ,  3-C ) :   1.8771 B(  2-C ,  8-H ) :   0.9612 
B(  2-C ,  9-H ) :   0.9628 B(  3-C ,  4-C ) :   1.0480 B(  3-C , 10-H ) :   0.9578 
B(  4-C ,  5-C ) :   1.8787 B(  4-C , 11-H ) :   0.9565 B(  5-C , 12-H ) :   0.9573 


-------
TIMINGS
-------

Total SCF time: 0 days 0 hours 0 min 0 sec 

Total time                  ....       0.711 sec
Sum of individual times     ....       0.668 sec  ( 94.0%)

SCF preparation             ....       0.270 sec  ( 38.0%)
Fock matrix formation       ....       0.343 sec  ( 48.2%)
  Startup                   ....       0.001 sec  (  0.4% of F)
  Coulomb+Exchange Fock     ....       0.361 sec  (105.2% of F)
Diagonalization             ....       0.000 sec  (  0.0%)
Density matrix formation    ....       0.008 sec  (  1.1%)
Total Energy calculation    ....       0.005 sec  (  0.6%)
Population analysis         ....       0.004 sec  (  0.6%)
Orbital Transformation      ....       0.005 sec  (  0.6%)
Orbital Orthonormalization  ....       0.000 sec  (  0.0%)
DIIS solution               ....       0.021 sec  (  2.9%)
SOSCF solution              ....       0.014 sec  (  1.9%)
Finished LeanSCF after   0.7 sec

Maximum memory used throughout the entire LEANSCF-calculation: 6.4 MB

-------------------------   --------------------
FINAL SINGLE POINT ENERGY      -193.875804142069
-------------------------   --------------------



           ************************************************************
           *        Program running with 8 parallel MPI-processes     *
           *              working on a common directory               *
           ************************************************************

------------------------------------------------------------------------------
                              ORCA PROPERTY CALCULATIONS
------------------------------------------------------------------------------

GBWName                                 ... h-shift_021.gbw
Number of atoms                         ...     13
Number of basis functions               ...     61
Max core memory                         ...   1200 MB

Electric properties:
Dipole moment                           ... YES
Quadrupole moment                       ...  NO
Static polarizability (Dipole/Dipole)   ...  NO
Static polarizability (Dipole/Quad.)    ...  NO
Static polarizability (Quad./Quad.)     ...  NO
Static polarizability (Velocity)        ...  NO
Static hyperpolarizability              ...  NO

Atomic electric properties:
Dipole moment                           ...  NO
Quadrupole moment                       ...  NO
Static polarizability                   ...  NO

Choice of electric origin               ... Center of mass
Position of electric origin             ...     1.881801    -1.410542     2.054175

General magnetic properties:
Magnetizability                         ...  NO

EPR properties:
g-Tensor (aka g-matrix)                 ...  NO
Zero-Field splitting spin-orbit         ...  NO
Zero-field splitting spin-spin          ...  NO
Hyperfine couplings                     ...  NO (   0 nuclei)
Quadrupole couplings                    ...  NO (   0 nuclei)
Contact density                         ...  NO (   0 nuclei)

NMR properties:
Chemical shifts                         ...  NO (   0 nuclei)
Spin-rotation constants                 ...  NO (   0 nuclei)
Spin-spin couplings                     ...  NO (   0 nuclei,    0 pairs)

Choice of magnetic origin               ... GIAO
Position of magnetic origin             ...     0.000000     0.000000     0.000000

Properties with geometric perturbations:
SCF Hessian                             ...  NO
IR spectrum                             ...  NO
VCD spectrum                            ...  NO
X-ray spectroscopy properties:
SCF XES/XAS/RIXS spectra                ...  NO

SCF SOC stabilization energy            ...  NO
Diagonal Born-Oppenheimer correction    ...  NO

-------------
DIPOLE MOMENT
-------------

Method             : SCF
Type of density    : Electron Density
Multiplicity       :   1
Irrep              :   0
Energy             :  -193.8758041420694838 Eh
Basis              : AO
                                X                 Y                 Z
Electronic contribution:      0.181909496      -1.810534516       1.749574610
Nuclear contribution   :     -0.235247293       1.814238694      -1.875071777
                        -----------------------------------------
Total Dipole Moment    :     -0.053337797       0.003704177      -0.125497167
                        -----------------------------------------
Magnitude (a.u.)       :      0.136411805
Magnitude (Debye)      :      0.346731252



--------------------
Rotational spectrum 
--------------------
 
Rotational constants in cm-1:             0.284658             0.141426             0.097720 
Rotational constants in MHz :          8533.828340          4239.859435          2929.575600 

Dipole components along the rotational axes: 
x,y,z [a.u.] :     0.107506     0.049676    -0.067697 
x,y,z [Debye]:     0.273260     0.126266    -0.172071 

 

Dipole moment calculation done in   0.0 sec 

Maximum memory used throughout the entire PROP-calculation: 2.2 MB

--------------------------------
SUGGESTED CITATIONS FOR THIS RUN
--------------------------------

Below you find a list of papers that are relevant to this ORCA run
We neither can nor want to force you to cite these papers, but we appreciate if you do
You receive ORCA, which is the product of decades of hard work by many enthusiastic individuals, for free
The only thing we kindly ask in return is that you cite our papers,
We deeply appreciate it, if you show your appreciation for ORCA by not just citing the generic ORCA reference.

Please note that relegating all ORCA citations to the supporting information does *not* help us.
SI sections are not indexed - citations you put there will not count into any citation statistics
But we need these citations in order to attract the funding resources that allow us to do what we are doing

Therefore, if you are a happy ORCA user, please consider citing a few of the papers listed below in the main body of your paper

In addition to the list printed below, the program has created the file h-shift_021.bibtex that contains the list in bibtex format
You can import this file easily into all common literature databanks and citation aid programs


List of essential papers. We consider these as the minimum necessary citations

  1. Neese, F.
     Software update: the ORCA program system, version 6.0
     WIRES Comput. Molec. Sci. 2025 15(1), e70019
     doi.org/10.1002/wcms.7019

List of papers to cite with high priority. The work reported in these papers was absolutely
necessary for this run to complete.
Our perspective: the developers of density functionals and basis sets usually get cited in chemistry papers
Good! But without the algorithms to do something with them, the functionals or basis sets would not do anything.
Hence, in our opinion, the algorithm design and method developments papers are equally worthy of getting cited

  1. Neese, F.
     The SHARK Integral Generation and Digestion System
     J. Comp. Chem. 2022 44(3), 381
     doi.org/10.1002/jcc.26942

List of suggested additional citations. These are papers that are important in the 'surrounding' of 
of this run, or papers that preceded the highly important papers. If you like your results we are grateful for a citation.

  1. Neese, F.
     The ORCA program system
     WIRES Comput. Molec. Sci. 2012 2(1), 73-78
     doi.org/10.1002/wcms.81
  2. Neese, F.
     Software update: the ORCA program system, version 4.0
     WIRES Comput. Molec. Sci. 2018 8(1), 1-6
     doi.org/10.1002/wcms.1327
  3. Neese, F.; Wennmohs, F.; Becker, U.; Riplinger, C.
     The ORCA quantum chemistry program package
     J. Chem. Phys. 2020 152(22), 224108
     doi.org/10.1063/5.0004608
  4. Neese, F.
     Software update: The ORCA program system—Version 5.0
     WIRES Comput. Molec. Sci. 2022 12(1), e1606
     doi.org/10.1002/wcms.1606

List of optional additional citations

  1. Neese, F.
     Approximate second-order SCF convergence for spin unrestricted wavefunctions
     Chem. Phys. Lett. 2000 325(1-3), 93-98
     doi.org/10.1016/s0009-2614(00)00662-x

Timings for individual modules:

Sum of individual times          ...        2.294 sec (=   0.038 min)
Startup calculation              ...        0.669 sec (=   0.011 min)  29.2 %
SCF iterations                   ...        1.257 sec (=   0.021 min)  54.8 %
Property calculations            ...        0.368 sec (=   0.006 min)  16.0 %
                             ****ORCA TERMINATED NORMALLY****
TOTAL RUN TIME: 0 days 0 hours 0 minutes 2 seconds 795 msec
