
                                 *****************
                                 * O   R   C   A *
                                 *****************

                                            #,                                       
                                            ###                                      
                                            ####                                     
                                            #####                                    
                                            ######                                   
                                           ########,                                 
                                     ,,################,,,,,                         
                               ,,#################################,,                 
                          ,,##########################################,,             
                       ,#########################################, ''#####,          
                    ,#############################################,,   '####,        
                  ,##################################################,,,,####,       
                ,###########''''           ''''###############################       
              ,#####''   ,,,,##########,,,,          '''####'''          '####       
            ,##' ,,,,###########################,,,                        '##       
           ' ,,###''''                  '''############,,,                           
         ,,##''                                '''############,,,,        ,,,,,,###''
      ,#''                                            '''#######################'''  
     '                                                          ''''####''''         
             ,#######,   #######,   ,#######,      ##                                
            ,#'     '#,  ##    ##  ,#'     '#,    #''#        ,####,    ,#,          
            ##       ##  ##   ,#'  ##            #'  '#       #'       ,# #          
            ##       ##  #######   ##           ,######,      #####,      #          
            '#,     ,#'  ##    ##  '#,     ,#' ,#      #,     #,   #      #          
             '#######'   ##     ##  '#######'  #'      '#     '####' #    #          



                #########################################################
                #                        -***-                          #
                #          Department of theory and spectroscopy        #
                #                                                       #
                #                      Frank Neese                      #
                #                                                       #
                #     Directorship, Architecture, Infrastructure        #
                #                    SHARK, DRIVERS                     #
                #        Core code/Algorithms in most modules           #
                #                                                       #
                #        Max Planck Institute fuer Kohlenforschung      #
                #                Kaiser Wilhelm Platz 1                 #
                #                 D-45470 Muelheim/Ruhr                 #
                #                      Germany                          #
                #                                                       #
                #                  All rights reserved                  #
                #                        -***-                          #
                #########################################################


                         Program Version 6.1.0  -  RELEASE   -
                                (GIT: $679e74b$)
                          ($2025-06-10 18:02:51 +0200$)


 With contributions from (in alphabetic order):
[Max-Planck-Institut fuer Kohlenforschung]                               
  Daniel Aravena         : Magnetic Suceptibility                        
  Michael Atanasov       : Ab Initio Ligand Field Theory (pilot matlab implementation)
  Alexander A. Auer      : GIAO ZORA, VPT2 properties, NMR spectrum      
  Ute Becker             : All parallelization in ORCA, NUMFREQ, NUMCALC 
  Giovanni Bistoni       : ED, misc. LED, open-shell LED, HFLD           
  Dmytro Bykov           : pre 5.0 version of the SCF Hessian            
  Marcos Casanova-Páez   : Triplet and SCS-CIS(D). UHF-(DLPNO)-IP/EA/STEOM-CCSD. UHF-CVS-IP/STEOM-CCSD   
  Vijay G. Chilkuri      : MRCI spin determinant printing, contributions to CSF-ICE 
  Pauline Colinet        : FMM embedding                                 
  Dipayan Datta          : RHF DLPNO-CCSD density                        
  Achintya Kumar Dutta   : EOM-CC, STEOM-CC                              
  Nicolas Foglia         : Exact transition moments, OPA infrastructure, MCD improvements    
  Dmitry Ganyushin       : Spin-Orbit,Spin-Spin,Magnetic field MRCI      
  Miquel Garcia-Rates    : C-PCM and meta-GGA Hessian, CCSD/C-PCM, Gaussian charge scheme 
  Tiago L. C. Gouveia    : GS-ROHF, GS-ROCIS                             
  Yang Guo               : DLPNO-NEVPT2, F12-NEVPT2, CIM, IAO-localization        
  Andreas Hansen         : Spin unrestricted coupled pair/coupled cluster methods 
  Ingolf Harden          : AUTO-CI MPn and infrastructure                
  Benjamin Helmich-Paris : MC-RPA, TRAH-(SCF,CASSCF), AVAS, COSX integrals, SCF dyn. polar., MC-PDFT, srDFT 
  Lee Huntington         : MR-EOM, pCC                                   
  Robert Izsak           : Overlap fitted RIJCOSX, COSX-SCS-MP3, EOM     
  Riya Kayal             : Wick's Theorem for AUTO-CI, AUTO-CI UHF-CCSDT 
  Emily Kempfer          : AUTO-CI RHF CISDT and CCSDT, approximate NEVPT4
  Christian Kollmar      : KDIIS, OOCD, Brueckner-CCSD(T), CCSD density, CASPT2, CASPT2-K, improved NEVPT2 
  Axel Koslowski         : Symmetry handling                             
  Simone Kossmann        : meta-GGA functionals, TD-DFT gradient, OOMP2, (MP2 Hessian; deprecated post 5.0) 
  Lucas Lang             : DCDCAS, Hyperfine gauge corrections, ICE-SOC+SSC
  Marvin Lechner         : AUTO-CI (C++ implementation), FIC-MRCC        
  Spencer Leger          : CASSCF response                               
  Dagmar Lenk            : GEPOL surface, SMD, ORCA-2-JSON               
  Dimitrios Liakos       : Extrapolation schemes; Compound Job, Property file
  Dimitrios Manganas     : Further ROCIS development; embedding schemes. LFT, Crystal Embedding 
  Dimitrios Pantazis     : SARC Basis sets                               
  Anastasios Papadopoulos: AUTO-CI, single reference methods and gradients 
  Taras Petrenko         : pre 6.0 DFT Hessian and TD-DFT gradient,  ECA, NRVS 
  Petra Pikulova         : Analytic Raman intensities                    
  Peter Pinski           : DLPNO-MP2, DLPNO-MP2 Gradient                 
  Shashank Vittal Rao    : ES-AILFT, MagRelax                            
  Christoph Reimann      : Effective Core Potentials                     
  Marius Retegan         : Local ZFS, SOC                                
  Christoph Riplinger    : Optimizer, TS searches, QM/MM, DLPNO-CCSD(T), (RO)-DLPNO pert. Triples 
  Michael Roemelt        : Original ROCIS implementation, recursive CI coupling coefficients
  Masaaki Saitow         : Open-shell DLPNO-CCSD energy and density      
  Barbara Sandhoefer     : DKH picture change effects                    
  Yorick L. A. Schmerwitz: GMF and freeze-and-release deltaSCF, NEB S-IDPP initial path                    
  Kantharuban Sivalingam : CASSCF convergence/infrastructure, NEVPT2, NEVPT3, NEVPT4(SD), FIC-MRCI and CEPA variants
  Bernardo de Souza      : ESD, SOC TD-DFT                               
  Georgi L. Stoychev     : AutoAux, RI-MP2 NMR, DLPNO-MP2 response, X2C  
  Van Anh Tran           : RI-MP2 g-tensors                              
  Willem Van den Heuvel  : Paramagnetic NMR                              
  Zikuan Wang            : NOTCH, Electric field optimization            
  Frank Wennmohs         : Technical directorship and infrastructure     
  Hang Xu                : AUTO-CI-Response properties                   
                                                                         
[FACCTs GmbH]                                                            
  Markus Bursch, Nicolas Foglia, Miquel Garcia-Rates, Ingolf Harden, Hagen Neugebauer, Anastasios Papadopoulos, 
  Christoph Riplinger, Bernardo de Souza, Georgi L. Stoychev                                                    
                                                                 
  APM, various basis sets, CI-OPT, improved COSX, DLPNO-Multilevel,           
  DOCKER, DRACO, updates on ESD, Fragmentator, GOAT, IRC, LR-CPCM, L-BFGS, MBIS, meta-GGA TD-DFT gradient, ML-optimized integration grids, 
  MM, NACMEs, nearIR, NEB, NEB-TS, NL-DFT gradient (VV10), 2- and 3-layer-ONIOM, interface openCOSMO-RS, QMMM,   
  Crystal-QMMM, RESP, rigid body optimization, SF, symmetry and pop. for TD-DFT, various functionals, SOLVATOR                                   
                                                                         
[Other institutions]                                                     
  V. Asgeirsson          : NEB                                           
  Christoph Bannwarth    : sTDA-DFT, sTD-DFT, PBEh-3c, B97-3c, D3        
  Giovanni Bistoni       : ETS/NOCV, ADLD/ADEX, COVALED                  
  Martin Brehm           : Molecular dynamics                            
  Ronald Cardenas        : ETS/NOCV                                      
  Martina Colucci        : COVALED                                       
  Sebastian Ehlert       : rSCAN, r2SCAN, r2SCAN-3c, D4, dhf basis sets  
  Marvin Friede          : D4 for Fr, Ra, Ac-Lr                          
  Lars Goerigk           : TD-DFT with DH, B97 family of functionals     
  Stefan Grimme          : VdW corrections, initial TS optimization, DFT functionals, gCP, sTDA/sTD-DF 
  Waldemar Hujo          : DFT-NL                                        
  H. Jonsson             : NEB                                           
  Holger Kruse           : gCP                                           
  Marcel Mueller         : wB97X-3c, vDZP basis set                      
  Hagen Neugebauer       : wr2SCAN, Native XTB                           
  Gianluca Regni         : ADLD/ADEX                                     
  Tobias Risthaus        : pre 6.0 range-separated hybrid DFT and stability analysis
  Lukas Wittmann         : regularized MP2, r2SCAN double-hybrids, wr2SCAN        
                                                                         
We gratefully acknowledge several colleagues who have allowed us to      
interface, adapt or use parts of their codes:                            
  Ed Valeev, F. Pavosevic, A. Kumar             : LibInt (2-el integral package), F12 methods 
  Garnet Chan, S. Sharma, J. Yang, R. Olivares  : DMRG                   
  Ulf Ekstrom                                   : XCFun DFT Library      
  Mihaly Kallay                                 : mrcc  (arbitrary order and MRCC methods)
  Frank Weinhold                                : gennbo (NPA and NBO analysis)           
  Simon Mueller                                 : openCOSMO-RS                            
  Christopher J. Cramer and Donald G. Truhlar   : smd solvation model                     
  S Lehtola, MJT Oliveira, MAL Marques          : LibXC Library                           
  Liviu Ungur et al                             : ANISO software                          


 Your calculation uses the libint2 library for the computation of 2-el integrals
 For citations please refer to: http://libint.valeyev.net

 Your ORCA version has been built with support for libXC version: 7.0.0
 For citations please refer to: https://libxc.gitlab.io

 This ORCA versions uses:
   CBLAS   interface :  Fast vector & matrix operations
   LAPACKE interface :  Fast linear algebra routines
   SCALAPACK package :  Parallel linear algebra routines
   Shared memory     :  Shared parallel matrices
   BLAS/LAPACK       :  OpenBLAS 0.3.29  USE64BITINT DYNAMIC_ARCH NO_AFFINITY Zen SINGLE_THREADED
        Core in use  :  Zen
   Copyright (c) 2011-2014, The OpenBLAS Project


  ***********************************
  * Starting time: Sun Apr  5 13:00:28 2026
  * Host name:     QC1
  * Process ID:    5440
  * Working dir.:  /home/user/QC/h-shift/split_2
  ***********************************

NOTE: MaxCore=1200 MB was set to SCF,MP2,MDCI,CIPSI,MRCI,RASCI and CIS
      => If you want to overwrite this, your respective input block should be placed after the MaxCore statement
================================================================================

----- Orbital basis set information -----
Your calculation utilizes the basis: 6-31G
   H-He, Li-Ne : W. J. Hehre, R. Ditchfield and J.A. Pople, J. Chem. Phys. 56, 2257 (1972).
                 Note: He and Ne are unpublished basis sets taken from the Gaussian program.
                 Note: Li and B from J. D. Dill and J. A. Pople, J. Chem. Phys. 62, 2921 (1975).
   Na - Ar     : M. M. Francl, W. J. Pietro, W. J. Hehre, J. S. Binkley, M. S. Gordon, 
                 D. J. DeFrees and J. A. Pople, J. Chem. Phys. 77, 3654 (1982).
   K - Zn      : V. A. Rassolov, J. A. Pople, M. A. Ratner, and T. L. Windus, J. Chem. Phys. 109, 1223 (1998).

================================================================================
                                        WARNINGS
                       Please study these warnings very carefully!
================================================================================


================================================================================
                                       INPUT FILE
================================================================================
NAME = h-shift_022.inp
|  1> ! HF 6-31G
|  2> %maxcore 1200
|  3> %pal nprocs 8 end
|  4> * xyz 0 1
|  5> C    0.01772000   0.01097400  -0.14821500
|  6> H    1.04911200   0.01133000  -0.47845900
|  7> C    2.55623700   0.01473600   1.50232300
|  8> C    2.02877900  -1.16867600   1.80595600
|  9> C    0.63065600  -1.60471300   1.67314400
| 10> C   -0.23849800  -1.14505600   0.77375800
| 11> H   -0.62226800  -0.00402800  -1.01821700
| 12> H   -0.14736800   0.95285200   0.36846900
| 13> H    1.97006100   0.87237900   1.24537500
| 14> H    3.61898600   0.15725600   1.48944700
| 15> H    2.70076000  -1.94714400   2.12337900
| 16> H    0.33979300  -2.43981500   2.28773800
| 17> H   -1.18819600  -1.64214100   0.67569200
| 18> *
| 19> 
| 20>                          ****END OF INPUT****
================================================================================

                       ****************************
                       * Single Point Calculation *
                       ****************************

---------------------------------
CARTESIAN COORDINATES (ANGSTROEM)
---------------------------------
  C      0.017720    0.010974   -0.148215
  H      1.049112    0.011330   -0.478459
  C      2.556237    0.014736    1.502323
  C      2.028779   -1.168676    1.805956
  C      0.630656   -1.604713    1.673144
  C     -0.238498   -1.145056    0.773758
  H     -0.622268   -0.004028   -1.018217
  H     -0.147368    0.952852    0.368469
  H      1.970061    0.872379    1.245375
  H      3.618986    0.157256    1.489447
  H      2.700760   -1.947144    2.123379
  H      0.339793   -2.439815    2.287738
  H     -1.188196   -1.642141    0.675692

----------------------------
CARTESIAN COORDINATES (A.U.)
----------------------------
  NO LB      ZA    FRAG     MASS         X           Y           Z
   0 C     6.0000    0    12.011    0.033486    0.020738   -0.280086
   1 H     1.0000    0     1.008    1.982534    0.021411   -0.904156
   2 C     6.0000    0    12.011    4.830588    0.027847    2.838979
   3 C     6.0000    0    12.011    3.833837   -2.208478    3.412762
   4 C     6.0000    0    12.011    1.191767   -3.032468    3.161784
   5 C     6.0000    0    12.011   -0.450696   -2.163842    1.462191
   6 H     1.0000    0     1.008   -1.175916   -0.007612   -1.924151
   7 H     1.0000    0     1.008   -0.278485    1.800629    0.696305
   8 H     1.0000    0     1.008    3.722876    1.648557    2.353418
   9 H     1.0000    0     1.008    6.838892    0.297171    2.814647
  10 H     1.0000    0     1.008    5.103697   -3.679569    4.012605
  11 H     1.0000    0     1.008    0.642116   -4.610582    4.323198
  12 H     1.0000    0     1.008   -2.245365   -3.103197    1.276873

--------------------------------
INTERNAL COORDINATES (ANGSTROEM)
--------------------------------
 C      0   0   0     0.000000000000     0.00000000     0.00000000
 H      1   0   0     1.082973076275     0.00000000     0.00000000
 C      2   1   0     2.488962574645   109.51188362     0.00000000
 C      3   2   1     1.330739982941    86.58071700    62.98095085
 C      4   3   2     1.470549290518   128.31041991   321.26752063
 C      5   4   3     1.332519572224   125.36714338    28.73753742
 H      1   2   3     1.080144981080   108.58256060   180.75673156
 H      1   2   3     1.086899521798   106.81792585    64.79974318
 H      3   2   1     1.070129007704    58.55557225   289.91767439
 H      3   2   1     1.072340048108   126.20908574   189.43047970
 H      4   3   2     1.076256592228   117.58401840   136.27785058
 H      5   4   3     1.076904090441   115.79688754   201.54485866
 H      6   5   4     1.076399892598   118.53383164   170.95904797

---------------------------
INTERNAL COORDINATES (A.U.)
---------------------------
 C      0   0   0     0.000000000000     0.00000000     0.00000000
 H      1   0   0     2.046522524569     0.00000000     0.00000000
 C      2   1   0     4.703457623659   109.51188362     0.00000000
 C      3   2   1     2.514734123217    86.58071700    62.98095085
 C      4   3   2     2.778935425511   128.31041991   321.26752063
 C      5   4   3     2.518097059594   125.36714338    28.73753742
 H      1   2   3     2.041178199170   108.58256060   180.75673156
 H      1   2   3     2.053942431288   106.81792585    64.79974318
 H      3   2   1     2.022250752525    58.55557225   289.91767439
 H      3   2   1     2.026429013361   126.20908574   189.43047970
 H      4   3   2     2.033830209138   117.58401840   136.27785058
 H      5   4   3     2.035053803433   115.79688754   201.54485866
 H      6   5   4     2.034101007592   118.53383164   170.95904797

---------------------
BASIS SET INFORMATION
---------------------
There are 2 groups of distinct atoms

 Group   1 Type C   : 10s4p contracted to 3s2p pattern {631/31}
 Group   2 Type H   : 4s contracted to 2s pattern {31}

Atom   0C    basis set group =>   1
Atom   1H    basis set group =>   2
Atom   2C    basis set group =>   1
Atom   3C    basis set group =>   1
Atom   4C    basis set group =>   1
Atom   5C    basis set group =>   1
Atom   6H    basis set group =>   2
Atom   7H    basis set group =>   2
Atom   8H    basis set group =>   2
Atom   9H    basis set group =>   2
Atom  10H    basis set group =>   2
Atom  11H    basis set group =>   2
Atom  12H    basis set group =>   2


           ************************************************************
           *        Program running with 8 parallel MPI-processes     *
           *              working on a common directory               *
           ************************************************************
------------------------------------------------------------------------------
                             ORCA STARTUP CALCULATIONS
------------------------------------------------------------------------------
------------------------------------------------------------------------------
                   ___                                                        
                  /   \      - P O W E R E D   B Y -                         
                 /     \                                                     
                 |  |  |   _    _      __       _____    __    __             
                 |  |  |  | |  | |    /  \     |  _  \  |  |  /  |          
                  \  \/   | |  | |   /    \    | | | |  |  | /  /          
                 / \  \   | |__| |  /  /\  \   | |_| |  |  |/  /          
                |  |  |   |  __  | /  /__\  \  |    /   |      \           
                |  |  |   | |  | | |   __   |  |    \   |  |\   \          
                \     /   | |  | | |  |  |  |  | |\  \  |  | \   \       
                 \___/    |_|  |_| |__|  |__|  |_| \__\ |__|  \__/        
                                                                              
                      - O R C A' S   B I G   F R I E N D -                    
                                      &                                       
                       - I N T E G R A L  F E E D E R -                       
                                                                              
 v1 FN, 2020, v2 2021, v3 2022-2024                                           
------------------------------------------------------------------------------


----------------------
SHARK INTEGRAL PACKAGE
----------------------

Number of atoms                             ...     13
Number of basis functions                   ...     61
Number of shells                            ...     41
Maximum angular momentum                    ...      1
Integral batch strategy                     ... SHARK/LIBINT Hybrid
RI-J (if used) integral strategy            ... SPLIT-RIJ (Revised 2003 algorithm where possible)
Printlevel                                  ...      1
Contraction scheme used                     ... SEGMENTED contraction
Prescreening option                         ... SCHWARTZ
   Thresh                                   ... 1.000e-10
   Tcut                                     ... 1.000e-11
   Tpresel                                  ... 1.000e-11 
Coulomb Range Separation                    ... NOT USED
Exchange Range Separation                   ... NOT USED
Multipole approximations                    ... NOT USED
Finite Nucleus Model                        ... NOT USED
CABS basis                                  ... NOT available
Auxiliary Coulomb fitting basis             ... NOT available
Auxiliary J/K fitting basis                 ... NOT available
Auxiliary Correlation fitting basis         ... NOT available
Auxiliary 'external' fitting basis          ... NOT available

Checking pre-screening integrals            ... done (  0.0 sec) Dimension = 41
   => SHARK Basis and OBASIS are compatible. Storing Pre-screening
Shell pair information
Shell pair cut-off parameter TPreSel        ...   1.0e-11
Total number of shell pairs                 ...       861
Shell pairs after pre-screening             ...       846
Total number of primitive shell pairs       ...      5382
Primitive shell pairs kept                  ...      3734
          la=0 lb=0:    481 shell pairs
          la=1 lb=0:    310 shell pairs
          la=1 lb=1:     55 shell pairs

Checking whether 4 symmetric matrices of dimension 61 fit in memory
:Max Core in MB      =   1200.00
 MB in use           =      2.04
 MB left             =   1197.96
 MB needed           =      0.06
 Data fit in memory  = YES
Calculating Nuclear repulsion               ... done (  0.0 sec) ENN=    161.090964168472 Eh

Diagonalization of the overlap matrix:
Smallest eigenvalue                        ... 3.373e-03
Time for diagonalization                   ...    0.001 sec
Threshold for overlap eigenvalues          ... 1.000e-07
Number of eigenvalues below threshold      ... 0
Time for construction of square roots      ...    0.000 sec
Total time needed                          ...    0.001 sec

-------------------
DFT GRID GENERATION
-------------------

General Integration Accuracy     IntAcc      ... 4.388
Radial Grid Type                 RadialGrid  ... OptM3 with GC (2021)
Angular Grid (max. ang.)         AngularGrid ... 4 (Lebedev-302)
Angular grid pruning method      GridPruning ... 4 (adaptive)
Weight generation scheme         WeightScheme... mBecke (2022)
Basis function cutoff            BFCut       ... 1.0000e-10
Integration weight cutoff        WCut        ... 1.0000e-14
Partially contracted basis set               ... off
Rotationally invariant grid construction     ... off
Angular grids for H and He will be reduced by one unit

Total number of grid points                  ...    56034
Total number of batches                      ...      883
Average number of points per batch           ...       63
Average number of grid points per atom       ...     4310
Grids setup in   0.2 sec
Initializing property integral containers    ... done (  0.0 sec)

SHARK setup successfully completed in   0.3 seconds

Maximum memory used throughout the entire STARTUP-calculation: 11.8 MB


           ************************************************************
           *        Program running with 8 parallel MPI-processes     *
           *              working on a common directory               *
           ************************************************************
-------------------------------------------------------------------------------
                                 ORCA GUESS
                   Start orbitals & Density for SCF / CASSCF
-------------------------------------------------------------------------------

------------
SCF SETTINGS
------------
Hamiltonian:
 Ab initio Hamiltonian  Method          .... Hartree-Fock(GTOs)


General Settings:
 Integral files         IntName         .... h-shift_022
 Hartree-Fock type      HFTyp           .... RHF
 Total Charge           Charge          ....    0
 Multiplicity           Mult            ....    1
 Number of Electrons    NEL             ....   38
 Basis Dimension        Dim             ....   61
 Nuclear Repulsion      ENuc            ....    161.0909641685 Eh

Convergence Acceleration:
 AO-DIIS                CNVDIIS         .... on
   Start iteration      DIISMaxIt       ....    12
   Startup error        DIISStart       ....  0.200000
   # of expansion vecs  DIISMaxEq       ....     5
   Bias factor          DIISBfac        ....   1.050
   Max. coefficient     DIISMaxC        ....  10.000
 MO-DIIS                CNVKDIIS        .... off
 Trust-Rad. Augm. Hess. CNVTRAH         .... auto
   Auto Start mean grad. ratio tolernc. ....  1.125000
   Auto Start start iteration           ....    50
   Auto Start num. interpolation iter.  ....    10
   Max. Number of Micro iterations      ....    24
   Max. Number of Macro iterations      .... Maxiter - #DIIS iter
   Number of Davidson start vectors     ....     2
   Converg. threshold    (grad. norm)   ....   5.000e-05
   Grad. Scal. Fac. for Micro threshold ....   0.100
   Minimum threshold for Micro iter.    ....   1.000e-02
   NR start threshold (gradient norm)   ....   1.000e-04
   Initial trust radius                 ....   0.400
   Minimum AH scaling param. (alpha)    ....   1.000
   Maximum AH scaling param. (alpha)    .... 1000.000
   Quad. conv. algorithm                .... NR
   White noise on init. David. guess    .... on
   Maximum white noise                  ....   0.010
   Pseudo random numbers                .... off
   Inactive MOs                         .... canonical
   Orbital update algorithm             .... Taylor
   Preconditioner                       .... Diag
   Full preconditioner red. dimension   ....   250
 SOSCF                 CNVSOSCF           .... on
   Start iteration     SOSCFMaxIt         ....   150
   Startup grad/error  SOSCFStart         ....  0.003300
   Hessian update      SOSCFHessUp        .... L-BFGS
   Autom. constraints  SOSCFAutoConstrain .... off
 Level Shifting         CNVShift        .... on
   Level shift para.    LevelShift      ....    0.2500
   Turn off err/grad.   ShiftErr        ....    0.0010
 Zerner damping         CNVZerner       .... off
 Static damping         CNVDamp         .... on
   Fraction old density DampFac         ....    0.7000
   Max. Damping (<1)    DampMax         ....    0.9800
   Min. Damping (>=0)   DampMin         ....    0.0000
   Turn off err/grad.   DampErr         ....    0.1000

SCF Procedure:
 Maximum # iterations   MaxIter         ....   125
 SCF integral mode      SCFMode         .... Direct
   Integral package                     .... SHARK and LIBINT hybrid scheme
 Reset frequency        DirectResetFreq ....    20
 Integral Threshold     Thresh          ....  1.000e-10 Eh
 Primitive CutOff       TCut            ....  1.000e-11 Eh

Convergence Tolerance:
 Convergence Check Mode ConvCheckMode   .... Total+1el-Energy
 Convergence forced     ConvForced      .... 0
 Energy Change          TolE            ....  1.000e-06 Eh
 1-El. energy change                    ....  1.000e-03 Eh
 Orbital Gradient       TolG            ....  5.000e-05
 Orbital Rotation angle TolX            ....  5.000e-05
 DIIS Error             TolErr          ....  1.000e-06

------------------------------
INITIAL GUESS: MODEL POTENTIAL
------------------------------
Loading Hartree-Fock densities                     ... done
Calculating cut-offs                               ... done
Initializing the effective Hamiltonian             ... done
Setting up the integral package (SHARK)            ... done
Starting the Coulomb interaction                   ... done (   0.0 sec)
Making the grid                                    ... done (   0.1 sec)
Mapping shells                                     ... done
Starting the XC term evaluation                    ... done (   0.0 sec)
Transforming the Hamiltonian                       ... done (   0.0 sec)
Diagonalizing the Hamiltonian                      ... done (   0.0 sec)
Back transforming the eigenvectors                 ... done (   0.0 sec)
Now organizing SCF variables                       ... done
                      ------------------
                      INITIAL GUESS DONE (   0.1 sec)
                      ------------------
             **** ENERGY FILE WAS UPDATED (h-shift_022.en.tmp) ****
Finished Guess after   0.3 sec
Maximum memory used throughout the entire GUESS-calculation: 4.2 MB


           ************************************************************
           *        Program running with 8 parallel MPI-processes     *
           *              working on a common directory               *
           ************************************************************

-------------------------------------------------------------------------------------------
                                      ORCA LEAN-SCF
                              memory conserving SCF solver
-------------------------------------------------------------------------------------------

----------------------------------------D-I-I-S--------------------------------------------
Iteration    Energy (Eh)           Delta-E    RMSDP     MaxDP     DIISErr   Damp  Time(sec)
-------------------------------------------------------------------------------------------
               ***  Starting incremental Fock matrix formation  ***
    1    -193.6443596580450617     0.00e+00  1.57e-02  5.33e-02  1.88e-01  0.700   0.0
    2    -193.7252712677754971    -8.09e-02  1.25e-02  4.04e-02  1.23e-01  0.700   0.0
                               ***Turning on AO-DIIS***
    3    -193.7752908932312721    -5.00e-02  7.70e-03  2.02e-02  7.33e-02  0.700   0.0
    4    -193.8068992393434087    -3.16e-02  1.83e-02  4.30e-02  4.96e-02  0.000   0.0
                              *** Initializing SOSCF ***
---------------------------------------S-O-S-C-F--------------------------------------
Iteration    Energy (Eh)           Delta-E    RMSDP     MaxDP     MaxGrad    Time(sec)
--------------------------------------------------------------------------------------
    5    -193.8752850609671441    -6.84e-02  1.70e-03  2.77e-03  2.77e-03     0.0
               *** Restarting incremental Fock matrix formation ***
    6    -193.8754071605533795    -1.22e-04  8.76e-04  1.84e-03  1.36e-03     0.0
    7    -193.8754433193136038    -3.62e-05  5.49e-04  1.20e-03  5.62e-04     0.0
    8    -193.8754503818733497    -7.06e-06  7.23e-05  1.77e-04  1.35e-04     0.0
    9    -193.8754506019390078    -2.20e-07  3.25e-05  7.83e-05  2.94e-05     0.0
                 **** Energy Check signals convergence ****

               *****************************************************
               *                     SUCCESS                       *
               *           SCF CONVERGED AFTER   9 CYCLES          *
               *****************************************************

             **** ENERGY FILE WAS UPDATED (h-shift_022.en.tmp) ****

----------------
TOTAL SCF ENERGY
----------------

Total Energy       :       -193.87545065988820 Eh           -5275.61922 eV

Components:
Nuclear Repulsion  :        161.09096416847217 Eh            4383.50799 eV
Electronic Energy  :       -354.96641482836037 Eh           -9659.12721 eV
One Electron Energy:       -579.13848509220475 Eh          -15759.15936 eV
Two Electron Energy:        224.17207026384438 Eh            6100.03215 eV

Virial components:
Potential Energy   :       -388.05032564989313 Eh          -10559.38619 eV
Kinetic Energy     :        194.17487499000489 Eh            5283.76697 eV
Virial Ratio       :          1.99845796563468

---------------
SCF CONVERGENCE
---------------

  Last Energy change         ...    2.2007e-07  Tolerance :   1.0000e-06
  Last MAX-Density change    ...    7.8308e-05  Tolerance :   1.0000e-05
  Last RMS-Density change    ...    3.2490e-05  Tolerance :   1.0000e-06
  Last DIIS Error            ...    2.7742e-03  Tolerance :   1.0000e-06
  Last Orbital Gradient      ...    2.9363e-05  Tolerance :   5.0000e-05
  Last Orbital Rotation      ...    3.0895e-05  Tolerance :   5.0000e-05


----------------
ORBITAL ENERGIES
----------------

  NO   OCC          E(Eh)            E(eV) 
   0   2.0000     -11.236035      -305.7481 
   1   2.0000     -11.235750      -305.7403 
   2   2.0000     -11.227516      -305.5162 
   3   2.0000     -11.221199      -305.3443 
   4   2.0000     -11.214628      -305.1655 
   5   2.0000      -1.101228       -29.9659 
   6   2.0000      -1.020555       -27.7707 
   7   2.0000      -0.941409       -25.6170 
   8   2.0000      -0.813485       -22.1360 
   9   2.0000      -0.718077       -19.5399 
  10   2.0000      -0.667782       -18.1713 
  11   2.0000      -0.602616       -16.3980 
  12   2.0000      -0.584651       -15.9092 
  13   2.0000      -0.567609       -15.4454 
  14   2.0000      -0.542377       -14.7588 
  15   2.0000      -0.507232       -13.8025 
  16   2.0000      -0.469038       -12.7632 
  17   2.0000      -0.410612       -11.1733 
  18   2.0000      -0.315374        -8.5818 
  19   0.0000       0.132865         3.6154 
  20   0.0000       0.231114         6.2889 
  21   0.0000       0.252290         6.8652 
  22   0.0000       0.266952         7.2641 
  23   0.0000       0.291607         7.9350 
  24   0.0000       0.321399         8.7457 
  25   0.0000       0.336466         9.1557 
  26   0.0000       0.347869         9.4660 
  27   0.0000       0.360658         9.8140 
  28   0.0000       0.367912        10.0114 
  29   0.0000       0.430559        11.7161 
*Only the first 10 virtual orbitals were printed.

                    ********************************
                    * MULLIKEN POPULATION ANALYSIS *
                    ********************************

-----------------------
MULLIKEN ATOMIC CHARGES
-----------------------
   0 C :   -0.511306
   1 H :    0.182732
   2 C :   -0.363809
   3 C :   -0.152249
   4 C :   -0.196861
   5 C :   -0.147496
   6 H :    0.159082
   7 H :    0.171317
   8 H :    0.172532
   9 H :    0.161742
  10 H :    0.172950
  11 H :    0.175609
  12 H :    0.175759
Sum of atomic charges:    0.0000000

--------------------------------
MULLIKEN REDUCED ORBITAL CHARGES
--------------------------------
  0 C s       :     3.366858  s :     3.366858
      pz      :     1.037393  p :     3.144448
      px      :     1.111630
      py      :     0.995426

  1 H s       :     0.817268  s :     0.817268

  2 C s       :     3.266959  s :     3.266959
      pz      :     1.017070  p :     3.096850
      px      :     1.082648
      py      :     0.997133

  3 C s       :     3.195091  s :     3.195091
      pz      :     0.997039  p :     2.957158
      px      :     0.964553
      py      :     0.995567

  4 C s       :     3.194363  s :     3.194363
      pz      :     1.014713  p :     3.002498
      px      :     0.923964
      py      :     1.063821

  5 C s       :     3.210962  s :     3.210962
      pz      :     0.939758  p :     2.936534
      px      :     1.034310
      py      :     0.962466

  6 H s       :     0.840918  s :     0.840918

  7 H s       :     0.828683  s :     0.828683

  8 H s       :     0.827468  s :     0.827468

  9 H s       :     0.838258  s :     0.838258

 10 H s       :     0.827050  s :     0.827050

 11 H s       :     0.824391  s :     0.824391

 12 H s       :     0.824241  s :     0.824241



                     *******************************
                     * LOEWDIN POPULATION ANALYSIS *
                     *******************************

----------------------
LOEWDIN ATOMIC CHARGES
----------------------
   0 C :   -0.319935
   1 H :    0.125583
   2 C :   -0.247991
   3 C :   -0.113832
   4 C :   -0.150070
   5 C :   -0.106312
   6 H :    0.110574
   7 H :    0.117251
   8 H :    0.117789
   9 H :    0.116091
  10 H :    0.116593
  11 H :    0.117347
  12 H :    0.116912

-------------------------------
LOEWDIN REDUCED ORBITAL CHARGES
-------------------------------
  0 C s       :     2.976270  s :     2.976270
      pz      :     1.107067  p :     3.343664
      px      :     1.144758
      py      :     1.091840

  1 H s       :     0.874417  s :     0.874417

  2 C s       :     2.988414  s :     2.988414
      pz      :     1.036942  p :     3.259577
      px      :     1.115850
      py      :     1.106785

  3 C s       :     2.944963  s :     2.944963
      pz      :     0.987969  p :     3.168869
      px      :     1.071946
      py      :     1.108954

  4 C s       :     2.940855  s :     2.940855
      pz      :     1.075283  p :     3.209215
      px      :     1.063301
      py      :     1.070632

  5 C s       :     2.951993  s :     2.951993
      pz      :     1.032493  p :     3.154319
      px      :     1.087973
      py      :     1.033853

  6 H s       :     0.889426  s :     0.889426

  7 H s       :     0.882749  s :     0.882749

  8 H s       :     0.882211  s :     0.882211

  9 H s       :     0.883909  s :     0.883909

 10 H s       :     0.883407  s :     0.883407

 11 H s       :     0.882653  s :     0.882653

 12 H s       :     0.883088  s :     0.883088



                      *****************************
                      * MAYER POPULATION ANALYSIS *
                      *****************************

  NA   - Mulliken gross atomic population
  ZA   - Total nuclear charge
  QA   - Mulliken gross atomic charge
  VA   - Mayer's total valence
  BVA  - Mayer's bonded valence
  FA   - Mayer's free valence

  ATOM       NA         ZA         QA         VA         BVA        FA
  0 C      6.5113     6.0000    -0.5113     3.7712     3.7712     0.0000
  1 H      0.8173     1.0000     0.1827     0.9299     0.9299     0.0000
  2 C      6.3638     6.0000    -0.3638     3.8443     3.8443    -0.0000
  3 C      6.1522     6.0000    -0.1522     3.8085     3.8085     0.0000
  4 C      6.1969     6.0000    -0.1969     3.8221     3.8221    -0.0000
  5 C      6.1475     6.0000    -0.1475     3.7647     3.7647     0.0000
  6 H      0.8409     1.0000     0.1591     0.9329     0.9329    -0.0000
  7 H      0.8287     1.0000     0.1713     0.9219     0.9219    -0.0000
  8 H      0.8275     1.0000     0.1725     0.9385     0.9385    -0.0000
  9 H      0.8383     1.0000     0.1617     0.9438     0.9438    -0.0000
 10 H      0.8271     1.0000     0.1729     0.9372     0.9372    -0.0000
 11 H      0.8244     1.0000     0.1756     0.9387     0.9387     0.0000
 12 H      0.8242     1.0000     0.1758     0.9386     0.9386    -0.0000

  Mayer bond orders larger than 0.100000
B(  0-C ,  1-H ) :   0.9409 B(  0-C ,  5-C ) :   0.9600 B(  0-C ,  6-H ) :   0.9600 
B(  0-C ,  7-H ) :   0.9453 B(  2-C ,  3-C ) :   1.8767 B(  2-C ,  8-H ) :   0.9612 
B(  2-C ,  9-H ) :   0.9628 B(  3-C ,  4-C ) :   1.0483 B(  3-C , 10-H ) :   0.9578 
B(  4-C ,  5-C ) :   1.8782 B(  4-C , 11-H ) :   0.9565 B(  5-C , 12-H ) :   0.9572 


-------
TIMINGS
-------

Total SCF time: 0 days 0 hours 0 min 0 sec 

Total time                  ....       0.634 sec
Sum of individual times     ....       0.591 sec  ( 93.3%)

SCF preparation             ....       0.257 sec  ( 40.6%)
Fock matrix formation       ....       0.279 sec  ( 44.0%)
  Startup                   ....       0.001 sec  (  0.5% of F)
  Coulomb+Exchange Fock     ....       0.297 sec  (106.5% of F)
Diagonalization             ....       0.000 sec  (  0.0%)
Density matrix formation    ....       0.008 sec  (  1.2%)
Total Energy calculation    ....       0.005 sec  (  0.7%)
Population analysis         ....       0.004 sec  (  0.7%)
Orbital Transformation      ....       0.005 sec  (  0.7%)
Orbital Orthonormalization  ....       0.000 sec  (  0.0%)
DIIS solution               ....       0.020 sec  (  3.2%)
SOSCF solution              ....       0.013 sec  (  2.1%)
Finished LeanSCF after   0.6 sec

Maximum memory used throughout the entire LEANSCF-calculation: 6.4 MB

-------------------------   --------------------
FINAL SINGLE POINT ENERGY      -193.875450659888
-------------------------   --------------------



           ************************************************************
           *        Program running with 8 parallel MPI-processes     *
           *              working on a common directory               *
           ************************************************************

------------------------------------------------------------------------------
                              ORCA PROPERTY CALCULATIONS
------------------------------------------------------------------------------

GBWName                                 ... h-shift_022.gbw
Number of atoms                         ...     13
Number of basis functions               ...     61
Max core memory                         ...   1200 MB

Electric properties:
Dipole moment                           ... YES
Quadrupole moment                       ...  NO
Static polarizability (Dipole/Dipole)   ...  NO
Static polarizability (Dipole/Quad.)    ...  NO
Static polarizability (Quad./Quad.)     ...  NO
Static polarizability (Velocity)        ...  NO
Static hyperpolarizability              ...  NO

Atomic electric properties:
Dipole moment                           ...  NO
Quadrupole moment                       ...  NO
Static polarizability                   ...  NO

Choice of electric origin               ... Center of mass
Position of electric origin             ...     1.880220    -1.410027     2.055433

General magnetic properties:
Magnetizability                         ...  NO

EPR properties:
g-Tensor (aka g-matrix)                 ...  NO
Zero-Field splitting spin-orbit         ...  NO
Zero-field splitting spin-spin          ...  NO
Hyperfine couplings                     ...  NO (   0 nuclei)
Quadrupole couplings                    ...  NO (   0 nuclei)
Contact density                         ...  NO (   0 nuclei)

NMR properties:
Chemical shifts                         ...  NO (   0 nuclei)
Spin-rotation constants                 ...  NO (   0 nuclei)
Spin-spin couplings                     ...  NO (   0 nuclei,    0 pairs)

Choice of magnetic origin               ... GIAO
Position of magnetic origin             ...     0.000000     0.000000     0.000000

Properties with geometric perturbations:
SCF Hessian                             ...  NO
IR spectrum                             ...  NO
VCD spectrum                            ...  NO
X-ray spectroscopy properties:
SCF XES/XAS/RIXS spectra                ...  NO

SCF SOC stabilization energy            ...  NO
Diagonal Born-Oppenheimer correction    ...  NO

-------------
DIPOLE MOMENT
-------------

Method             : SCF
Type of density    : Electron Density
Multiplicity       :   1
Irrep              :   0
Energy             :  -193.8754506598882017 Eh
Basis              : AO
                                X                 Y                 Z
Electronic contribution:      0.171785260      -1.808734930       1.755314843
Nuclear contribution   :     -0.224106893       1.810606505      -1.883935628
                        -----------------------------------------
Total Dipole Moment    :     -0.052321633       0.001871575      -0.128620785
                        -----------------------------------------
Magnitude (a.u.)       :      0.138868147
Magnitude (Debye)      :      0.352974779



--------------------
Rotational spectrum 
--------------------
 
Rotational constants in cm-1:             0.284297             0.141896             0.097894 
Rotational constants in MHz :          8523.003462          4253.929397          2934.799607 

Dipole components along the rotational axes: 
x,y,z [a.u.] :     0.108051     0.050210    -0.071332 
x,y,z [Debye]:     0.274643     0.127625    -0.181313 

 

Dipole moment calculation done in   0.0 sec 

Maximum memory used throughout the entire PROP-calculation: 2.2 MB

--------------------------------
SUGGESTED CITATIONS FOR THIS RUN
--------------------------------

Below you find a list of papers that are relevant to this ORCA run
We neither can nor want to force you to cite these papers, but we appreciate if you do
You receive ORCA, which is the product of decades of hard work by many enthusiastic individuals, for free
The only thing we kindly ask in return is that you cite our papers,
We deeply appreciate it, if you show your appreciation for ORCA by not just citing the generic ORCA reference.

Please note that relegating all ORCA citations to the supporting information does *not* help us.
SI sections are not indexed - citations you put there will not count into any citation statistics
But we need these citations in order to attract the funding resources that allow us to do what we are doing

Therefore, if you are a happy ORCA user, please consider citing a few of the papers listed below in the main body of your paper

In addition to the list printed below, the program has created the file h-shift_022.bibtex that contains the list in bibtex format
You can import this file easily into all common literature databanks and citation aid programs


List of essential papers. We consider these as the minimum necessary citations

  1. Neese, F.
     Software update: the ORCA program system, version 6.0
     WIRES Comput. Molec. Sci. 2025 15(1), e70019
     doi.org/10.1002/wcms.7019

List of papers to cite with high priority. The work reported in these papers was absolutely
necessary for this run to complete.
Our perspective: the developers of density functionals and basis sets usually get cited in chemistry papers
Good! But without the algorithms to do something with them, the functionals or basis sets would not do anything.
Hence, in our opinion, the algorithm design and method developments papers are equally worthy of getting cited

  1. Neese, F.
     The SHARK Integral Generation and Digestion System
     J. Comp. Chem. 2022 44(3), 381
     doi.org/10.1002/jcc.26942

List of suggested additional citations. These are papers that are important in the 'surrounding' of 
of this run, or papers that preceded the highly important papers. If you like your results we are grateful for a citation.

  1. Neese, F.
     The ORCA program system
     WIRES Comput. Molec. Sci. 2012 2(1), 73-78
     doi.org/10.1002/wcms.81
  2. Neese, F.
     Software update: the ORCA program system, version 4.0
     WIRES Comput. Molec. Sci. 2018 8(1), 1-6
     doi.org/10.1002/wcms.1327
  3. Neese, F.; Wennmohs, F.; Becker, U.; Riplinger, C.
     The ORCA quantum chemistry program package
     J. Chem. Phys. 2020 152(22), 224108
     doi.org/10.1063/5.0004608
  4. Neese, F.
     Software update: The ORCA program system—Version 5.0
     WIRES Comput. Molec. Sci. 2022 12(1), e1606
     doi.org/10.1002/wcms.1606

List of optional additional citations

  1. Neese, F.
     Approximate second-order SCF convergence for spin unrestricted wavefunctions
     Chem. Phys. Lett. 2000 325(1-3), 93-98
     doi.org/10.1016/s0009-2614(00)00662-x

Timings for individual modules:

Sum of individual times          ...        2.183 sec (=   0.036 min)
Startup calculation              ...        0.618 sec (=   0.010 min)  28.3 %
SCF iterations                   ...        1.186 sec (=   0.020 min)  54.3 %
Property calculations            ...        0.379 sec (=   0.006 min)  17.4 %
                             ****ORCA TERMINATED NORMALLY****
TOTAL RUN TIME: 0 days 0 hours 0 minutes 2 seconds 625 msec
