
                                 *****************
                                 * O   R   C   A *
                                 *****************

                                            #,                                       
                                            ###                                      
                                            ####                                     
                                            #####                                    
                                            ######                                   
                                           ########,                                 
                                     ,,################,,,,,                         
                               ,,#################################,,                 
                          ,,##########################################,,             
                       ,#########################################, ''#####,          
                    ,#############################################,,   '####,        
                  ,##################################################,,,,####,       
                ,###########''''           ''''###############################       
              ,#####''   ,,,,##########,,,,          '''####'''          '####       
            ,##' ,,,,###########################,,,                        '##       
           ' ,,###''''                  '''############,,,                           
         ,,##''                                '''############,,,,        ,,,,,,###''
      ,#''                                            '''#######################'''  
     '                                                          ''''####''''         
             ,#######,   #######,   ,#######,      ##                                
            ,#'     '#,  ##    ##  ,#'     '#,    #''#        ,####,    ,#,          
            ##       ##  ##   ,#'  ##            #'  '#       #'       ,# #          
            ##       ##  #######   ##           ,######,      #####,      #          
            '#,     ,#'  ##    ##  '#,     ,#' ,#      #,     #,   #      #          
             '#######'   ##     ##  '#######'  #'      '#     '####' #    #          



                #########################################################
                #                        -***-                          #
                #          Department of theory and spectroscopy        #
                #                                                       #
                #                      Frank Neese                      #
                #                                                       #
                #     Directorship, Architecture, Infrastructure        #
                #                    SHARK, DRIVERS                     #
                #        Core code/Algorithms in most modules           #
                #                                                       #
                #        Max Planck Institute fuer Kohlenforschung      #
                #                Kaiser Wilhelm Platz 1                 #
                #                 D-45470 Muelheim/Ruhr                 #
                #                      Germany                          #
                #                                                       #
                #                  All rights reserved                  #
                #                        -***-                          #
                #########################################################


                         Program Version 6.1.0  -  RELEASE   -
                                (GIT: $679e74b$)
                          ($2025-06-10 18:02:51 +0200$)


 With contributions from (in alphabetic order):
[Max-Planck-Institut fuer Kohlenforschung]                               
  Daniel Aravena         : Magnetic Suceptibility                        
  Michael Atanasov       : Ab Initio Ligand Field Theory (pilot matlab implementation)
  Alexander A. Auer      : GIAO ZORA, VPT2 properties, NMR spectrum      
  Ute Becker             : All parallelization in ORCA, NUMFREQ, NUMCALC 
  Giovanni Bistoni       : ED, misc. LED, open-shell LED, HFLD           
  Dmytro Bykov           : pre 5.0 version of the SCF Hessian            
  Marcos Casanova-Páez   : Triplet and SCS-CIS(D). UHF-(DLPNO)-IP/EA/STEOM-CCSD. UHF-CVS-IP/STEOM-CCSD   
  Vijay G. Chilkuri      : MRCI spin determinant printing, contributions to CSF-ICE 
  Pauline Colinet        : FMM embedding                                 
  Dipayan Datta          : RHF DLPNO-CCSD density                        
  Achintya Kumar Dutta   : EOM-CC, STEOM-CC                              
  Nicolas Foglia         : Exact transition moments, OPA infrastructure, MCD improvements    
  Dmitry Ganyushin       : Spin-Orbit,Spin-Spin,Magnetic field MRCI      
  Miquel Garcia-Rates    : C-PCM and meta-GGA Hessian, CCSD/C-PCM, Gaussian charge scheme 
  Tiago L. C. Gouveia    : GS-ROHF, GS-ROCIS                             
  Yang Guo               : DLPNO-NEVPT2, F12-NEVPT2, CIM, IAO-localization        
  Andreas Hansen         : Spin unrestricted coupled pair/coupled cluster methods 
  Ingolf Harden          : AUTO-CI MPn and infrastructure                
  Benjamin Helmich-Paris : MC-RPA, TRAH-(SCF,CASSCF), AVAS, COSX integrals, SCF dyn. polar., MC-PDFT, srDFT 
  Lee Huntington         : MR-EOM, pCC                                   
  Robert Izsak           : Overlap fitted RIJCOSX, COSX-SCS-MP3, EOM     
  Riya Kayal             : Wick's Theorem for AUTO-CI, AUTO-CI UHF-CCSDT 
  Emily Kempfer          : AUTO-CI RHF CISDT and CCSDT, approximate NEVPT4
  Christian Kollmar      : KDIIS, OOCD, Brueckner-CCSD(T), CCSD density, CASPT2, CASPT2-K, improved NEVPT2 
  Axel Koslowski         : Symmetry handling                             
  Simone Kossmann        : meta-GGA functionals, TD-DFT gradient, OOMP2, (MP2 Hessian; deprecated post 5.0) 
  Lucas Lang             : DCDCAS, Hyperfine gauge corrections, ICE-SOC+SSC
  Marvin Lechner         : AUTO-CI (C++ implementation), FIC-MRCC        
  Spencer Leger          : CASSCF response                               
  Dagmar Lenk            : GEPOL surface, SMD, ORCA-2-JSON               
  Dimitrios Liakos       : Extrapolation schemes; Compound Job, Property file
  Dimitrios Manganas     : Further ROCIS development; embedding schemes. LFT, Crystal Embedding 
  Dimitrios Pantazis     : SARC Basis sets                               
  Anastasios Papadopoulos: AUTO-CI, single reference methods and gradients 
  Taras Petrenko         : pre 6.0 DFT Hessian and TD-DFT gradient,  ECA, NRVS 
  Petra Pikulova         : Analytic Raman intensities                    
  Peter Pinski           : DLPNO-MP2, DLPNO-MP2 Gradient                 
  Shashank Vittal Rao    : ES-AILFT, MagRelax                            
  Christoph Reimann      : Effective Core Potentials                     
  Marius Retegan         : Local ZFS, SOC                                
  Christoph Riplinger    : Optimizer, TS searches, QM/MM, DLPNO-CCSD(T), (RO)-DLPNO pert. Triples 
  Michael Roemelt        : Original ROCIS implementation, recursive CI coupling coefficients
  Masaaki Saitow         : Open-shell DLPNO-CCSD energy and density      
  Barbara Sandhoefer     : DKH picture change effects                    
  Yorick L. A. Schmerwitz: GMF and freeze-and-release deltaSCF, NEB S-IDPP initial path                    
  Kantharuban Sivalingam : CASSCF convergence/infrastructure, NEVPT2, NEVPT3, NEVPT4(SD), FIC-MRCI and CEPA variants
  Bernardo de Souza      : ESD, SOC TD-DFT                               
  Georgi L. Stoychev     : AutoAux, RI-MP2 NMR, DLPNO-MP2 response, X2C  
  Van Anh Tran           : RI-MP2 g-tensors                              
  Willem Van den Heuvel  : Paramagnetic NMR                              
  Zikuan Wang            : NOTCH, Electric field optimization            
  Frank Wennmohs         : Technical directorship and infrastructure     
  Hang Xu                : AUTO-CI-Response properties                   
                                                                         
[FACCTs GmbH]                                                            
  Markus Bursch, Nicolas Foglia, Miquel Garcia-Rates, Ingolf Harden, Hagen Neugebauer, Anastasios Papadopoulos, 
  Christoph Riplinger, Bernardo de Souza, Georgi L. Stoychev                                                    
                                                                 
  APM, various basis sets, CI-OPT, improved COSX, DLPNO-Multilevel,           
  DOCKER, DRACO, updates on ESD, Fragmentator, GOAT, IRC, LR-CPCM, L-BFGS, MBIS, meta-GGA TD-DFT gradient, ML-optimized integration grids, 
  MM, NACMEs, nearIR, NEB, NEB-TS, NL-DFT gradient (VV10), 2- and 3-layer-ONIOM, interface openCOSMO-RS, QMMM,   
  Crystal-QMMM, RESP, rigid body optimization, SF, symmetry and pop. for TD-DFT, various functionals, SOLVATOR                                   
                                                                         
[Other institutions]                                                     
  V. Asgeirsson          : NEB                                           
  Christoph Bannwarth    : sTDA-DFT, sTD-DFT, PBEh-3c, B97-3c, D3        
  Giovanni Bistoni       : ETS/NOCV, ADLD/ADEX, COVALED                  
  Martin Brehm           : Molecular dynamics                            
  Ronald Cardenas        : ETS/NOCV                                      
  Martina Colucci        : COVALED                                       
  Sebastian Ehlert       : rSCAN, r2SCAN, r2SCAN-3c, D4, dhf basis sets  
  Marvin Friede          : D4 for Fr, Ra, Ac-Lr                          
  Lars Goerigk           : TD-DFT with DH, B97 family of functionals     
  Stefan Grimme          : VdW corrections, initial TS optimization, DFT functionals, gCP, sTDA/sTD-DF 
  Waldemar Hujo          : DFT-NL                                        
  H. Jonsson             : NEB                                           
  Holger Kruse           : gCP                                           
  Marcel Mueller         : wB97X-3c, vDZP basis set                      
  Hagen Neugebauer       : wr2SCAN, Native XTB                           
  Gianluca Regni         : ADLD/ADEX                                     
  Tobias Risthaus        : pre 6.0 range-separated hybrid DFT and stability analysis
  Lukas Wittmann         : regularized MP2, r2SCAN double-hybrids, wr2SCAN        
                                                                         
We gratefully acknowledge several colleagues who have allowed us to      
interface, adapt or use parts of their codes:                            
  Ed Valeev, F. Pavosevic, A. Kumar             : LibInt (2-el integral package), F12 methods 
  Garnet Chan, S. Sharma, J. Yang, R. Olivares  : DMRG                   
  Ulf Ekstrom                                   : XCFun DFT Library      
  Mihaly Kallay                                 : mrcc  (arbitrary order and MRCC methods)
  Frank Weinhold                                : gennbo (NPA and NBO analysis)           
  Simon Mueller                                 : openCOSMO-RS                            
  Christopher J. Cramer and Donald G. Truhlar   : smd solvation model                     
  S Lehtola, MJT Oliveira, MAL Marques          : LibXC Library                           
  Liviu Ungur et al                             : ANISO software                          


 Your calculation uses the libint2 library for the computation of 2-el integrals
 For citations please refer to: http://libint.valeyev.net

 Your ORCA version has been built with support for libXC version: 7.0.0
 For citations please refer to: https://libxc.gitlab.io

 This ORCA versions uses:
   CBLAS   interface :  Fast vector & matrix operations
   LAPACKE interface :  Fast linear algebra routines
   SCALAPACK package :  Parallel linear algebra routines
   Shared memory     :  Shared parallel matrices
   BLAS/LAPACK       :  OpenBLAS 0.3.29  USE64BITINT DYNAMIC_ARCH NO_AFFINITY Zen SINGLE_THREADED
        Core in use  :  Zen
   Copyright (c) 2011-2014, The OpenBLAS Project


  ***********************************
  * Starting time: Sun Apr  5 13:02:21 2026
  * Host name:     QC1
  * Process ID:    11417
  * Working dir.:  /home/user/QC/h-shift/split_2
  ***********************************

NOTE: MaxCore=1200 MB was set to SCF,MP2,MDCI,CIPSI,MRCI,RASCI and CIS
      => If you want to overwrite this, your respective input block should be placed after the MaxCore statement
================================================================================

----- Orbital basis set information -----
Your calculation utilizes the basis: 6-31G
   H-He, Li-Ne : W. J. Hehre, R. Ditchfield and J.A. Pople, J. Chem. Phys. 56, 2257 (1972).
                 Note: He and Ne are unpublished basis sets taken from the Gaussian program.
                 Note: Li and B from J. D. Dill and J. A. Pople, J. Chem. Phys. 62, 2921 (1975).
   Na - Ar     : M. M. Francl, W. J. Pietro, W. J. Hehre, J. S. Binkley, M. S. Gordon, 
                 D. J. DeFrees and J. A. Pople, J. Chem. Phys. 77, 3654 (1982).
   K - Zn      : V. A. Rassolov, J. A. Pople, M. A. Ratner, and T. L. Windus, J. Chem. Phys. 109, 1223 (1998).

================================================================================
                                        WARNINGS
                       Please study these warnings very carefully!
================================================================================


================================================================================
                                       INPUT FILE
================================================================================
NAME = h-shift_062.inp
|  1> ! HF 6-31G
|  2> %maxcore 1200
|  3> %pal nprocs 8 end
|  4> * xyz 0 1
|  5> C   -0.37126700   0.02289300   0.03335400
|  6> H    2.02043800   0.00147900   0.04406400
|  7> C    2.41065600   0.01200400   1.05393400
|  8> C    1.86133400  -1.15233000   1.82372500
|  9> C    0.61034400  -1.59971400   1.70013500
| 10> C   -0.32589000  -1.15750700   0.65920500
| 11> H   -0.93116800   0.14235300  -0.87108100
| 12> H    0.15941700   0.88652900   0.36885100
| 13> H    2.09079800   0.95032400   1.49960100
| 14> H    3.48888900   0.01602300   1.00677200
| 15> H    2.53749600  -1.67220000   2.47885300
| 16> H    0.30165500  -2.44570400   2.29036700
| 17> H   -0.97075600  -1.93602300   0.29508700
| 18> *
| 19> 
| 20>                          ****END OF INPUT****
================================================================================

                       ****************************
                       * Single Point Calculation *
                       ****************************

---------------------------------
CARTESIAN COORDINATES (ANGSTROEM)
---------------------------------
  C     -0.371267    0.022893    0.033354
  H      2.020438    0.001479    0.044064
  C      2.410656    0.012004    1.053934
  C      1.861334   -1.152330    1.823725
  C      0.610344   -1.599714    1.700135
  C     -0.325890   -1.157507    0.659205
  H     -0.931168    0.142353   -0.871081
  H      0.159417    0.886529    0.368851
  H      2.090798    0.950324    1.499601
  H      3.488889    0.016023    1.006772
  H      2.537496   -1.672200    2.478853
  H      0.301655   -2.445704    2.290367
  H     -0.970756   -1.936023    0.295087

----------------------------
CARTESIAN COORDINATES (A.U.)
----------------------------
  NO LB      ZA    FRAG     MASS         X           Y           Z
   0 C     6.0000    0    12.011   -0.701593    0.043262    0.063030
   1 H     1.0000    0     1.008    3.818074    0.002795    0.083269
   2 C     6.0000    0    12.011    4.555480    0.022684    1.991647
   3 C     6.0000    0    12.011    3.517412   -2.177588    3.446341
   4 C     6.0000    0    12.011    1.153383   -3.023021    3.212790
   5 C     6.0000    0    12.011   -0.615843   -2.187371    1.245717
   6 H     1.0000    0     1.008   -1.759653    0.269008   -1.646105
   7 H     1.0000    0     1.008    0.301254    1.675297    0.697027
   8 H     1.0000    0     1.008    3.951036    1.795852    2.833835
   9 H     1.0000    0     1.008    6.593045    0.030279    1.902523
  10 H     1.0000    0     1.008    4.795173   -3.160000    4.684353
  11 H     1.0000    0     1.008    0.570045   -4.621711    4.328166
  12 H     1.0000    0     1.008   -1.834463   -3.658553    0.557634

--------------------------------
INTERNAL COORDINATES (ANGSTROEM)
--------------------------------
 C      0   0   0     0.000000000000     0.00000000     0.00000000
 H      1   0   0     2.391824841104     0.00000000     0.00000000
 C      2   1   0     1.082690297384   111.37599406     0.00000000
 C      3   2   1     1.500002168972   109.82458860    56.73086395
 C      4   3   2     1.334317395396   123.78443991   322.00226163
 C      1   2   3     1.336821867838    87.48138538   297.13535797
 H      1   2   3     1.070402957127   121.85904905   171.97180989
 H      1   2   3     1.067731654191    60.58311728    68.21352460
 H      3   2   1     1.086909673088   106.54579643   296.90675217
 H      3   2   1     1.079271425034   108.62335775   180.80638408
 H      4   3   2     1.075477830328   117.23131914   139.37719964
 H      5   4   3     1.076736640337   118.78011011   179.75425621
 H      6   1   2     1.074486499746   117.43527364   226.04726600

---------------------------
INTERNAL COORDINATES (A.U.)
---------------------------
 C      0   0   0     0.000000000000     0.00000000     0.00000000
 H      1   0   0     4.519893909996     0.00000000     0.00000000
 C      2   1   0     2.045988149909   111.37599406     0.00000000
 C      3   2   1     2.834593299645   109.82458860    56.73086395
 C      4   3   2     2.521494453025   123.78443991   322.00226163
 C      1   2   3     2.526227220051    87.48138538   297.13535797
 H      1   2   3     2.022768441909   121.85904905   171.97180989
 H      1   2   3     2.017720410939    60.58311728    68.21352460
 H      3   2   1     2.053961614447   106.54579643   296.90675217
 H      3   2   1     2.039527417480   108.62335775   180.80638408
 H      4   3   2     2.032358562425   117.23131914   139.37719964
 H      5   4   3     2.034737368596   118.78011011   179.75425621
 H      6   1   2     2.030485219115   117.43527364   226.04726600

---------------------
BASIS SET INFORMATION
---------------------
There are 2 groups of distinct atoms

 Group   1 Type C   : 10s4p contracted to 3s2p pattern {631/31}
 Group   2 Type H   : 4s contracted to 2s pattern {31}

Atom   0C    basis set group =>   1
Atom   1H    basis set group =>   2
Atom   2C    basis set group =>   1
Atom   3C    basis set group =>   1
Atom   4C    basis set group =>   1
Atom   5C    basis set group =>   1
Atom   6H    basis set group =>   2
Atom   7H    basis set group =>   2
Atom   8H    basis set group =>   2
Atom   9H    basis set group =>   2
Atom  10H    basis set group =>   2
Atom  11H    basis set group =>   2
Atom  12H    basis set group =>   2


           ************************************************************
           *        Program running with 8 parallel MPI-processes     *
           *              working on a common directory               *
           ************************************************************
------------------------------------------------------------------------------
                             ORCA STARTUP CALCULATIONS
------------------------------------------------------------------------------
------------------------------------------------------------------------------
                   ___                                                        
                  /   \      - P O W E R E D   B Y -                         
                 /     \                                                     
                 |  |  |   _    _      __       _____    __    __             
                 |  |  |  | |  | |    /  \     |  _  \  |  |  /  |          
                  \  \/   | |  | |   /    \    | | | |  |  | /  /          
                 / \  \   | |__| |  /  /\  \   | |_| |  |  |/  /          
                |  |  |   |  __  | /  /__\  \  |    /   |      \           
                |  |  |   | |  | | |   __   |  |    \   |  |\   \          
                \     /   | |  | | |  |  |  |  | |\  \  |  | \   \       
                 \___/    |_|  |_| |__|  |__|  |_| \__\ |__|  \__/        
                                                                              
                      - O R C A' S   B I G   F R I E N D -                    
                                      &                                       
                       - I N T E G R A L  F E E D E R -                       
                                                                              
 v1 FN, 2020, v2 2021, v3 2022-2024                                           
------------------------------------------------------------------------------


----------------------
SHARK INTEGRAL PACKAGE
----------------------

Number of atoms                             ...     13
Number of basis functions                   ...     61
Number of shells                            ...     41
Maximum angular momentum                    ...      1
Integral batch strategy                     ... SHARK/LIBINT Hybrid
RI-J (if used) integral strategy            ... SPLIT-RIJ (Revised 2003 algorithm where possible)
Printlevel                                  ...      1
Contraction scheme used                     ... SEGMENTED contraction
Prescreening option                         ... SCHWARTZ
   Thresh                                   ... 1.000e-10
   Tcut                                     ... 1.000e-11
   Tpresel                                  ... 1.000e-11 
Coulomb Range Separation                    ... NOT USED
Exchange Range Separation                   ... NOT USED
Multipole approximations                    ... NOT USED
Finite Nucleus Model                        ... NOT USED
CABS basis                                  ... NOT available
Auxiliary Coulomb fitting basis             ... NOT available
Auxiliary J/K fitting basis                 ... NOT available
Auxiliary Correlation fitting basis         ... NOT available
Auxiliary 'external' fitting basis          ... NOT available

Checking pre-screening integrals            ... done (  0.0 sec) Dimension = 41
   => SHARK Basis and OBASIS are compatible. Storing Pre-screening
Shell pair information
Shell pair cut-off parameter TPreSel        ...   1.0e-11
Total number of shell pairs                 ...       861
Shell pairs after pre-screening             ...       846
Total number of primitive shell pairs       ...      5382
Primitive shell pairs kept                  ...      3741
          la=0 lb=0:    481 shell pairs
          la=1 lb=0:    310 shell pairs
          la=1 lb=1:     55 shell pairs

Checking whether 4 symmetric matrices of dimension 61 fit in memory
:Max Core in MB      =   1200.00
 MB in use           =      2.04
 MB left             =   1197.96
 MB needed           =      0.06
 Data fit in memory  = YES
Calculating Nuclear repulsion               ... done (  0.0 sec) ENN=    161.613253242615 Eh

Diagonalization of the overlap matrix:
Smallest eigenvalue                        ... 3.424e-03
Time for diagonalization                   ...    0.001 sec
Threshold for overlap eigenvalues          ... 1.000e-07
Number of eigenvalues below threshold      ... 0
Time for construction of square roots      ...    0.000 sec
Total time needed                          ...    0.001 sec

-------------------
DFT GRID GENERATION
-------------------

General Integration Accuracy     IntAcc      ... 4.388
Radial Grid Type                 RadialGrid  ... OptM3 with GC (2021)
Angular Grid (max. ang.)         AngularGrid ... 4 (Lebedev-302)
Angular grid pruning method      GridPruning ... 4 (adaptive)
Weight generation scheme         WeightScheme... mBecke (2022)
Basis function cutoff            BFCut       ... 1.0000e-10
Integration weight cutoff        WCut        ... 1.0000e-14
Partially contracted basis set               ... off
Rotationally invariant grid construction     ... off
Angular grids for H and He will be reduced by one unit

Total number of grid points                  ...    56055
Total number of batches                      ...      882
Average number of points per batch           ...       63
Average number of grid points per atom       ...     4312
Grids setup in   0.2 sec
Initializing property integral containers    ... done (  0.0 sec)

SHARK setup successfully completed in   0.3 seconds

Maximum memory used throughout the entire STARTUP-calculation: 11.8 MB


           ************************************************************
           *        Program running with 8 parallel MPI-processes     *
           *              working on a common directory               *
           ************************************************************
-------------------------------------------------------------------------------
                                 ORCA GUESS
                   Start orbitals & Density for SCF / CASSCF
-------------------------------------------------------------------------------

------------
SCF SETTINGS
------------
Hamiltonian:
 Ab initio Hamiltonian  Method          .... Hartree-Fock(GTOs)


General Settings:
 Integral files         IntName         .... h-shift_062
 Hartree-Fock type      HFTyp           .... RHF
 Total Charge           Charge          ....    0
 Multiplicity           Mult            ....    1
 Number of Electrons    NEL             ....   38
 Basis Dimension        Dim             ....   61
 Nuclear Repulsion      ENuc            ....    161.6132532426 Eh

Convergence Acceleration:
 AO-DIIS                CNVDIIS         .... on
   Start iteration      DIISMaxIt       ....    12
   Startup error        DIISStart       ....  0.200000
   # of expansion vecs  DIISMaxEq       ....     5
   Bias factor          DIISBfac        ....   1.050
   Max. coefficient     DIISMaxC        ....  10.000
 MO-DIIS                CNVKDIIS        .... off
 Trust-Rad. Augm. Hess. CNVTRAH         .... auto
   Auto Start mean grad. ratio tolernc. ....  1.125000
   Auto Start start iteration           ....    50
   Auto Start num. interpolation iter.  ....    10
   Max. Number of Micro iterations      ....    24
   Max. Number of Macro iterations      .... Maxiter - #DIIS iter
   Number of Davidson start vectors     ....     2
   Converg. threshold    (grad. norm)   ....   5.000e-05
   Grad. Scal. Fac. for Micro threshold ....   0.100
   Minimum threshold for Micro iter.    ....   1.000e-02
   NR start threshold (gradient norm)   ....   1.000e-04
   Initial trust radius                 ....   0.400
   Minimum AH scaling param. (alpha)    ....   1.000
   Maximum AH scaling param. (alpha)    .... 1000.000
   Quad. conv. algorithm                .... NR
   White noise on init. David. guess    .... on
   Maximum white noise                  ....   0.010
   Pseudo random numbers                .... off
   Inactive MOs                         .... canonical
   Orbital update algorithm             .... Taylor
   Preconditioner                       .... Diag
   Full preconditioner red. dimension   ....   250
 SOSCF                 CNVSOSCF           .... on
   Start iteration     SOSCFMaxIt         ....   150
   Startup grad/error  SOSCFStart         ....  0.003300
   Hessian update      SOSCFHessUp        .... L-BFGS
   Autom. constraints  SOSCFAutoConstrain .... off
 Level Shifting         CNVShift        .... on
   Level shift para.    LevelShift      ....    0.2500
   Turn off err/grad.   ShiftErr        ....    0.0010
 Zerner damping         CNVZerner       .... off
 Static damping         CNVDamp         .... on
   Fraction old density DampFac         ....    0.7000
   Max. Damping (<1)    DampMax         ....    0.9800
   Min. Damping (>=0)   DampMin         ....    0.0000
   Turn off err/grad.   DampErr         ....    0.1000

SCF Procedure:
 Maximum # iterations   MaxIter         ....   125
 SCF integral mode      SCFMode         .... Direct
   Integral package                     .... SHARK and LIBINT hybrid scheme
 Reset frequency        DirectResetFreq ....    20
 Integral Threshold     Thresh          ....  1.000e-10 Eh
 Primitive CutOff       TCut            ....  1.000e-11 Eh

Convergence Tolerance:
 Convergence Check Mode ConvCheckMode   .... Total+1el-Energy
 Convergence forced     ConvForced      .... 0
 Energy Change          TolE            ....  1.000e-06 Eh
 1-El. energy change                    ....  1.000e-03 Eh
 Orbital Gradient       TolG            ....  5.000e-05
 Orbital Rotation angle TolX            ....  5.000e-05
 DIIS Error             TolErr          ....  1.000e-06

------------------------------
INITIAL GUESS: MODEL POTENTIAL
------------------------------
Loading Hartree-Fock densities                     ... done
Calculating cut-offs                               ... done
Initializing the effective Hamiltonian             ... done
Setting up the integral package (SHARK)            ... done
Starting the Coulomb interaction                   ... done (   0.0 sec)
Making the grid                                    ... done (   0.1 sec)
Mapping shells                                     ... done
Starting the XC term evaluation                    ... done (   0.0 sec)
Transforming the Hamiltonian                       ... done (   0.0 sec)
Diagonalizing the Hamiltonian                      ... done (   0.0 sec)
Back transforming the eigenvectors                 ... done (   0.0 sec)
Now organizing SCF variables                       ... done
                      ------------------
                      INITIAL GUESS DONE (   0.1 sec)
                      ------------------
             **** ENERGY FILE WAS UPDATED (h-shift_062.en.tmp) ****
Finished Guess after   0.3 sec
Maximum memory used throughout the entire GUESS-calculation: 4.2 MB


           ************************************************************
           *        Program running with 8 parallel MPI-processes     *
           *              working on a common directory               *
           ************************************************************

-------------------------------------------------------------------------------------------
                                      ORCA LEAN-SCF
                              memory conserving SCF solver
-------------------------------------------------------------------------------------------

----------------------------------------D-I-I-S--------------------------------------------
Iteration    Energy (Eh)           Delta-E    RMSDP     MaxDP     DIISErr   Damp  Time(sec)
-------------------------------------------------------------------------------------------
               ***  Starting incremental Fock matrix formation  ***
    1    -193.6414897305124043     0.00e+00  1.57e-02  5.30e-02  1.83e-01  0.700   0.1
    2    -193.7220344008806308    -8.05e-02  1.25e-02  4.01e-02  1.20e-01  0.700   0.0
                               ***Turning on AO-DIIS***
    3    -193.7718229672651944    -4.98e-02  7.67e-03  2.02e-02  7.22e-02  0.700   0.0
    4    -193.8032884971869123    -3.15e-02  1.82e-02  4.40e-02  4.90e-02  0.000   0.0
                              *** Initializing SOSCF ***
---------------------------------------S-O-S-C-F--------------------------------------
Iteration    Energy (Eh)           Delta-E    RMSDP     MaxDP     MaxGrad    Time(sec)
--------------------------------------------------------------------------------------
    5    -193.8713804824783153    -6.81e-02  1.70e-03  2.80e-03  2.26e-03     0.0
               *** Restarting incremental Fock matrix formation ***
    6    -193.8715049285339376    -1.24e-04  8.88e-04  1.50e-03  1.41e-03     0.0
    7    -193.8715429178590455    -3.80e-05  5.72e-04  1.17e-03  5.89e-04     0.0
    8    -193.8715506696495652    -7.75e-06  7.68e-05  2.36e-04  1.39e-04     0.0
    9    -193.8715509106023944    -2.41e-07  3.42e-05  1.02e-04  3.26e-05     0.0
                 **** Energy Check signals convergence ****

               *****************************************************
               *                     SUCCESS                       *
               *           SCF CONVERGED AFTER   9 CYCLES          *
               *****************************************************

             **** ENERGY FILE WAS UPDATED (h-shift_062.en.tmp) ****

----------------
TOTAL SCF ENERGY
----------------

Total Energy       :       -193.87155097383535 Eh           -5275.51310 eV

Components:
Nuclear Repulsion  :        161.61325324261477 Eh            4397.72020 eV
Electronic Energy  :       -355.48480421645013 Eh           -9673.23330 eV
One Electron Energy:       -580.17663150760427 Eh          -15787.40876 eV
Two Electron Energy:        224.69182729115414 Eh            6114.17546 eV

Virial components:
Potential Energy   :       -388.05245265308992 Eh          -10559.44407 eV
Kinetic Energy     :        194.18090167925456 Eh            5283.93096 eV
Virial Ratio       :          1.99840689427877

---------------
SCF CONVERGENCE
---------------

  Last Energy change         ...    2.4095e-07  Tolerance :   1.0000e-06
  Last MAX-Density change    ...    1.0202e-04  Tolerance :   1.0000e-05
  Last RMS-Density change    ...    3.4250e-05  Tolerance :   1.0000e-06
  Last DIIS Error            ...    2.2577e-03  Tolerance :   1.0000e-06
  Last Orbital Gradient      ...    3.2601e-05  Tolerance :   5.0000e-05
  Last Orbital Rotation      ...    3.2189e-05  Tolerance :   5.0000e-05


----------------
ORBITAL ENERGIES
----------------

  NO   OCC          E(Eh)            E(eV) 
   0   2.0000     -11.236403      -305.7581 
   1   2.0000     -11.236273      -305.7545 
   2   2.0000     -11.227824      -305.5246 
   3   2.0000     -11.221064      -305.3407 
   4   2.0000     -11.213573      -305.1368 
   5   2.0000      -1.102504       -30.0006 
   6   2.0000      -1.018580       -27.7170 
   7   2.0000      -0.941757       -25.6265 
   8   2.0000      -0.813350       -22.1324 
   9   2.0000      -0.719576       -19.5807 
  10   2.0000      -0.668530       -18.1916 
  11   2.0000      -0.601757       -16.3746 
  12   2.0000      -0.583616       -15.8810 
  13   2.0000      -0.567659       -15.4468 
  14   2.0000      -0.543994       -14.8028 
  15   2.0000      -0.507646       -13.8137 
  16   2.0000      -0.470874       -12.8131 
  17   2.0000      -0.407535       -11.0896 
  18   2.0000      -0.313972        -8.5436 
  19   0.0000       0.132225         3.5980 
  20   0.0000       0.227988         6.2039 
  21   0.0000       0.251259         6.8371 
  22   0.0000       0.269177         7.3247 
  23   0.0000       0.291726         7.9383 
  24   0.0000       0.323014         8.7897 
  25   0.0000       0.335391         9.1265 
  26   0.0000       0.347869         9.4660 
  27   0.0000       0.362900         9.8750 
  28   0.0000       0.369600        10.0573 
  29   0.0000       0.432386        11.7658 
*Only the first 10 virtual orbitals were printed.

                    ********************************
                    * MULLIKEN POPULATION ANALYSIS *
                    ********************************

-----------------------
MULLIKEN ATOMIC CHARGES
-----------------------
   0 C :   -0.364580
   1 H :    0.184941
   2 C :   -0.514131
   3 C :   -0.145919
   4 C :   -0.197925
   5 C :   -0.154597
   6 H :    0.161850
   7 H :    0.173659
   8 H :    0.171691
   9 H :    0.158497
  10 H :    0.177617
  11 H :    0.176327
  12 H :    0.172571
Sum of atomic charges:   -0.0000000

--------------------------------
MULLIKEN REDUCED ORBITAL CHARGES
--------------------------------
  0 C s       :     3.268324  s :     3.268324
      pz      :     1.048548  p :     3.096256
      px      :     1.049118
      py      :     0.998590

  1 H s       :     0.815059  s :     0.815059

  2 C s       :     3.367229  s :     3.367229
      pz      :     1.061667  p :     3.146902
      px      :     1.091321
      py      :     0.993915

  3 C s       :     3.211750  s :     3.211750
      pz      :     0.982952  p :     2.934169
      px      :     0.985432
      py      :     0.965785

  4 C s       :     3.196255  s :     3.196255
      pz      :     1.005669  p :     3.001670
      px      :     0.933124
      py      :     1.062877

  5 C s       :     3.197530  s :     3.197530
      pz      :     0.934013  p :     2.957066
      px      :     1.025610
      py      :     0.997444

  6 H s       :     0.838150  s :     0.838150

  7 H s       :     0.826341  s :     0.826341

  8 H s       :     0.828309  s :     0.828309

  9 H s       :     0.841503  s :     0.841503

 10 H s       :     0.822383  s :     0.822383

 11 H s       :     0.823673  s :     0.823673

 12 H s       :     0.827429  s :     0.827429



                     *******************************
                     * LOEWDIN POPULATION ANALYSIS *
                     *******************************

----------------------
LOEWDIN ATOMIC CHARGES
----------------------
   0 C :   -0.250217
   1 H :    0.127426
   2 C :   -0.320991
   3 C :   -0.104709
   4 C :   -0.150647
   5 C :   -0.113904
   6 H :    0.116184
   7 H :    0.118200
   8 H :    0.117074
   9 H :    0.109876
  10 H :    0.117520
  11 H :    0.117436
  12 H :    0.116752

-------------------------------
LOEWDIN REDUCED ORBITAL CHARGES
-------------------------------
  0 C s       :     2.989512  s :     2.989512
      pz      :     1.085391  p :     3.260705
      px      :     1.069111
      py      :     1.106204

  1 H s       :     0.872574  s :     0.872574

  2 C s       :     2.976607  s :     2.976607
      pz      :     1.127672  p :     3.344384
      px      :     1.125778
      py      :     1.090934

  3 C s       :     2.952793  s :     2.952793
      pz      :     1.021367  p :     3.151916
      px      :     1.095053
      py      :     1.035496

  4 C s       :     2.941409  s :     2.941409
      pz      :     1.054431  p :     3.209238
      px      :     1.084236
      py      :     1.070571

  5 C s       :     2.945701  s :     2.945701
      pz      :     1.027604  p :     3.168203
      px      :     1.032639
      py      :     1.107960

  6 H s       :     0.883816  s :     0.883816

  7 H s       :     0.881800  s :     0.881800

  8 H s       :     0.882926  s :     0.882926

  9 H s       :     0.890124  s :     0.890124

 10 H s       :     0.882480  s :     0.882480

 11 H s       :     0.882564  s :     0.882564

 12 H s       :     0.883248  s :     0.883248



                      *****************************
                      * MAYER POPULATION ANALYSIS *
                      *****************************

  NA   - Mulliken gross atomic population
  ZA   - Total nuclear charge
  QA   - Mulliken gross atomic charge
  VA   - Mayer's total valence
  BVA  - Mayer's bonded valence
  FA   - Mayer's free valence

  ATOM       NA         ZA         QA         VA         BVA        FA
  0 C      6.3646     6.0000    -0.3646     3.8423     3.8423    -0.0000
  1 H      0.8151     1.0000     0.1849     0.9284     0.9284     0.0000
  2 C      6.5141     6.0000    -0.5141     3.7702     3.7702    -0.0000
  3 C      6.1459     6.0000    -0.1459     3.7615     3.7615    -0.0000
  4 C      6.1979     6.0000    -0.1979     3.8184     3.8184    -0.0000
  5 C      6.1546     6.0000    -0.1546     3.8076     3.8076    -0.0000
  6 H      0.8382     1.0000     0.1618     0.9434     0.9434     0.0000
  7 H      0.8263     1.0000     0.1737     0.9376     0.9376    -0.0000
  8 H      0.8283     1.0000     0.1717     0.9217     0.9217     0.0000
  9 H      0.8415     1.0000     0.1585     0.9336     0.9336     0.0000
 10 H      0.8224     1.0000     0.1776     0.9384     0.9384     0.0000
 11 H      0.8237     1.0000     0.1763     0.9386     0.9386    -0.0000
 12 H      0.8274     1.0000     0.1726     0.9371     0.9371     0.0000

  Mayer bond orders larger than 0.100000
B(  0-C ,  5-C ) :   1.8702 B(  0-C ,  6-H ) :   0.9625 B(  0-C ,  7-H ) :   0.9609 
B(  1-H ,  2-C ) :   0.9366 B(  2-C ,  3-C ) :   0.9624 B(  2-C ,  8-H ) :   0.9456 
B(  2-C ,  9-H ) :   0.9603 B(  3-C ,  4-C ) :   1.8706 B(  3-C , 10-H ) :   0.9565 
B(  4-C ,  5-C ) :   1.0526 B(  4-C , 11-H ) :   0.9563 B(  5-C , 12-H ) :   0.9577 


-------
TIMINGS
-------

Total SCF time: 0 days 0 hours 0 min 0 sec 

Total time                  ....       0.674 sec
Sum of individual times     ....       0.628 sec  ( 93.3%)

SCF preparation             ....       0.257 sec  ( 38.1%)
Fock matrix formation       ....       0.318 sec  ( 47.2%)
  Startup                   ....       0.001 sec  (  0.4% of F)
  Coulomb+Exchange Fock     ....       0.339 sec  (106.7% of F)
Diagonalization             ....       0.000 sec  (  0.0%)
Density matrix formation    ....       0.007 sec  (  1.1%)
Total Energy calculation    ....       0.005 sec  (  0.7%)
Population analysis         ....       0.004 sec  (  0.7%)
Orbital Transformation      ....       0.004 sec  (  0.7%)
Orbital Orthonormalization  ....       0.000 sec  (  0.0%)
DIIS solution               ....       0.020 sec  (  2.9%)
SOSCF solution              ....       0.013 sec  (  2.0%)
Finished LeanSCF after   0.7 sec

Maximum memory used throughout the entire LEANSCF-calculation: 6.4 MB

-------------------------   --------------------
FINAL SINGLE POINT ENERGY      -193.871550973835
-------------------------   --------------------



           ************************************************************
           *        Program running with 8 parallel MPI-processes     *
           *              working on a common directory               *
           ************************************************************

------------------------------------------------------------------------------
                              ORCA PROPERTY CALCULATIONS
------------------------------------------------------------------------------

GBWName                                 ... h-shift_062.gbw
Number of atoms                         ...     13
Number of basis functions               ...     61
Max core memory                         ...   1200 MB

Electric properties:
Dipole moment                           ... YES
Quadrupole moment                       ...  NO
Static polarizability (Dipole/Dipole)   ...  NO
Static polarizability (Dipole/Quad.)    ...  NO
Static polarizability (Quad./Quad.)     ...  NO
Static polarizability (Velocity)        ...  NO
Static hyperpolarizability              ...  NO

Atomic electric properties:
Dipole moment                           ...  NO
Quadrupole moment                       ...  NO
Static polarizability                   ...  NO

Choice of electric origin               ... Center of mass
Position of electric origin             ...     1.637708    -1.404503     1.954992

General magnetic properties:
Magnetizability                         ...  NO

EPR properties:
g-Tensor (aka g-matrix)                 ...  NO
Zero-Field splitting spin-orbit         ...  NO
Zero-field splitting spin-spin          ...  NO
Hyperfine couplings                     ...  NO (   0 nuclei)
Quadrupole couplings                    ...  NO (   0 nuclei)
Contact density                         ...  NO (   0 nuclei)

NMR properties:
Chemical shifts                         ...  NO (   0 nuclei)
Spin-rotation constants                 ...  NO (   0 nuclei)
Spin-spin couplings                     ...  NO (   0 nuclei,    0 pairs)

Choice of magnetic origin               ... GIAO
Position of magnetic origin             ...     0.000000     0.000000     0.000000

Properties with geometric perturbations:
SCF Hessian                             ...  NO
IR spectrum                             ...  NO
VCD spectrum                            ...  NO
X-ray spectroscopy properties:
SCF XES/XAS/RIXS spectra                ...  NO

SCF SOC stabilization energy            ...  NO
Diagonal Born-Oppenheimer correction    ...  NO

-------------
DIPOLE MOMENT
-------------

Method             : SCF
Type of density    : Electron Density
Multiplicity       :   1
Irrep              :   0
Energy             :  -193.8715509738353546 Eh
Basis              : AO
                                X                 Y                 Z
Electronic contribution:     -1.499372396      -1.789360404       1.030225798
Nuclear contribution   :      1.654629992       1.771866466      -1.091832616
                        -----------------------------------------
Total Dipole Moment    :      0.155257596      -0.017493938      -0.061606818
                        -----------------------------------------
Magnitude (a.u.)       :      0.167947489
Magnitude (Debye)      :      0.426888591



--------------------
Rotational spectrum 
--------------------
 
Rotational constants in cm-1:             0.280410             0.146147             0.099455 
Rotational constants in MHz :          8406.490686          4381.391015          2981.576974 

Dipole components along the rotational axes: 
x,y,z [a.u.] :    -0.116158     0.054673    -0.108279 
x,y,z [Debye]:    -0.295251     0.138968    -0.275224 

 

Dipole moment calculation done in   0.0 sec 

Maximum memory used throughout the entire PROP-calculation: 2.2 MB

--------------------------------
SUGGESTED CITATIONS FOR THIS RUN
--------------------------------

Below you find a list of papers that are relevant to this ORCA run
We neither can nor want to force you to cite these papers, but we appreciate if you do
You receive ORCA, which is the product of decades of hard work by many enthusiastic individuals, for free
The only thing we kindly ask in return is that you cite our papers,
We deeply appreciate it, if you show your appreciation for ORCA by not just citing the generic ORCA reference.

Please note that relegating all ORCA citations to the supporting information does *not* help us.
SI sections are not indexed - citations you put there will not count into any citation statistics
But we need these citations in order to attract the funding resources that allow us to do what we are doing

Therefore, if you are a happy ORCA user, please consider citing a few of the papers listed below in the main body of your paper

In addition to the list printed below, the program has created the file h-shift_062.bibtex that contains the list in bibtex format
You can import this file easily into all common literature databanks and citation aid programs


List of essential papers. We consider these as the minimum necessary citations

  1. Neese, F.
     Software update: the ORCA program system, version 6.0
     WIRES Comput. Molec. Sci. 2025 15(1), e70019
     doi.org/10.1002/wcms.7019

List of papers to cite with high priority. The work reported in these papers was absolutely
necessary for this run to complete.
Our perspective: the developers of density functionals and basis sets usually get cited in chemistry papers
Good! But without the algorithms to do something with them, the functionals or basis sets would not do anything.
Hence, in our opinion, the algorithm design and method developments papers are equally worthy of getting cited

  1. Neese, F.
     The SHARK Integral Generation and Digestion System
     J. Comp. Chem. 2022 44(3), 381
     doi.org/10.1002/jcc.26942

List of suggested additional citations. These are papers that are important in the 'surrounding' of 
of this run, or papers that preceded the highly important papers. If you like your results we are grateful for a citation.

  1. Neese, F.
     The ORCA program system
     WIRES Comput. Molec. Sci. 2012 2(1), 73-78
     doi.org/10.1002/wcms.81
  2. Neese, F.
     Software update: the ORCA program system, version 4.0
     WIRES Comput. Molec. Sci. 2018 8(1), 1-6
     doi.org/10.1002/wcms.1327
  3. Neese, F.; Wennmohs, F.; Becker, U.; Riplinger, C.
     The ORCA quantum chemistry program package
     J. Chem. Phys. 2020 152(22), 224108
     doi.org/10.1063/5.0004608
  4. Neese, F.
     Software update: The ORCA program system—Version 5.0
     WIRES Comput. Molec. Sci. 2022 12(1), e1606
     doi.org/10.1002/wcms.1606

List of optional additional citations

  1. Neese, F.
     Approximate second-order SCF convergence for spin unrestricted wavefunctions
     Chem. Phys. Lett. 2000 325(1-3), 93-98
     doi.org/10.1016/s0009-2614(00)00662-x

Timings for individual modules:

Sum of individual times          ...        2.251 sec (=   0.038 min)
Startup calculation              ...        0.631 sec (=   0.011 min)  28.0 %
SCF iterations                   ...        1.245 sec (=   0.021 min)  55.3 %
Property calculations            ...        0.375 sec (=   0.006 min)  16.6 %
                             ****ORCA TERMINATED NORMALLY****
TOTAL RUN TIME: 0 days 0 hours 0 minutes 2 seconds 700 msec
