[Molden Format]
[Title]
 Molden file created by orca_2mkl for BaseName=h-shift_039

[Atoms] AU
C    1   6          0.1552523403         0.0370046172        -0.1035229771 
H    2   1          2.1726842766        -0.0703960779        -0.4525950783 
C    3   6          4.6689425796         0.0609568959         2.6376702891 
C    4   6          3.6773465854        -2.0951166880         3.5054684346 
C    5   6          1.0645715484        -3.0022097987         3.3117601675 
C    6   6         -0.4806405038        -2.2063648655         1.4795610766 
H    7   1         -0.8676337393         0.1197802910        -1.8583075472 
H    8   1         -0.0883617043         1.8160646092         0.8896584974 
H    9   1          3.6181546937         1.7715804560         2.4059067171 
H   10   1          6.6069455471         0.1550954930         2.0484026579 
H   11   1          4.9767525107        -3.5357758623         4.1035875430 
H   12   1          0.5992094804        -4.6920728275         4.3431896989 
H   13   1         -2.0738931738        -3.3479427538         0.9335889608 
[GTO]
  1 0
s   6 1.0 
     3047.5249000000         0.5363343823
      457.3695100000         0.9894506076
      103.9486900000         1.5972822308
       29.2101550000         2.0791870615
        9.2866630000         1.7741742532
        3.1639270000         0.6125798260
s   3 1.0 
        7.8682724000        -0.3995563516
        1.8812885000        -0.1841552393
        0.5442493000         0.5163903794
p   3 1.0 
        7.8682724000         1.2960827175
        1.8812885000         0.9937536282
        0.5442493000         0.4959527138
s   1 1.0 
        0.1687144000         0.1876178721
p   1 1.0 
        0.1687144000         0.1541275509

  2 0
s   3 1.0 
       18.7311370000         0.2149354183
        2.8253937000         0.3645711272
        0.6401217000         0.4150514277
s   1 1.0 
        0.1612778000         0.1813806839

  3 0
s   6 1.0 
     3047.5249000000         0.5363343823
      457.3695100000         0.9894506076
      103.9486900000         1.5972822308
       29.2101550000         2.0791870615
        9.2866630000         1.7741742532
        3.1639270000         0.6125798260
s   3 1.0 
        7.8682724000        -0.3995563516
        1.8812885000        -0.1841552393
        0.5442493000         0.5163903794
p   3 1.0 
        7.8682724000         1.2960827175
        1.8812885000         0.9937536282
        0.5442493000         0.4959527138
s   1 1.0 
        0.1687144000         0.1876178721
p   1 1.0 
        0.1687144000         0.1541275509

  4 0
s   6 1.0 
     3047.5249000000         0.5363343823
      457.3695100000         0.9894506076
      103.9486900000         1.5972822308
       29.2101550000         2.0791870615
        9.2866630000         1.7741742532
        3.1639270000         0.6125798260
s   3 1.0 
        7.8682724000        -0.3995563516
        1.8812885000        -0.1841552393
        0.5442493000         0.5163903794
p   3 1.0 
        7.8682724000         1.2960827175
        1.8812885000         0.9937536282
        0.5442493000         0.4959527138
s   1 1.0 
        0.1687144000         0.1876178721
p   1 1.0 
        0.1687144000         0.1541275509

  5 0
s   6 1.0 
     3047.5249000000         0.5363343823
      457.3695100000         0.9894506076
      103.9486900000         1.5972822308
       29.2101550000         2.0791870615
        9.2866630000         1.7741742532
        3.1639270000         0.6125798260
s   3 1.0 
        7.8682724000        -0.3995563516
        1.8812885000        -0.1841552393
        0.5442493000         0.5163903794
p   3 1.0 
        7.8682724000         1.2960827175
        1.8812885000         0.9937536282
        0.5442493000         0.4959527138
s   1 1.0 
        0.1687144000         0.1876178721
p   1 1.0 
        0.1687144000         0.1541275509

  6 0
s   6 1.0 
     3047.5249000000         0.5363343823
      457.3695100000         0.9894506076
      103.9486900000         1.5972822308
       29.2101550000         2.0791870615
        9.2866630000         1.7741742532
        3.1639270000         0.6125798260
s   3 1.0 
        7.8682724000        -0.3995563516
        1.8812885000        -0.1841552393
        0.5442493000         0.5163903794
p   3 1.0 
        7.8682724000         1.2960827175
        1.8812885000         0.9937536282
        0.5442493000         0.4959527138
s   1 1.0 
        0.1687144000         0.1876178721
p   1 1.0 
        0.1687144000         0.1541275509

  7 0
s   3 1.0 
       18.7311370000         0.2149354183
        2.8253937000         0.3645711272
        0.6401217000         0.4150514277
s   1 1.0 
        0.1612778000         0.1813806839

  8 0
s   3 1.0 
       18.7311370000         0.2149354183
        2.8253937000         0.3645711272
        0.6401217000         0.4150514277
s   1 1.0 
        0.1612778000         0.1813806839

  9 0
s   3 1.0 
       18.7311370000         0.2149354183
        2.8253937000         0.3645711272
        0.6401217000         0.4150514277
s   1 1.0 
        0.1612778000         0.1813806839

 10 0
s   3 1.0 
       18.7311370000         0.2149354183
        2.8253937000         0.3645711272
        0.6401217000         0.4150514277
s   1 1.0 
        0.1612778000         0.1813806839

 11 0
s   3 1.0 
       18.7311370000         0.2149354183
        2.8253937000         0.3645711272
        0.6401217000         0.4150514277
s   1 1.0 
        0.1612778000         0.1813806839

 12 0
s   3 1.0 
       18.7311370000         0.2149354183
        2.8253937000         0.3645711272
        0.6401217000         0.4150514277
s   1 1.0 
        0.1612778000         0.1813806839

 13 0
s   3 1.0 
       18.7311370000         0.2149354183
        2.8253937000         0.3645711272
        0.6401217000         0.4150514277
s   1 1.0 
        0.1612778000         0.1813806839

[5D]
[7F]
[9G]
[MO]
 Sym=     1a
 Ene= -1.12370302661661E+01
 Spin= Alpha
 Occup= 2.000000
  1       0.002252243477
  2      -0.000024713149
  3       0.000023943787
  4       0.000093143943
  5      -0.000059362487
  6       0.000432485971
  7      -0.000533888696
  8      -0.000610780341
  9       0.000395821089
 10      -0.000140633970
 11       0.000833799713
 12       0.050297303939
 13       0.000570065846
 14       0.000090897790
 15       0.000191731155
 16      -0.000149907034
 17       0.004853667148
 18      -0.001668682983
 19      -0.002019015744
 20       0.000988149623
 21       0.972606112783
 22       0.024281018351
 23      -0.000002737648
 24       0.000098274917
 25      -0.000204059977
 26      -0.016714431566
 27       0.000904105237
 28      -0.001314629617
 29       0.001125986003
 30       0.067742391723
 31       0.000913144819
 32      -0.000145052149
 33      -0.000088151454
 34       0.000006846263
 35       0.004089608736
 36       0.001886153518
 37       0.001451232390
 38      -0.000275266927
 39       0.197895259987
 40       0.004610718536
 41      -0.000100102723
 42       0.000037598425
 43      -0.000072437024
 44      -0.003044406557
 45       0.000199498735
 46      -0.000456700068
 47       0.000357559915
 48      -0.000008952701
 49       0.000017575090
 50      -0.000009515516
 51       0.000090303335
 52      -0.000242010568
 53       0.000035551707
 54      -0.000081651957
 55       0.000545894814
 56      -0.000222858188
 57       0.002239251841
 58      -0.000087847497
 59       0.000428048759
 60      -0.000005518908
 61       0.000749641136
 Sym=     1a
 Ene= -1.12368712135206E+01
 Spin= Alpha
 Occup= 2.000000
  1      -0.012121959408
  2       0.000060061213
  3      -0.000045147140
  4      -0.000146321255
  5       0.000031490489
  6      -0.003557956255
  7       0.000245149112
  8       0.002121837938
  9      -0.001317212784
 10       0.000153636788
 11      -0.000338059300
 12       0.011021152197
 13       0.000094366267
 14      -0.000006378927
 15       0.000045568950
 16      -0.000017815966
 17       0.000980510632
 18      -0.000311071628
 19      -0.000608270795
 20       0.000053266045
 21       0.203461780202
 22       0.005368594106
 23      -0.000157680701
 24      -0.000062638211
 25      -0.000086105969
 26      -0.003600992718
 27       0.000162642612
 28       0.000000602396
 29       0.000262661189
 30      -0.092195166277
 31      -0.001535251476
 32      -0.000166022674
 33       0.000100571445
 34      -0.000146359577
 35      -0.004120520087
 36       0.001567112597
 37      -0.001434930978
 38       0.002266499973
 39      -0.970641640719
 40      -0.024328022156
 41      -0.000269531443
 42      -0.000010365041
 43      -0.000060037554
 44       0.016953329329
 45       0.002319674281
 46       0.000919559989
 47       0.000458946642
 48       0.000083426662
 49      -0.000150867059
 50       0.000209430525
 51      -0.000810354662
 52      -0.000084157721
 53       0.000366659151
 54      -0.000036497528
 55       0.000066068444
 56      -0.000029789446
 57       0.000479670163
 58       0.000058736737
 59      -0.000611949795
 60       0.000255142653
 61      -0.001976074822
 Sym=     1a
 Ene= -1.12290891783046E+01
 Spin= Alpha
 Occup= 2.000000
  1       0.002261951571
  2       0.000074544476
  3      -0.000027260293
  4      -0.000083198098
  5       0.000139471580
  6       0.001574633897
  7       0.000118806447
  8      -0.000632068442
  9       0.000105330996
 10      -0.000002397181
 11      -0.000228453017
 12       0.006187787519
 13       0.000251468187
 14      -0.000125584682
 15      -0.000099834781
 16       0.000077827254
 17       0.000962180568
 18      -0.000156733146
 19      -0.000170857366
 20      -0.000233517965
 21       0.047661732656
 22       0.001846471398
 23      -0.000171127966
 24      -0.000056495235
 25      -0.000046256426
 26      -0.006352275631
 27       0.002752273416
 28       0.000098628678
 29       0.000967814556
 30      -0.989578129221
 31      -0.025158917922
 32      -0.000145341258
 33      -0.000134028165
 34       0.000347436574
 35       0.019624244593
 36       0.000895180166
 37       0.002323592110
 38      -0.002852404642
 39       0.104555851677
 40       0.003570552188
 41       0.000175555094
 42      -0.000027114242
 43       0.000151510167
 44      -0.009347191699
 45      -0.003097490060
 46      -0.000006147141
 47      -0.001835118188
 48      -0.000074631045
 49      -0.000273587081
 50       0.000022587484
 51       0.000139386202
 52       0.000018899419
 53      -0.000143103368
 54      -0.000055917722
 55      -0.000226891148
 56       0.000094673994
 57      -0.000301876921
 58       0.000258427400
 59      -0.001785161413
 60       0.000062095814
 61      -0.000190825325
 Sym=     1a
 Ene= -1.12215595879155E+01
 Spin= Alpha
 Occup= 2.000000
  1       0.000272593637
  2       0.000068519289
  3       0.000047288725
  4       0.000024110069
  5       0.000168353698
  6       0.000360034475
  7       0.000475933443
  8      -0.000011311143
  9      -0.001380909368
 10       0.000057491390
 11      -0.002116585850
 12      -0.994819983622
 13      -0.025247789303
 14       0.000168089814
 15       0.000211461419
 16       0.000134952274
 17       0.017645438500
 18      -0.001340047553
 19      -0.001654558652
 20      -0.000051768244
 21       0.052271144109
 22       0.002095080659
 23       0.000130823536
 24       0.000251138270
 25      -0.000058801474
 26      -0.007001401548
 27      -0.001118078697
 28      -0.002730120649
 29       0.001179691862
 30      -0.003746532686
 31      -0.000023990569
 32       0.000117933544
 33       0.000082314467
 34       0.000003749735
 35       0.000299155240
 36      -0.000253155991
 37      -0.000130058609
 38      -0.000084642004
 39      -0.000123672158
 40      -0.000082417385
 41       0.000047081352
 42       0.000016149556
 43       0.000000790104
 44       0.000564543387
 45       0.000173412460
 46       0.000571570911
 47      -0.000111873389
 48      -0.000119206062
 49      -0.000577330153
 50       0.000038554007
 51       0.000721048543
 52       0.000020274782
 53      -0.002870346511
 54       0.000157419278
 55      -0.002745141559
 56       0.000118060865
 57      -0.000016967295
 58      -0.000036733207
 59      -0.000272918119
 60       0.000022914791
 61       0.000115539645
 Sym=     1a
 Ene= -1.12095774835833E+01
 Spin= Alpha
 Occup= 2.000000
  1      -0.996121070667
  2      -0.026292703024
  3      -0.000054670548
  4       0.000050438827
  5      -0.000142781943
  6       0.019530569373
  7       0.000285183213
  8      -0.000827675253
  9       0.000905292540
 10      -0.000054495912
 11      -0.003689301808
 12      -0.000273919945
 13       0.000078058782
 14      -0.000146770840
 15       0.000039385143
 16       0.000035196620
 17      -0.000370925267
 18       0.000991344401
 19       0.000063823436
 20      -0.000437980854
 21      -0.000165556785
 22      -0.000010983912
 23      -0.000056137653
 24       0.000043530690
 25      -0.000048221950
 26       0.000771202042
 27      -0.000113218557
 28       0.000388003018
 29      -0.000120294827
 30      -0.000951486617
 31       0.000197378800
 32      -0.000049715280
 33       0.000085863073
 34      -0.000091823612
 35      -0.000712693670
 36       0.000258887290
 37      -0.000558276502
 38       0.000577111038
 39       0.012662855711
 40       0.000752203003
 41       0.000006300230
 42       0.000100733974
 43      -0.000095277680
 44      -0.004213317581
 45      -0.000174120635
 46      -0.002114257357
 47       0.001804537472
 48      -0.000019442409
 49      -0.003036592793
 50      -0.000065886554
 51      -0.003356588620
 52       0.000025660337
 53       0.000378992714
 54      -0.000130180443
 55      -0.000511538550
 56       0.000018208378
 57      -0.000016716979
 58      -0.000048089405
 59      -0.000502050584
 60       0.000161166489
 61       0.000043054444
 Sym=     1a
 Ene= -1.10887292424316E+00
 Spin= Alpha
 Occup= 2.000000
  1      -0.073828967690
  2       0.135358413323
  3       0.004401126822
  4      -0.035738047667
  5       0.031059347437
  6       0.131580863728
  7       0.011869498888
  8      -0.004740755574
  9       0.014191846229
 10       0.046953447272
 11      -0.001202089129
 12      -0.073530403251
 13       0.142012978189
 14      -0.034757989884
 15      -0.051489218432
 16       0.014843574557
 17       0.100317196823
 18      -0.000331058218
 19      -0.002732929956
 20      -0.004123147483
 21      -0.107711068821
 22       0.212654606239
 23      -0.033227062280
 24       0.022482211505
 25      -0.029175603923
 26       0.135974462470
 27      -0.007006226247
 28       0.000709655874
 29      -0.004513266485
 30      -0.123155946280
 31       0.242625200834
 32       0.004137911838
 33       0.040236452316
 34      -0.058140888763
 35       0.159750271847
 36       0.003910593161
 37       0.002399061655
 38      -0.005097354048
 39      -0.114048611348
 40       0.226224587807
 41       0.063763372201
 42       0.001386977010
 43       0.035317827911
 44       0.133331708899
 45      -0.001977057192
 46      -0.004478008715
 47      -0.000650925955
 48       0.032844014490
 49       0.006868356468
 50       0.036859336318
 51      -0.000247533889
 52       0.039331626942
 53       0.005663384817
 54       0.031769367139
 55       0.000481816366
 56       0.051308029602
 57       0.008251796773
 58       0.055332282635
 59       0.006327623021
 60       0.051113147071
 61       0.003709902985
 Sym=     1a
 Ene= -1.01680386270537E+00
 Spin= Alpha
 Occup= 2.000000
  1      -0.095815441219
  2       0.182981670801
  3      -0.012764703930
  4      -0.034840847160
  5       0.022509871817
  6       0.169033756675
  7      -0.002389960092
  8      -0.002050151397
  9       0.002613734157
 10       0.046299332614
 11       0.004835253935
 12       0.124785890594
 13      -0.243762872837
 14       0.025082921851
 15       0.077090650390
 16      -0.029288020089
 17      -0.194625524837
 18       0.005282111494
 19       0.003944658269
 20      -0.001057872647
 21       0.118623664886
 22      -0.236945430108
 23      -0.058000471772
 24      -0.072080236006
 25       0.028658214053
 26      -0.167140201622
 27      -0.010245524854
 28       0.005770406022
 29      -0.002064280066
 30      -0.020358153935
 31       0.039976138127
 32      -0.094944698090
 33       0.001580944784
 34      -0.056804845066
 35       0.026400027913
 36      -0.010824430746
 37      -0.009980631996
 38      -0.000127810169
 39      -0.101264349761
 40       0.201573354681
 41       0.017619443567
 42       0.021897304430
 43      -0.012606383818
 44       0.150088751520
 45       0.003928923416
 46       0.003540748536
 47      -0.002777377814
 48       0.057047950012
 49       0.009404235840
 50       0.053816192737
 51       0.005030062431
 52      -0.063119735736
 53      -0.006043432007
 54      -0.072110379671
 55      -0.016404763658
 56      -0.071957635136
 57      -0.012919878669
 58       0.009970671622
 59      -0.002613119322
 60       0.061880912686
 61       0.015929725111
 Sym=     1a
 Ene= -9.44233924573383E-01
 Spin= Alpha
 Occup= 2.000000
  1       0.137233298683
  2      -0.256763941543
  3      -0.011596543850
  4      -0.019972267910
  5       0.012613348963
  6      -0.293564607948
  7      -0.009634170131
  8      -0.000641520506
  9      -0.006377475377
 10      -0.102681698350
 11      -0.019222948643
 12       0.078062763567
 13      -0.150608659246
 14       0.005249106140
 15       0.001842440323
 16       0.004473254678
 17      -0.142311938181
 18       0.006880633210
 19      -0.002018990056
 20       0.006940001027
 21      -0.007077646992
 22       0.015032506936
 23      -0.092530344937
 24      -0.089486331717
 25       0.023825099414
 26       0.017338388594
 27      -0.019477970907
 28      -0.004572393404
 29      -0.000516717332
 30      -0.120859949808
 31       0.240418525661
 32      -0.022887713682
 33      -0.016992208871
 34      -0.022777839609
 35       0.188510156355
 36       0.000507137295
 37      -0.017106904039
 38       0.006379631860
 39      -0.028521209134
 40       0.053779777213
 41       0.038859950711
 42      -0.113756454432
 43       0.125029601067
 44       0.072821189118
 45       0.011367966398
 46      -0.007415209207
 47       0.016250528212
 48      -0.097924116702
 49      -0.028028849125
 50      -0.098604234820
 51      -0.023661432158
 52      -0.064232013763
 53      -0.019490459332
 54      -0.055923878157
 55      -0.017661816440
 56       0.010726188867
 57       0.008051263413
 58       0.091884567982
 59       0.024941813842
 60       0.020186345276
 61       0.008024881751
 Sym=     1a
 Ene= -8.10748869572331E-01
 Spin= Alpha
 Occup= 2.000000
  1       0.065114844888
  2      -0.124273893683
  3      -0.015758227775
  4      -0.067106190169
  5       0.045655218327
  6      -0.154082433565
  7       0.002796015442
  8      -0.015366519776
  9       0.017414807155
 10      -0.052460746656
 11      -0.021671590735
 12      -0.101505596510
 13       0.200945201055
 14       0.041555254288
 15       0.077688002972
 16      -0.031365028785
 17       0.195496852352
 18       0.014532414845
 19       0.030472535873
 20      -0.014219538517
 21       0.085398448349
 22      -0.173976756847
 23       0.071133712524
 24       0.147462120089
 25      -0.046954928369
 26      -0.165455380899
 27       0.019080453068
 28       0.048241860183
 29      -0.015170532485
 30       0.025030365308
 31      -0.051558316753
 32      -0.188957614266
 33       0.016096049075
 34      -0.104720219270
 35      -0.042621356666
 36      -0.043256517922
 37       0.004508836892
 38      -0.024800909207
 39      -0.092098205942
 40       0.185009650680
 41      -0.036073676106
 42      -0.080062702546
 43       0.043235990406
 44       0.182303109990
 45      -0.023152419725
 46      -0.017609074846
 47      -0.002023491252
 48      -0.068977526664
 49      -0.023743952001
 50      -0.066349648971
 51      -0.027027026782
 52       0.108589349522
 53       0.041397438660
 54       0.113271772851
 55       0.048004414461
 56      -0.109613421074
 57      -0.046382668280
 58      -0.034157141061
 59      -0.015985893693
 60       0.109366385688
 61       0.043704484556
 Sym=     1a
 Ene= -7.23622722909109E-01
 Spin= Alpha
 Occup= 2.000000
  1       0.016305680712
  2      -0.025391639727
  3      -0.104744715194
  4      -0.115373196746
  5       0.012830817947
  6      -0.054651369228
  7      -0.045083050431
  8      -0.041243491956
  9      -0.002360654486
 10      -0.077403264074
 11      -0.039449271745
 12       0.034143299493
 13      -0.066102371271
 14       0.027205240441
 15      -0.192963242717
 16       0.072188555784
 17      -0.078995621409
 18       0.011638080009
 19      -0.060811244429
 20       0.030226952996
 21      -0.070070282896
 22       0.141570307773
 23       0.177282855782
 24      -0.016467312243
 25       0.018398675380
 26       0.145370430923
 27       0.056488175435
 28      -0.032284587527
 29       0.014027049268
 30       0.079907017612
 31      -0.162813242543
 32       0.007798491254
 33       0.034911018929
 34      -0.038784590491
 35      -0.166557657515
 36      -0.001174779155
 37       0.034896769231
 38      -0.029613109535
 39      -0.074692456785
 40       0.151550144574
 41      -0.140024084180
 42      -0.006582003222
 43      -0.127652875239
 44       0.163030987322
 45      -0.056539711892
 46      -0.011453734491
 47      -0.047119029222
 48       0.007010668197
 49       0.004527635706
 50      -0.060014657684
 51      -0.031327065407
 52      -0.137739699769
 53      -0.082602727156
 54      -0.035903983520
 55      -0.017295045252
 56       0.135480731886
 57       0.065093483580
 58      -0.105084235835
 59      -0.042902210131
 60       0.151617716458
 61       0.076967446971
 Sym=     1a
 Ene= -6.71613803831996E-01
 Spin= Alpha
 Occup= 2.000000
  1       0.020246220660
  2      -0.039053035083
  3       0.082498664153
  4      -0.072982189597
  5       0.124958841737
  6      -0.056363798212
  7       0.041800292089
  8      -0.025774279681
  9       0.056894007254
 10       0.020296681605
 11       0.014091134730
 12       0.022935892751
 13      -0.045673177742
 14      -0.176808943327
 15      -0.077404056387
 16       0.041332737635
 17      -0.064397687715
 18      -0.066722756822
 19      -0.019383634035
 20       0.009819267834
 21      -0.023388801245
 22       0.048531386939
 23      -0.099196069114
 24       0.133537656998
 25      -0.080352750518
 26       0.046516157509
 27      -0.035398404867
 28       0.043713588352
 29      -0.030691988374
 30       0.022250289324
 31      -0.042270432596
 32       0.052722404673
 33       0.240245526322
 34      -0.160349716576
 35      -0.067418206692
 36       0.019406205797
 37       0.098007810749
 38      -0.061508762584
 39      -0.021200739012
 40       0.043634869206
 41       0.162389345875
 42       0.101187465119
 43       0.046044864366
 44       0.031497200556
 45       0.054467760168
 46       0.038600094622
 47       0.009109201727
 48      -0.106898490871
 49      -0.062329418005
 50      -0.026396458137
 51      -0.016975833233
 52      -0.010473227787
 53      -0.011960580682
 54      -0.128150966274
 55      -0.080950778260
 56      -0.079214342198
 57      -0.055836248876
 58      -0.187510357440
 59      -0.113077517616
 60      -0.086920973349
 61      -0.059126752725
 Sym=     1a
 Ene= -5.98955311790383E-01
 Spin= Alpha
 Occup= 2.000000
  1      -0.011789921807
  2       0.023997422735
  3       0.119257576008
  4       0.017892030965
  5       0.059059549178
  6       0.026896808216
  7       0.048109213351
  8       0.011491323133
  9       0.014426812861
 10       0.065916540426
 11       0.046703729656
 12       0.008717307690
 13      -0.019585448549
 14       0.284738449919
 15      -0.108397918695
 16      -0.062501450479
 17      -0.033746908858
 18       0.133592001949
 19      -0.053528641858
 20      -0.029629889946
 21       0.019078348528
 22      -0.044578555876
 23       0.174548862475
 24      -0.101722970183
 25      -0.008392585026
 26      -0.025133608446
 27       0.056690406929
 28      -0.025946808468
 29      -0.019601660524
 30      -0.008682224151
 31       0.020869685274
 32      -0.141109677042
 33       0.032282283053
 34      -0.146572415401
 35      -0.023850088795
 36      -0.044923608545
 37      -0.014240945721
 38      -0.036738381082
 39      -0.003258777596
 40       0.008054930426
 41       0.217929432164
 42       0.028109377885
 43       0.141042602268
 44       0.012209354898
 45       0.106370948081
 46       0.025221926386
 47       0.057638417375
 48      -0.058091504657
 49      -0.051477316450
 50       0.023337583177
 51       0.010244926239
 52      -0.148676636257
 53      -0.096092154470
 54       0.167228376319
 55       0.117119358223
 56       0.091028241557
 57       0.075520186367
 58      -0.033547825202
 59      -0.035562411696
 60      -0.138546731694
 61      -0.093462877313
 Sym=     1a
 Ene= -5.84165583494195E-01
 Spin= Alpha
 Occup= 2.000000
  1      -0.008996106284
  2       0.012859357984
  3      -0.024258921547
  4       0.213879906380
  5      -0.076785065311
  6       0.041711275802
  7      -0.015352935997
  8       0.090475068703
  9      -0.028190806325
 10      -0.011342502471
 11      -0.010088520830
 12      -0.006599422624
 13       0.018551684370
 14      -0.120829825115
 15      -0.267675707783
 16       0.128011701250
 17      -0.017868551436
 18      -0.039816053676
 19      -0.098714378709
 20       0.050857142238
 21      -0.006634627896
 22       0.016805187218
 23       0.145299253732
 24       0.286552717730
 25      -0.075249208471
 26      -0.006471903966
 27       0.041310409947
 28       0.103287320508
 29      -0.022910695165
 30      -0.012452667690
 31       0.025753119784
 32      -0.220052905713
 33      -0.052212433925
 34      -0.016605954119
 35       0.026916298209
 36      -0.089368209479
 37      -0.023354591320
 38       0.001861595707
 39       0.020962003660
 40      -0.042081027357
 41      -0.012815825778
 42      -0.128111821093
 43       0.176411339801
 44      -0.075741323079
 45      -0.010570383754
 46      -0.047478584697
 47       0.071170480048
 48       0.065196438702
 49       0.047508225347
 50       0.103257886387
 51       0.077817781888
 52      -0.102412614074
 53      -0.072372321354
 54      -0.098224785870
 55      -0.076193626824
 56      -0.078170217982
 57      -0.058605555746
 58       0.069109199942
 59       0.046830863125
 60      -0.005006127033
 61      -0.000010945523
 Sym=     1a
 Ene= -5.65448440646415E-01
 Spin= Alpha
 Occup= 2.000000
  1      -0.002269146721
  2       0.005634325361
  3       0.146015388827
  4      -0.201401831370
  5      -0.307579462039
  6       0.001052220296
  7       0.066935410032
  8      -0.105476222433
  9      -0.159106671075
 10       0.148447965156
 11       0.125743025175
 12      -0.004885541228
 13       0.009926723930
 14      -0.015883138256
 15      -0.090612114661
 16      -0.020156981241
 17       0.004537239873
 18       0.006088143183
 19      -0.034678519382
 20      -0.021796241529
 21       0.004372653849
 22      -0.010761844794
 23      -0.026136953808
 24       0.075398514470
 25      -0.087619966165
 26      -0.010882946786
 27      -0.024676686689
 28       0.040339536705
 29      -0.049861048713
 30      -0.008811724556
 31       0.017459151097
 32       0.021151820425
 33      -0.054398315123
 34      -0.047620142637
 35       0.016798667837
 36       0.013214190213
 37      -0.039291128459
 38      -0.029832105392
 39       0.015876755632
 40      -0.033006542019
 41       0.059394434732
 42      -0.106004677247
 43      -0.061142300897
 44      -0.045327264508
 45       0.036410830982
 46      -0.046098925583
 47      -0.031536329521
 48       0.126012530789
 49       0.092765921553
 50      -0.230201025430
 51      -0.181535305052
 52      -0.048090207867
 53      -0.046269392119
 54      -0.003534613792
 55      -0.009655351540
 56      -0.070506522090
 57      -0.046914999592
 58       0.020653915787
 59       0.011786002854
 60      -0.002066583159
 61       0.003512975354
 Sym=     1a
 Ene= -5.47358656699682E-01
 Spin= Alpha
 Occup= 2.000000
  1      -0.006976902168
  2       0.019199177153
  3      -0.316686785806
  4      -0.050579994520
  5      -0.086198807667
  6      -0.017158815589
  7      -0.174539294279
  8      -0.020358216670
  9      -0.065219064218
 10      -0.193958931781
 11      -0.150860466624
 12      -0.018939912247
 13       0.041935734368
 14       0.145674601657
 15      -0.051934385954
 16       0.004595763329
 17       0.029500387329
 18       0.096634768640
 19      -0.024076474942
 20       0.008315125556
 21       0.006055069802
 22      -0.011162048734
 23      -0.156893796545
 24       0.085239029870
 25      -0.034288552791
 26      -0.002774365678
 27      -0.094975202021
 28       0.064768193694
 29      -0.019255582699
 30      -0.034315994279
 31       0.076160569542
 32       0.075382266360
 33       0.117555361809
 34       0.000132601552
 35       0.068787048793
 36       0.014441150088
 37       0.029273066731
 38       0.015095765152
 39       0.006582113307
 40      -0.013911383274
 41       0.073474964044
 42       0.132551853272
 43       0.015129192967
 44      -0.004962408227
 45       0.056894432263
 46       0.089620692339
 47       0.012728566107
 48       0.170338670944
 49       0.127440808328
 50      -0.025341796805
 51      -0.014714953472
 52      -0.079278924889
 53      -0.059989395700
 54       0.119152588488
 55       0.082926418425
 56      -0.126098438069
 57      -0.085340470408
 58      -0.033644858507
 59      -0.041669590993
 60      -0.100749821429
 61      -0.061547261263
 Sym=     1a
 Ene= -5.08362280699213E-01
 Spin= Alpha
 Occup= 2.000000
  1       0.016866772576
  2      -0.036793264242