[Molden Format]
[Title]
 Molden file created by orca_2mkl for BaseName=h-shift_025

[Atoms] AU
C    1   6          0.0469634739         0.0213028827        -0.2647903156 
H    2   1          2.0018322471         0.0173117811        -0.8701319573 
C    3   6          4.8163487770         0.0322821915         2.8224552694 
C    4   6          3.8189910077        -2.1981993588         3.4224565450 
C    5   6          1.1796048473        -3.0298734996         3.1786516381 
C    6   6         -0.4526215344        -2.1713369019         1.4614064776 
H    7   1         -1.1467689660         0.0088647053        -1.9197501027 
H    8   1         -0.2631330258         1.7962300437         0.7210703598 
H    9   1          3.7101049879         1.6579568928         2.3524709312 
H   10   1          6.8249670306         0.2873517559         2.7490772036 
H   11   1          5.0926229583        -3.6688277000         4.0140353112 
H   12   1          0.6341372885        -4.6141650882         4.3328339997 
H   13   1         -2.2337148718        -3.1282923263         1.2445849702 
[GTO]
  1 0
s   6 1.0 
     3047.5249000000         0.5363343823
      457.3695100000         0.9894506076
      103.9486900000         1.5972822308
       29.2101550000         2.0791870615
        9.2866630000         1.7741742532
        3.1639270000         0.6125798260
s   3 1.0 
        7.8682724000        -0.3995563516
        1.8812885000        -0.1841552393
        0.5442493000         0.5163903794
p   3 1.0 
        7.8682724000         1.2960827175
        1.8812885000         0.9937536282
        0.5442493000         0.4959527138
s   1 1.0 
        0.1687144000         0.1876178721
p   1 1.0 
        0.1687144000         0.1541275509

  2 0
s   3 1.0 
       18.7311370000         0.2149354183
        2.8253937000         0.3645711272
        0.6401217000         0.4150514277
s   1 1.0 
        0.1612778000         0.1813806839

  3 0
s   6 1.0 
     3047.5249000000         0.5363343823
      457.3695100000         0.9894506076
      103.9486900000         1.5972822308
       29.2101550000         2.0791870615
        9.2866630000         1.7741742532
        3.1639270000         0.6125798260
s   3 1.0 
        7.8682724000        -0.3995563516
        1.8812885000        -0.1841552393
        0.5442493000         0.5163903794
p   3 1.0 
        7.8682724000         1.2960827175
        1.8812885000         0.9937536282
        0.5442493000         0.4959527138
s   1 1.0 
        0.1687144000         0.1876178721
p   1 1.0 
        0.1687144000         0.1541275509

  4 0
s   6 1.0 
     3047.5249000000         0.5363343823
      457.3695100000         0.9894506076
      103.9486900000         1.5972822308
       29.2101550000         2.0791870615
        9.2866630000         1.7741742532
        3.1639270000         0.6125798260
s   3 1.0 
        7.8682724000        -0.3995563516
        1.8812885000        -0.1841552393
        0.5442493000         0.5163903794
p   3 1.0 
        7.8682724000         1.2960827175
        1.8812885000         0.9937536282
        0.5442493000         0.4959527138
s   1 1.0 
        0.1687144000         0.1876178721
p   1 1.0 
        0.1687144000         0.1541275509

  5 0
s   6 1.0 
     3047.5249000000         0.5363343823
      457.3695100000         0.9894506076
      103.9486900000         1.5972822308
       29.2101550000         2.0791870615
        9.2866630000         1.7741742532
        3.1639270000         0.6125798260
s   3 1.0 
        7.8682724000        -0.3995563516
        1.8812885000        -0.1841552393
        0.5442493000         0.5163903794
p   3 1.0 
        7.8682724000         1.2960827175
        1.8812885000         0.9937536282
        0.5442493000         0.4959527138
s   1 1.0 
        0.1687144000         0.1876178721
p   1 1.0 
        0.1687144000         0.1541275509

  6 0
s   6 1.0 
     3047.5249000000         0.5363343823
      457.3695100000         0.9894506076
      103.9486900000         1.5972822308
       29.2101550000         2.0791870615
        9.2866630000         1.7741742532
        3.1639270000         0.6125798260
s   3 1.0 
        7.8682724000        -0.3995563516
        1.8812885000        -0.1841552393
        0.5442493000         0.5163903794
p   3 1.0 
        7.8682724000         1.2960827175
        1.8812885000         0.9937536282
        0.5442493000         0.4959527138
s   1 1.0 
        0.1687144000         0.1876178721
p   1 1.0 
        0.1687144000         0.1541275509

  7 0
s   3 1.0 
       18.7311370000         0.2149354183
        2.8253937000         0.3645711272
        0.6401217000         0.4150514277
s   1 1.0 
        0.1612778000         0.1813806839

  8 0
s   3 1.0 
       18.7311370000         0.2149354183
        2.8253937000         0.3645711272
        0.6401217000         0.4150514277
s   1 1.0 
        0.1612778000         0.1813806839

  9 0
s   3 1.0 
       18.7311370000         0.2149354183
        2.8253937000         0.3645711272
        0.6401217000         0.4150514277
s   1 1.0 
        0.1612778000         0.1813806839

 10 0
s   3 1.0 
       18.7311370000         0.2149354183
        2.8253937000         0.3645711272
        0.6401217000         0.4150514277
s   1 1.0 
        0.1612778000         0.1813806839

 11 0
s   3 1.0 
       18.7311370000         0.2149354183
        2.8253937000         0.3645711272
        0.6401217000         0.4150514277
s   1 1.0 
        0.1612778000         0.1813806839

 12 0
s   3 1.0 
       18.7311370000         0.2149354183
        2.8253937000         0.3645711272
        0.6401217000         0.4150514277
s   1 1.0 
        0.1612778000         0.1813806839

 13 0
s   3 1.0 
       18.7311370000         0.2149354183
        2.8253937000         0.3645711272
        0.6401217000         0.4150514277
s   1 1.0 
        0.1612778000         0.1813806839

[5D]
[7F]
[9G]
[MO]
 Sym=     1a
 Ene= -1.12360553323765E+01
 Spin= Alpha
 Occup= 2.000000
  1      -0.003669915166
  2       0.000034085455
  3      -0.000003662216
  4      -0.000091439910
  5       0.000062757289
  6      -0.000850066549
  7       0.000371910072
  8       0.000738212777
  9      -0.000550693307
 10       0.000149926459
 11      -0.000620867316
 12      -0.052893706970
 13      -0.000528858200
 14      -0.000094682381
 15      -0.000168971527
 16       0.000093758073
 17      -0.005280390860
 18       0.001886531881
 19       0.001893950580
 20      -0.000512814376
 21      -0.957633769941
 22      -0.023918693612
 23       0.000013620450
 24      -0.000138751293
 25       0.000112398364
 26       0.016718160720
 27      -0.001262730301
 28       0.001603378525
 29      -0.000913092835
 30      -0.068737656018
 31      -0.000864892303
 32       0.000138794200
 33       0.000094566424
 34      -0.000013189367
 35      -0.004775997920
 36      -0.001963513518
 37      -0.001702493629
 38       0.000431572760
 39      -0.260086550336
 40      -0.006216242256
 41       0.000141019269
 42      -0.000043858883
 43       0.000050835896
 44       0.004390702159
 45      -0.000045809297
 46       0.000567907291
 47      -0.000267980474
 48       0.000022503152
 49      -0.000031603088
 50       0.000038600790
 51      -0.000188373033
 52       0.000259596454
 53       0.000309451629
 54       0.000078241103
 55      -0.000493948020
 56       0.000248776444
 57      -0.002060150709
 58       0.000093725863
 59      -0.000556272615
 60       0.000018715502
 61      -0.000951708909
 Sym=     1a
 Ene= -1.12359445215938E+01
 Spin= Alpha
 Occup= 2.000000
  1       0.014365849904
  2      -0.000015633511
  3       0.000032518502
  4       0.000139305119
  5      -0.000019648797
  6       0.003551947029
  7       0.000084673848
  8      -0.002090423545
  9       0.001319448553
 10      -0.000168980805
 11       0.000068104399
 12      -0.015118310986
 13      -0.000173606543
 14       0.000006602894
 15      -0.000069277715
 16       0.000020895919
 17      -0.001095055350
 18       0.000286092755
 19       0.000660546467
 20      -0.000121161628
 21      -0.265017880442
 22      -0.006823353361
 23       0.000181296984
 24       0.000021558768
 25       0.000080345080
 26       0.004090031563
 27      -0.000074997806
 28       0.000128390899
 29      -0.000085637992
 30       0.083439645033
 31       0.001286762609
 32       0.000168004331
 33      -0.000107596706
 34       0.000173989401
 35       0.004267303741
 36      -0.001519140872
 37       0.001603726585
 38      -0.002359879032
 39       0.956388975388
 40       0.023960712380
 41       0.000214885616
 42       0.000033802987
 43       0.000083582873
 44      -0.016751024449
 45      -0.002372803650
 46      -0.000889482253
 47      -0.000318813556
 48      -0.000084845621
 49       0.000172177897
 50      -0.000200268587
 51       0.000880800709
 52       0.000077806286
 53      -0.000333228624
 54       0.000026179814
 55      -0.000054666076
 56       0.000058310540
 57      -0.000591292228
 58      -0.000029837853
 59       0.000670816377
 60      -0.000270272202
 61       0.001872897402
 Sym=     1a
 Ene= -1.12276302392562E+01
 Spin= Alpha
 Occup= 2.000000
  1      -0.003093562272
  2      -0.000073159593
  3       0.000017407767
  4       0.000106634471
  5      -0.000142542296
  6      -0.001722970862
  7      -0.000232079103
  8       0.000652421748
  9      -0.000331435727
 10       0.000051676146
 11       0.000171678665
 12      -0.006942111541
 13      -0.000312386272
 14       0.000155492677
 15       0.000122008102
 16      -0.000059300851
 17      -0.000857346707
 18       0.000030371224
 19      -0.000047701260
 20       0.000261347353
 21      -0.044120699558
 22      -0.001747209699
 23       0.000164642115
 24       0.000039127064
 25       0.000035642609
 26       0.006118453339
 27      -0.002886657790
 28       0.000011339507
 29      -0.000966340602
 30       0.990277845632
 31       0.025149029020
 32       0.000103478159
 33       0.000158075331
 34      -0.000263466120
 35      -0.019571628561
 36      -0.000910346621
 37      -0.002608750101
 38       0.002605769841
 39      -0.099227381980
 40      -0.003502555121
 41      -0.000197807629
 42       0.000024987463
 43      -0.000135102072
 44       0.009387035105
 45       0.003441389237
 46       0.000194569386
 47       0.001537141833
 48       0.000061647828
 49       0.000172420808
 50       0.000013514472
 51      -0.000144565705
 52      -0.000034503750
 53       0.000284234121
 54       0.000049324808
 55       0.000320612849
 56      -0.000076063155
 57       0.000355208032
 58      -0.000295642697
 59       0.001677634183
 60      -0.000012731445
 61       0.000330684912
 Sym=     1a
 Ene= -1.12210738950131E+01
 Spin= Alpha
 Occup= 2.000000
  1      -0.000419214281
  2      -0.000061933596
  3      -0.000016818898
  4      -0.000009633779
  5      -0.000132500953
  6      -0.000008068770
  7      -0.000383991588
  8      -0.000094434408
  9       0.000916145939
 10      -0.000164962567
 11       0.001277258451
 12       0.994595968861
 13       0.024880929801
 14      -0.000100603970
 15      -0.000207097695
 16      -0.000042573173
 17      -0.016696157586
 18       0.000985564810
 19       0.001681417080
 20      -0.000140846804
 21      -0.055840552256
 22      -0.002224849783
 23      -0.000124470055
 24      -0.000284689094
 25       0.000052104304
 26       0.006840529016
 27       0.001173228235
 28       0.002788980720
 29      -0.000782285857
 30       0.004511859639
 31       0.000016339372
 32      -0.000112080325
 33      -0.000081763983
 34      -0.000001245033
 35      -0.000414437570
 36       0.000374960529
 37       0.000041783272
 38       0.000103847531
 39       0.000032393587
 40       0.000048288569
 41      -0.000040831168
 42      -0.000018571738
 43      -0.000014065954
 44      -0.000289154760
 45      -0.000001793212
 46      -0.000471789845
 47       0.000324330915
 48       0.000038133113
 49       0.000328789572
 50       0.000002737402
 51      -0.000554136288
 52      -0.000115064084
 53       0.002729001604
 54      -0.000209384944
 55       0.002655986593
 56      -0.000115660017
 57      -0.000002622187
 58       0.000037916600
 59       0.000229539271
 60      -0.000008722417
 61      -0.000045653810
 Sym=     1a
 Ene= -1.12142942313021E+01
 Spin= Alpha
 Occup= 2.000000
  1      -0.996088631024
  2      -0.026160640681
  3      -0.000000530135
  4       0.000000126777
  5      -0.000113662801
  6       0.019237526628
  7      -0.000043152403
  8      -0.000722796518
  9       0.000893330996
 10      -0.000074885449
 11      -0.003276301398
 12      -0.000416904574
 13       0.000044004243
 14      -0.000150651309
 15       0.000011182897
 16      -0.000003274581
 17      -0.000297338632
 18       0.000866868608
 19       0.000258735333
 20      -0.000113988291
 21      -0.000142353006
 22      -0.000010812695
 23      -0.000050288204
 24       0.000043884004
 25      -0.000042124413
 26       0.000563822800
 27      -0.000004036802
 28       0.000407157685
 29      -0.000171566431
 30      -0.001610732125
 31       0.000163608372
 32      -0.000050381567
 33       0.000090399567
 34      -0.000115021030
 35      -0.000666942997
 36       0.000442892046
 37      -0.000426320901
 38       0.000612844724
 39       0.015222878818
 40       0.000808850488
 41       0.000009056969
 42       0.000107184008
 43      -0.000108540168
 44      -0.004075587922
 45      -0.000100884929
 46      -0.002206616989
 47       0.001976757676
 48      -0.000033290104
 49      -0.003085150291
 50      -0.000073967162
 51      -0.003333708511
 52       0.000039909241
 53       0.000122933023
 54      -0.000070627107
 55      -0.000522269950
 56       0.000023866460
 57       0.000014109591
 58      -0.000034095965
 59      -0.000453000470
 60       0.000140370615
 61      -0.000033374219
 Sym=     1a
 Ene= -1.10164739229456E+00
 Spin= Alpha
 Occup= 2.000000
  1       0.069664812486
  2      -0.128989447347
  3      -0.001700731109
  4       0.032548401991
  5      -0.030230857595
  6      -0.123127376443
  7      -0.007899189363
  8       0.003830447112
  9      -0.011268514768
 10      -0.039851914166
 11      -0.001078056473
 12       0.074722026346
 13      -0.145741266784
 14       0.033904834308
 15       0.055470344103
 16      -0.011023083595
 17      -0.099497628314
 18      -0.000853936233
 19       0.002990700800
 20       0.001475015364
 21       0.109858473515
 22      -0.217795803605
 23       0.031973496882
 24      -0.027782729592
 25       0.022131242656
 26      -0.138369411461
 27       0.006220023507
 28      -0.000020456166
 29       0.002933329498
 30       0.125424606903
 31      -0.247384248104
 32       0.000461244077
 33      -0.041096349075
 34       0.049445725653
 35      -0.163256206042
 36      -0.004020401031
 37      -0.003694741954
 38       0.003549611600
 39       0.113975417215
 40      -0.226330843278
 41      -0.060417876448
 42       0.003167251793
 43      -0.034891809122
 44      -0.136407260136
 45       0.003731891160
 46       0.004250788255
 47      -0.001645866222
 48      -0.032100748815
 49      -0.005545657911
 50      -0.035548822127
 51      -0.000176889447
 52      -0.039551406366
 53      -0.006917329731
 54      -0.032717315352
 55      -0.001452497437
 56      -0.052809413015
 57      -0.008258418796
 58      -0.058177680359
 59      -0.007941516641
 60      -0.052668252895
 61      -0.004101710728
 Sym=     1a
 Ene= -1.02014915012078E+00
 Spin= Alpha
 Occup= 2.000000
  1       0.099323852144
  2      -0.189014527996
  3       0.010687052440
  4       0.030856157276
  5      -0.023867699213
  6      -0.176481847113
  7       0.003127207681
  8       0.000966254082
  9      -0.001702681320
 10      -0.052594570853
 11      -0.005259194803
 12      -0.122333894924
 13       0.239978922740
 14      -0.025798681425
 15      -0.078618426526
 16       0.022065676699
 17       0.185871704404
 18      -0.004361172372
 19      -0.003146006681
 20       0.000907600856
 21      -0.116623555640
 22       0.232909480243
 23       0.055628804607
 24       0.075807765240
 25      -0.016303926043
 26       0.161816107052
 27       0.011746411778
 28      -0.004645804175
 29       0.003916082618
 30       0.020529078036
 31      -0.040779479649
 32       0.097169771303
 33      -0.005063999218
 34       0.053605228825
 35      -0.025203798666
 36       0.013899059266
 37       0.011666297517
 38      -0.001186896959
 39       0.101350865115
 40      -0.201270768336
 41      -0.013332577275
 42      -0.021827247248
 43       0.013095147444
 44      -0.148737350173
 45      -0.003668308439
 46      -0.005778134698
 47       0.003288341036
 48      -0.058939711732
 49      -0.008818144692
 50      -0.057505376306
 51      -0.005477552981
 52       0.061841554569
 53       0.005806080851
 54       0.070143289016
 55       0.016195836059
 56       0.069425427939
 57       0.011813779910
 58      -0.010025198168
 59       0.003758320728
 60      -0.062305542258
 61      -0.016589248904
 Sym=     1a
 Ene= -9.41511744820645E-01
 Spin= Alpha
 Occup= 2.000000
  1       0.138715306261
  2      -0.260740567071
  3      -0.001707531218
  4      -0.020989191618
  5       0.015686853720
  6      -0.294103449016
  7      -0.003240966930
  8      -0.002043877887
  9      -0.003944898527
 10      -0.099520874344
 11      -0.022101185692
 12       0.079061369566
 13      -0.154509565882
 14       0.002212649891
 15       0.010704681606
 16      -0.000194674468
 17      -0.136534874099
 18       0.003552230534
 19      -0.001907779061
 20       0.004334751638
 21       0.001926911693
 22      -0.002773772391
 23      -0.095625251252
 24      -0.088893363280
 25       0.013996206942
 26       0.000337604670
 27      -0.019957598431
 28      -0.005793860654
 29      -0.001708826448
 30      -0.118995425836
 31       0.236702853423
 32      -0.034750836066
 33      -0.013225866070
 34      -0.018218176965
 35       0.184918614347
 36      -0.002023459462
 37      -0.015706169784
 38       0.008047493818
 39      -0.029662880636
 40       0.055833656339
 41       0.046163011086
 42      -0.113911478091
 43       0.127959515530
 44       0.074165664192
 45       0.010983595372
 46      -0.009221739241
 47       0.015639981711
 48      -0.100912350941
 49      -0.028061643456
 50      -0.099615831972
 51      -0.024273370708
 52      -0.060487562814
 53      -0.017977489313
 54      -0.057460317672
 55      -0.018472606065
 56       0.002989859534
 57       0.005083697721
 58       0.091180174036
 59       0.025155955216
 60       0.020604739297
 61       0.007383924469
 Sym=     1a
 Ene= -8.13292997525432E-01
 Spin= Alpha
 Occup= 2.000000
  1       0.060545020016
  2      -0.114927483424
  3      -0.015865374226
  4      -0.064775172500
  5       0.051143928746
  6      -0.146653769160
  7       0.002939993255
  8      -0.015238709733
  9       0.017827589152
 10      -0.058500042415
 11      -0.022931972919
 12      -0.101960776253
 13       0.202938366475
 14       0.041393348223
 15       0.079336421993
 16      -0.021656809047
 17       0.190109400117
 18       0.015313058163
 19       0.032074002422
 20      -0.009007512902
 21       0.085952951741
 22      -0.175572770369
 23       0.078408682689
 24       0.151022934883
 25      -0.036860033860
 26      -0.162854448667
 27       0.019885129818
 28       0.050348812295
 29      -0.013202734070
 30       0.029646119081
 31      -0.061779074981
 32      -0.192436687734
 33       0.025452631768
 34      -0.100748447168
 35      -0.050796402448
 36      -0.044703564000
 37       0.007129703540
 38      -0.024640325450
 39      -0.092065806335
 40       0.184535063125
 41      -0.038445474758
 42      -0.068113343748
 43       0.047258485020
 44       0.179165909914
 45      -0.024543001933
 46      -0.011785083874
 47       0.000062552971
 48      -0.063171936278
 49      -0.021243220232
 50      -0.060309409432
 51      -0.024177832756
 52       0.108945360713
 53       0.041926473499
 54       0.113334402023
 55       0.048436520656
 56      -0.108768414618
 57      -0.045107991945
 58      -0.039248720654
 59      -0.017626185906
 60       0.108127531784
 61       0.043697029569
 Sym=     1a
 Ene= -7.18570836318596E-01
 Spin= Alpha
 Occup= 2.000000
  1       0.020306190223
  2      -0.035104253819
  3      -0.096208363797
  4      -0.110613458149
  5       0.036950050179
  6      -0.060235025987
  7      -0.037939476953
  8      -0.040033133811
  9       0.009714919309
 10      -0.078742444438
 11      -0.042953494232
 12       0.038677199438
 13      -0.077260918091
 14       0.026170783254
 15      -0.196904211513
 16       0.063441985922
 17      -0.080524548584
 18       0.006682489918
 19      -0.064063719678
 20       0.023506242796
 21      -0.069928607200
 22       0.141988363435
 23       0.178366369879
 24      -0.025675194061
 25       0.028949727499
 26       0.140948156285
 27       0.059073509849
 28      -0.038846568727
 29       0.020034324451
 30       0.078210720273
 31      -0.159906775242
 32       0.005810972319
 33       0.030339314926
 34      -0.040693108137
 35      -0.155961339869
 36      -0.002231588325
 37       0.034757739341
 38      -0.034792556661
 39      -0.073745702498
 40       0.150063092526
 41      -0.156423264201
 42       0.000624846692
 43      -0.102711530771
 44       0.155378034614
 45      -0.068832062276
 46      -0.007306769928
 47      -0.040003449052
 48      -0.001950276388
 49       0.001372046503
 50      -0.054198259585
 51      -0.029460891085
 52      -0.142423904874
 53      -0.087333563281
 54      -0.040127876637
 55      -0.019649802107
 56       0.140778196874
 57       0.067732356753
 58      -0.102474732848
 59      -0.041633772800
 60       0.151818849992
 61       0.076507637340
 Sym=     1a
 Ene= -6.68059560628913E-01
 Spin= Alpha
 Occup= 2.000000
  1      -0.017350201012
  2       0.032145147212
  3      -0.086623138337
  4       0.068584408188
  5      -0.111979940930
  6       0.051386794741
  7      -0.044879844301
  8       0.023837677607
  9      -0.048146645044
 10      -0.015644781836
 11      -0.010104930642
 12      -0.021725869823
 13       0.043173514109
 14       0.189897196686
 15       0.084881606841
 16      -0.003253901203
 17       0.061074456934
 18       0.072977230965
 19       0.020954844563
 20       0.005292675373
 21       0.024783628369
 22      -0.052816659105
 23       0.099111802739
 24      -0.138576229190
 25       0.082102069293
 26      -0.046599444393
 27       0.031459603594
 28      -0.043791536626
 29       0.028815822389
 30      -0.021081346321
 31       0.040560600193
 32      -0.064825297016
 33      -0.232780493751
 34       0.167695074528
 35       0.055339835095
 36      -0.024175931624
 37      -0.097378080043
 38       0.068625040620
 39       0.023193055211
 40      -0.048438093551
 41      -0.168181824071
 42      -0.091862821579
 43      -0.019297656265
 44      -0.034354641505
 45      -0.051903726739
 46      -0.037659542853
 47       0.002101784089
 48       0.097851932197
 49       0.058565943254
 50       0.026501265590
 51       0.015431667488
 52       0.001714551803
 53       0.006687939380
 54       0.135430799264
 55       0.085008003880
 56       0.080197929911
 57       0.058659729712
 58       0.188120128393
 59       0.114025147802
 60       0.083642448891
 61       0.058595051560
 Sym=     1a
 Ene= -6.02144640472624E-01
 Spin= Alpha
 Occup= 2.000000
  1      -0.010874078792
  2       0.020992496159
  3       0.158844932549
  4       0.028173943883
  5       0.020592487810
  6       0.030932891682
  7       0.068656704096
  8       0.014105655639
  9       0.001748163866
 10       0.092846804866
 11       0.062788898570
 12       0.007829216689
 13      -0.017299513602
 14       0.265038025059
 15      -0.100108141792
 16       0.010341948408
 17      -0.030861814604
 18       0.121677015142
 19      -0.047080440576
 20       0.002181327381
 21       0.015891241326
 22      -0.036746626883
 23       0.191038649237
 24      -0.074112454242
 25       0.003832958832
 26      -0.025320575028
 27       0.067384929573
 28      -0.017856848673
 29      -0.010464237324
 30      -0.009795979513
 31       0.022232098274
 32      -0.165091754638
 33       0.035891481356
 34      -0.156691335668
 35      -0.012180086796
 36      -0.049927961263
 37      -0.006558045105
 38      -0.043357940660
 39      -0.003355356678
 40       0.009142015954
 41       0.243826661651
 42      -0.013044676750
 43       0.127112927649
 44       0.002955664105
 45       0.108843602334
 46       0.003222899429
 47       0.046274230750
 48      -0.059335604849
 49      -0.050370764512
 50       0.012681013798
 51       0.003635059657
 52      -0.142624117875
 53      -0.092013957945
 54       0.145320101934
 55       0.101490029153
 56       0.089672895575
 57       0.072028342297
 58      -0.034492462571
 59      -0.033443125745
 60      -0.136197562091
 61      -0.094506705600
 Sym=     1a
 Ene= -5.84537207935675E-01
 Spin= Alpha
 Occup= 2.000000
  1       0.006930236035
  2      -0.008458186029
  3       0.014725508681
  4      -0.180629221759
  5       0.123097210167
  6      -0.037698398659
  7       0.009129428817
  8      -0.075527041338
  9       0.050941063775
 10      -0.017103152565
 11      -0.009858891563
 12       0.007169583001
 13      -0.019199978260
 14       0.146489255874
 15       0.283089846201
 16      -0.088113713340
 17       0.016966588228
 18       0.048823258187
 19       0.101946406723
 20      -0.034495784614
 21       0.007732000319
 22      -0.018467503475
 23      -0.127032851881
 24      -0.306728352267
 25       0.057430898182
 26       0.004200317147
 27      -0.031742166428
 28      -0.111134485390
 29       0.019394332141
 30       0.010860079104
 31      -0.021747794307
 32       0.204515361269
 33       0.048981873341
 34      -0.005110991263
 35      -0.022494057219
 36       0.083895796864
 37       0.020977556165
 38      -0.008710950439
 39      -0.024128456202
 40       0.049027881661
 41       0.022003241357
 42       0.141077323538
 43      -0.159860862360
 44       0.083884423948
 45       0.014866272492
 46       0.054835431148
 47      -0.064716356296
 48      -0.075689244081
 49      -0.055549355180
 50      -0.068506569353
 51      -0.051841855799
 52       0.097915000074
 53       0.071184874097
 54       0.110593746104
 55       0.087025090951
 56       0.094358319811
 57       0.070262313109
 58      -0.073671332054
 59      -0.050972789759
 60      -0.012993898231
 61      -0.012575740968
 Sym=     1a
 Ene= -5.67693458136607E-01
 Spin= Alpha
 Occup= 2.000000
  1      -0.000455068092
  2       0.001879322453
  3       0.130285720499
  4      -0.234554163556
  5      -0.315830369307
  6       0.000908769877
  7       0.065932485147
  8      -0.120528407118
  9      -0.158251551373
 10       0.148679517773
 11       0.117093376212
 12      -0.004303719918
 13       0.008322302162
 14      -0.022614230961
 15      -0.023714080030
 16      -0.021656304579
 17       0.011788858876
 18      -0.004749552670
 19      -0.005384076175
 20      -0.018468717076
 21       0.001298250756
 22      -0.003465478996
 23      -0.025529352727
 24       0.030328645520
 25      -0.050969374232
 26      -0.004224917372
 27      -0.011778337736
 28       0.015734098068
 29      -0.026846147378
 30      -0.003021995171
 31       0.003966603466
 32       0.034026050656
 33      -0.045118071273
 34      -0.047853645872
 35       0.020287848380
 36       0.018071713837
 37      -0.022649160953
 38      -0.039688683588
 39       0.005888025951
 40      -0.009984524219
 41       0.030117305903
 42      -0.104408908605
 43      -0.081576559963
 44      -0.029310724349
 45       0.009318902154
 46      -0.049871391432
 47      -0.045594399386
 48       0.122607605484
 49       0.094464748397
 50      -0.251051431985
 51      -0.195760314157
 52      -0.004610201362
 53      -0.014053262028
 54      -0.011169508407
 55      -0.011402213104
 56      -0.037680971344
 57      -0.027294115250
 58       0.002151466755
 59       0.004776581812
 60       0.013793180034
 61       0.011306658579
 Sym=     1a
 Ene= -5.42850848503519E-01
 Spin= Alpha
 Occup= 2.000000
  1       0.006276419528
  2      -0.016514675767
  3       0.306023972277
  4       0.069255036735
  5       0.072173022244
  6       0.008713687946
  7       0.173308844882
  8       0.031342841805
  9       0.052611667469
 10       0.182783912726
 11       0.141518612421
 12       0.013306010095
 13      -0.029322435588
 14      -0.166218091070
 15       0.070469088598
 16      -0.036414040814
 17      -0.016228851574
 18      -0.103973533394
 19       0.032145099557
 20      -0.025691408181
 21      -0.007970374068
 22       0.014814989880
 23       0.138079036240
 24      -0.088287948288
 25       0.040221697550
 26       0.014364523562
 27       0.085796996865
 28      -0.064604406879
 29       0.026311827190
 30       0.035071056162
 31      -0.078074018153
 32      -0.071270039307
 33      -0.102440003345
 34       0.024023602079
 35      -0.071591095563
 36      -0.017175897004
 37      -0.023193333011
 38      -0.005805903846
 39      -0.007992405600
 40       0.016101464951
 41      -0.107175869833
 42      -0.103765643318
 43       0.002313989599
 44       0.015109636525
 45      -0.072555062998
 46      -0.068059013453
 47       0.000976396572
 48      -0.174745291680
 49      -0.133852755800
 50       0.029081598462
 51       0.023932118488
 52       0.109018750354
 53       0.084426899239
 54      -0.125349258010
 55      -0.088963905032
 56       0.123533882382
 57       0.084245637201
 58       0.031940719350
 59       0.041423339350
 60       0.108206775846
 61       0.071257879914
 Sym=     1a
 Ene= -5.07366904983185E-01
 Spin= Alpha
 Occup= 2.000000
  1      -0.017035105875
  2       0.037938133922