
                                 *****************
                                 * O   R   C   A *
                                 *****************

                                            #,                                       
                                            ###                                      
                                            ####                                     
                                            #####                                    
                                            ######                                   
                                           ########,                                 
                                     ,,################,,,,,                         
                               ,,#################################,,                 
                          ,,##########################################,,             
                       ,#########################################, ''#####,          
                    ,#############################################,,   '####,        
                  ,##################################################,,,,####,       
                ,###########''''           ''''###############################       
              ,#####''   ,,,,##########,,,,          '''####'''          '####       
            ,##' ,,,,###########################,,,                        '##       
           ' ,,###''''                  '''############,,,                           
         ,,##''                                '''############,,,,        ,,,,,,###''
      ,#''                                            '''#######################'''  
     '                                                          ''''####''''         
             ,#######,   #######,   ,#######,      ##                                
            ,#'     '#,  ##    ##  ,#'     '#,    #''#        ,####,    ,#,          
            ##       ##  ##   ,#'  ##            #'  '#       #'       ,# #          
            ##       ##  #######   ##           ,######,      #####,      #          
            '#,     ,#'  ##    ##  '#,     ,#' ,#      #,     #,   #      #          
             '#######'   ##     ##  '#######'  #'      '#     '####' #    #          



                #########################################################
                #                        -***-                          #
                #          Department of theory and spectroscopy        #
                #                                                       #
                #                      Frank Neese                      #
                #                                                       #
                #     Directorship, Architecture, Infrastructure        #
                #                    SHARK, DRIVERS                     #
                #        Core code/Algorithms in most modules           #
                #                                                       #
                #        Max Planck Institute fuer Kohlenforschung      #
                #                Kaiser Wilhelm Platz 1                 #
                #                 D-45470 Muelheim/Ruhr                 #
                #                      Germany                          #
                #                                                       #
                #                  All rights reserved                  #
                #                        -***-                          #
                #########################################################


                         Program Version 6.1.0  -  RELEASE   -
                                (GIT: $679e74b$)
                          ($2025-06-10 18:02:51 +0200$)


 With contributions from (in alphabetic order):
[Max-Planck-Institut fuer Kohlenforschung]                               
  Daniel Aravena         : Magnetic Suceptibility                        
  Michael Atanasov       : Ab Initio Ligand Field Theory (pilot matlab implementation)
  Alexander A. Auer      : GIAO ZORA, VPT2 properties, NMR spectrum      
  Ute Becker             : All parallelization in ORCA, NUMFREQ, NUMCALC 
  Giovanni Bistoni       : ED, misc. LED, open-shell LED, HFLD           
  Dmytro Bykov           : pre 5.0 version of the SCF Hessian            
  Marcos Casanova-Páez   : Triplet and SCS-CIS(D). UHF-(DLPNO)-IP/EA/STEOM-CCSD. UHF-CVS-IP/STEOM-CCSD   
  Vijay G. Chilkuri      : MRCI spin determinant printing, contributions to CSF-ICE 
  Pauline Colinet        : FMM embedding                                 
  Dipayan Datta          : RHF DLPNO-CCSD density                        
  Achintya Kumar Dutta   : EOM-CC, STEOM-CC                              
  Nicolas Foglia         : Exact transition moments, OPA infrastructure, MCD improvements    
  Dmitry Ganyushin       : Spin-Orbit,Spin-Spin,Magnetic field MRCI      
  Miquel Garcia-Rates    : C-PCM and meta-GGA Hessian, CCSD/C-PCM, Gaussian charge scheme 
  Tiago L. C. Gouveia    : GS-ROHF, GS-ROCIS                             
  Yang Guo               : DLPNO-NEVPT2, F12-NEVPT2, CIM, IAO-localization        
  Andreas Hansen         : Spin unrestricted coupled pair/coupled cluster methods 
  Ingolf Harden          : AUTO-CI MPn and infrastructure                
  Benjamin Helmich-Paris : MC-RPA, TRAH-(SCF,CASSCF), AVAS, COSX integrals, SCF dyn. polar., MC-PDFT, srDFT 
  Lee Huntington         : MR-EOM, pCC                                   
  Robert Izsak           : Overlap fitted RIJCOSX, COSX-SCS-MP3, EOM     
  Riya Kayal             : Wick's Theorem for AUTO-CI, AUTO-CI UHF-CCSDT 
  Emily Kempfer          : AUTO-CI RHF CISDT and CCSDT, approximate NEVPT4
  Christian Kollmar      : KDIIS, OOCD, Brueckner-CCSD(T), CCSD density, CASPT2, CASPT2-K, improved NEVPT2 
  Axel Koslowski         : Symmetry handling                             
  Simone Kossmann        : meta-GGA functionals, TD-DFT gradient, OOMP2, (MP2 Hessian; deprecated post 5.0) 
  Lucas Lang             : DCDCAS, Hyperfine gauge corrections, ICE-SOC+SSC
  Marvin Lechner         : AUTO-CI (C++ implementation), FIC-MRCC        
  Spencer Leger          : CASSCF response                               
  Dagmar Lenk            : GEPOL surface, SMD, ORCA-2-JSON               
  Dimitrios Liakos       : Extrapolation schemes; Compound Job, Property file
  Dimitrios Manganas     : Further ROCIS development; embedding schemes. LFT, Crystal Embedding 
  Dimitrios Pantazis     : SARC Basis sets                               
  Anastasios Papadopoulos: AUTO-CI, single reference methods and gradients 
  Taras Petrenko         : pre 6.0 DFT Hessian and TD-DFT gradient,  ECA, NRVS 
  Petra Pikulova         : Analytic Raman intensities                    
  Peter Pinski           : DLPNO-MP2, DLPNO-MP2 Gradient                 
  Shashank Vittal Rao    : ES-AILFT, MagRelax                            
  Christoph Reimann      : Effective Core Potentials                     
  Marius Retegan         : Local ZFS, SOC                                
  Christoph Riplinger    : Optimizer, TS searches, QM/MM, DLPNO-CCSD(T), (RO)-DLPNO pert. Triples 
  Michael Roemelt        : Original ROCIS implementation, recursive CI coupling coefficients
  Masaaki Saitow         : Open-shell DLPNO-CCSD energy and density      
  Barbara Sandhoefer     : DKH picture change effects                    
  Yorick L. A. Schmerwitz: GMF and freeze-and-release deltaSCF, NEB S-IDPP initial path                    
  Kantharuban Sivalingam : CASSCF convergence/infrastructure, NEVPT2, NEVPT3, NEVPT4(SD), FIC-MRCI and CEPA variants
  Bernardo de Souza      : ESD, SOC TD-DFT                               
  Georgi L. Stoychev     : AutoAux, RI-MP2 NMR, DLPNO-MP2 response, X2C  
  Van Anh Tran           : RI-MP2 g-tensors                              
  Willem Van den Heuvel  : Paramagnetic NMR                              
  Zikuan Wang            : NOTCH, Electric field optimization            
  Frank Wennmohs         : Technical directorship and infrastructure     
  Hang Xu                : AUTO-CI-Response properties                   
                                                                         
[FACCTs GmbH]                                                            
  Markus Bursch, Nicolas Foglia, Miquel Garcia-Rates, Ingolf Harden, Hagen Neugebauer, Anastasios Papadopoulos, 
  Christoph Riplinger, Bernardo de Souza, Georgi L. Stoychev                                                    
                                                                 
  APM, various basis sets, CI-OPT, improved COSX, DLPNO-Multilevel,           
  DOCKER, DRACO, updates on ESD, Fragmentator, GOAT, IRC, LR-CPCM, L-BFGS, MBIS, meta-GGA TD-DFT gradient, ML-optimized integration grids, 
  MM, NACMEs, nearIR, NEB, NEB-TS, NL-DFT gradient (VV10), 2- and 3-layer-ONIOM, interface openCOSMO-RS, QMMM,   
  Crystal-QMMM, RESP, rigid body optimization, SF, symmetry and pop. for TD-DFT, various functionals, SOLVATOR                                   
                                                                         
[Other institutions]                                                     
  V. Asgeirsson          : NEB                                           
  Christoph Bannwarth    : sTDA-DFT, sTD-DFT, PBEh-3c, B97-3c, D3        
  Giovanni Bistoni       : ETS/NOCV, ADLD/ADEX, COVALED                  
  Martin Brehm           : Molecular dynamics                            
  Ronald Cardenas        : ETS/NOCV                                      
  Martina Colucci        : COVALED                                       
  Sebastian Ehlert       : rSCAN, r2SCAN, r2SCAN-3c, D4, dhf basis sets  
  Marvin Friede          : D4 for Fr, Ra, Ac-Lr                          
  Lars Goerigk           : TD-DFT with DH, B97 family of functionals     
  Stefan Grimme          : VdW corrections, initial TS optimization, DFT functionals, gCP, sTDA/sTD-DF 
  Waldemar Hujo          : DFT-NL                                        
  H. Jonsson             : NEB                                           
  Holger Kruse           : gCP                                           
  Marcel Mueller         : wB97X-3c, vDZP basis set                      
  Hagen Neugebauer       : wr2SCAN, Native XTB                           
  Gianluca Regni         : ADLD/ADEX                                     
  Tobias Risthaus        : pre 6.0 range-separated hybrid DFT and stability analysis
  Lukas Wittmann         : regularized MP2, r2SCAN double-hybrids, wr2SCAN        
                                                                         
We gratefully acknowledge several colleagues who have allowed us to      
interface, adapt or use parts of their codes:                            
  Ed Valeev, F. Pavosevic, A. Kumar             : LibInt (2-el integral package), F12 methods 
  Garnet Chan, S. Sharma, J. Yang, R. Olivares  : DMRG                   
  Ulf Ekstrom                                   : XCFun DFT Library      
  Mihaly Kallay                                 : mrcc  (arbitrary order and MRCC methods)
  Frank Weinhold                                : gennbo (NPA and NBO analysis)           
  Simon Mueller                                 : openCOSMO-RS                            
  Christopher J. Cramer and Donald G. Truhlar   : smd solvation model                     
  S Lehtola, MJT Oliveira, MAL Marques          : LibXC Library                           
  Liviu Ungur et al                             : ANISO software                          


 Your calculation uses the libint2 library for the computation of 2-el integrals
 For citations please refer to: http://libint.valeyev.net

 Your ORCA version has been built with support for libXC version: 7.0.0
 For citations please refer to: https://libxc.gitlab.io

 This ORCA versions uses:
   CBLAS   interface :  Fast vector & matrix operations
   LAPACKE interface :  Fast linear algebra routines
   SCALAPACK package :  Parallel linear algebra routines
   Shared memory     :  Shared parallel matrices
   BLAS/LAPACK       :  OpenBLAS 0.3.29  USE64BITINT DYNAMIC_ARCH NO_AFFINITY Zen SINGLE_THREADED
        Core in use  :  Zen
   Copyright (c) 2011-2014, The OpenBLAS Project


  ***********************************
  * Starting time: Sun Apr  5 13:00:11 2026
  * Host name:     QC1
  * Process ID:    4552
  * Working dir.:  /home/user/QC/h-shift/split_2
  ***********************************

NOTE: MaxCore=1200 MB was set to SCF,MP2,MDCI,CIPSI,MRCI,RASCI and CIS
      => If you want to overwrite this, your respective input block should be placed after the MaxCore statement
================================================================================

----- Orbital basis set information -----
Your calculation utilizes the basis: 6-31G
   H-He, Li-Ne : W. J. Hehre, R. Ditchfield and J.A. Pople, J. Chem. Phys. 56, 2257 (1972).
                 Note: He and Ne are unpublished basis sets taken from the Gaussian program.
                 Note: Li and B from J. D. Dill and J. A. Pople, J. Chem. Phys. 62, 2921 (1975).
   Na - Ar     : M. M. Francl, W. J. Pietro, W. J. Hehre, J. S. Binkley, M. S. Gordon, 
                 D. J. DeFrees and J. A. Pople, J. Chem. Phys. 77, 3654 (1982).
   K - Zn      : V. A. Rassolov, J. A. Pople, M. A. Ratner, and T. L. Windus, J. Chem. Phys. 109, 1223 (1998).

================================================================================
                                        WARNINGS
                       Please study these warnings very carefully!
================================================================================


================================================================================
                                       INPUT FILE
================================================================================
NAME = h-shift_016.inp
|  1> ! HF 6-31G
|  2> %maxcore 1200
|  3> %pal nprocs 8 end
|  4> * xyz 0 1
|  5> C    0.00286800   0.01066500  -0.16431500
|  6> H    1.02784400   0.01489500  -0.51402100
|  7> C    2.57156600   0.01032200   1.52051300
|  8> C    2.04420800  -1.17935500   1.79650000
|  9> C    0.64419500  -1.60714000   1.65590500
| 10> C   -0.23688700  -1.13568900   0.77482000
| 11> H   -0.65296300  -0.02293900  -1.02282600
| 12> H   -0.16446600   0.95887800   0.34006100
| 13> H    1.98466000   0.86329300   1.24859200
| 14> H    3.63204200   0.16576600   1.55691700
| 15> H    2.71189400  -1.95848400   2.12251100
| 16> H    0.34939700  -2.43726100   2.27532600
| 17> H   -1.19858300  -1.61499600   0.71040800
| 18> *
| 19> 
| 20>                          ****END OF INPUT****
================================================================================

                       ****************************
                       * Single Point Calculation *
                       ****************************

---------------------------------
CARTESIAN COORDINATES (ANGSTROEM)
---------------------------------
  C      0.002868    0.010665   -0.164315
  H      1.027844    0.014895   -0.514021
  C      2.571566    0.010322    1.520513
  C      2.044208   -1.179355    1.796500
  C      0.644195   -1.607140    1.655905
  C     -0.236887   -1.135689    0.774820
  H     -0.652963   -0.022939   -1.022826
  H     -0.164466    0.958878    0.340061
  H      1.984660    0.863293    1.248592
  H      3.632042    0.165766    1.556917
  H      2.711894   -1.958484    2.122511
  H      0.349397   -2.437261    2.275326
  H     -1.198583   -1.614996    0.710408

----------------------------
CARTESIAN COORDINATES (A.U.)
----------------------------
  NO LB      ZA    FRAG     MASS         X           Y           Z
   0 C     6.0000    0    12.011    0.005420    0.020154   -0.310510
   1 H     1.0000    0     1.008    1.942344    0.028147   -0.971359
   2 C     6.0000    0    12.011    4.859555    0.019506    2.873353
   3 C     6.0000    0    12.011    3.862993   -2.228658    3.394893
   4 C     6.0000    0    12.011    1.217352   -3.037054    3.129207
   5 C     6.0000    0    12.011   -0.447652   -2.146141    1.464198
   6 H     1.0000    0     1.008   -1.233921   -0.043348   -1.932861
   7 H     1.0000    0     1.008   -0.310796    1.812017    0.642622
   8 H     1.0000    0     1.008    3.750464    1.631387    2.359497
   9 H     1.0000    0     1.008    6.863565    0.313252    2.942147
  10 H     1.0000    0     1.008    5.124737   -3.700998    4.010965
  11 H     1.0000    0     1.008    0.660265   -4.605756    4.299743
  12 H     1.0000    0     1.008   -2.264994   -3.051900    1.342477

--------------------------------
INTERNAL COORDINATES (ANGSTROEM)
--------------------------------
 C      0   0   0     0.000000000000     0.00000000     0.00000000
 H      1   0   0     1.082999529045     0.00000000     0.00000000
 C      2   1   0     2.553904290057   108.35030711     0.00000000
 C      3   2   1     1.330265630866    85.82821435    63.47378457
 C      4   3   2     1.470647259005   128.14812118   320.60533609
 C      5   4   3     1.332247091703   126.14817370    28.91350995
 H      1   2   3     1.080872178612   108.53587304   181.98636854
 H      1   2   3     1.086969967525   106.98520293    66.15229040
 H      3   2   1     1.070494843480    57.64382811   289.31960777
 H      3   2   1     1.072425957784   128.64571553   190.50895301
 H      4   3   2     1.076628889338   117.65614438   137.48451215
 H      5   4   3     1.076888625015   115.45737546   203.38570087
 H      6   5   4     1.076449396121   118.21959868   173.40163269

---------------------------
INTERNAL COORDINATES (A.U.)
---------------------------
 C      0   0   0     0.000000000000     0.00000000     0.00000000
 H      1   0   0     2.046572513061     0.00000000     0.00000000
 C      2   1   0     4.826179680453   108.35030711     0.00000000
 C      3   2   1     2.513837727704    85.82821435    63.47378457
 C      4   3   2     2.779120559121   128.14812118   320.60533609
 C      5   4   3     2.517582146031   126.14817370    28.91350995
 H      1   2   3     2.042552403352   108.53587304   181.98636854
 H      1   2   3     2.054075554419   106.98520293    66.15229040
 H      3   2   1     2.022942081953    57.64382811   289.31960777
 H      3   2   1     2.026591359119   128.64571553   190.50895301
 H      4   3   2     2.034533748717   117.65614438   137.48451215
 H      5   4   3     2.035024578013   115.45737546   203.38570087
 H      6   5   4     2.034194555693   118.21959868   173.40163269

---------------------
BASIS SET INFORMATION
---------------------
There are 2 groups of distinct atoms

 Group   1 Type C   : 10s4p contracted to 3s2p pattern {631/31}
 Group   2 Type H   : 4s contracted to 2s pattern {31}

Atom   0C    basis set group =>   1
Atom   1H    basis set group =>   2
Atom   2C    basis set group =>   1
Atom   3C    basis set group =>   1
Atom   4C    basis set group =>   1
Atom   5C    basis set group =>   1
Atom   6H    basis set group =>   2
Atom   7H    basis set group =>   2
Atom   8H    basis set group =>   2
Atom   9H    basis set group =>   2
Atom  10H    basis set group =>   2
Atom  11H    basis set group =>   2
Atom  12H    basis set group =>   2


           ************************************************************
           *        Program running with 8 parallel MPI-processes     *
           *              working on a common directory               *
           ************************************************************
------------------------------------------------------------------------------
                             ORCA STARTUP CALCULATIONS
------------------------------------------------------------------------------
------------------------------------------------------------------------------
                   ___                                                        
                  /   \      - P O W E R E D   B Y -                         
                 /     \                                                     
                 |  |  |   _    _      __       _____    __    __             
                 |  |  |  | |  | |    /  \     |  _  \  |  |  /  |          
                  \  \/   | |  | |   /    \    | | | |  |  | /  /          
                 / \  \   | |__| |  /  /\  \   | |_| |  |  |/  /          
                |  |  |   |  __  | /  /__\  \  |    /   |      \           
                |  |  |   | |  | | |   __   |  |    \   |  |\   \          
                \     /   | |  | | |  |  |  |  | |\  \  |  | \   \       
                 \___/    |_|  |_| |__|  |__|  |_| \__\ |__|  \__/        
                                                                              
                      - O R C A' S   B I G   F R I E N D -                    
                                      &                                       
                       - I N T E G R A L  F E E D E R -                       
                                                                              
 v1 FN, 2020, v2 2021, v3 2022-2024                                           
------------------------------------------------------------------------------


----------------------
SHARK INTEGRAL PACKAGE
----------------------

Number of atoms                             ...     13
Number of basis functions                   ...     61
Number of shells                            ...     41
Maximum angular momentum                    ...      1
Integral batch strategy                     ... SHARK/LIBINT Hybrid
RI-J (if used) integral strategy            ... SPLIT-RIJ (Revised 2003 algorithm where possible)
Printlevel                                  ...      1
Contraction scheme used                     ... SEGMENTED contraction
Prescreening option                         ... SCHWARTZ
   Thresh                                   ... 1.000e-10
   Tcut                                     ... 1.000e-11
   Tpresel                                  ... 1.000e-11 
Coulomb Range Separation                    ... NOT USED
Exchange Range Separation                   ... NOT USED
Multipole approximations                    ... NOT USED
Finite Nucleus Model                        ... NOT USED
CABS basis                                  ... NOT available
Auxiliary Coulomb fitting basis             ... NOT available
Auxiliary J/K fitting basis                 ... NOT available
Auxiliary Correlation fitting basis         ... NOT available
Auxiliary 'external' fitting basis          ... NOT available

Checking pre-screening integrals            ... done (  0.0 sec) Dimension = 41
   => SHARK Basis and OBASIS are compatible. Storing Pre-screening
Shell pair information
Shell pair cut-off parameter TPreSel        ...   1.0e-11
Total number of shell pairs                 ...       861
Shell pairs after pre-screening             ...       846
Total number of primitive shell pairs       ...      5382
Primitive shell pairs kept                  ...      3730
          la=0 lb=0:    481 shell pairs
          la=1 lb=0:    310 shell pairs
          la=1 lb=1:     55 shell pairs

Checking whether 4 symmetric matrices of dimension 61 fit in memory
:Max Core in MB      =   1200.00
 MB in use           =      2.04
 MB left             =   1197.96
 MB needed           =      0.06
 Data fit in memory  = YES
Calculating Nuclear repulsion               ... done (  0.0 sec) ENN=    160.720929545257 Eh

Diagonalization of the overlap matrix:
Smallest eigenvalue                        ... 3.360e-03
Time for diagonalization                   ...    0.001 sec
Threshold for overlap eigenvalues          ... 1.000e-07
Number of eigenvalues below threshold      ... 0
Time for construction of square roots      ...    0.000 sec
Total time needed                          ...    0.002 sec

-------------------
DFT GRID GENERATION
-------------------

General Integration Accuracy     IntAcc      ... 4.388
Radial Grid Type                 RadialGrid  ... OptM3 with GC (2021)
Angular Grid (max. ang.)         AngularGrid ... 4 (Lebedev-302)
Angular grid pruning method      GridPruning ... 4 (adaptive)
Weight generation scheme         WeightScheme... mBecke (2022)
Basis function cutoff            BFCut       ... 1.0000e-10
Integration weight cutoff        WCut        ... 1.0000e-14
Partially contracted basis set               ... off
Rotationally invariant grid construction     ... off
Angular grids for H and He will be reduced by one unit

Total number of grid points                  ...    56049
Total number of batches                      ...      883
Average number of points per batch           ...       63
Average number of grid points per atom       ...     4311
Grids setup in   0.2 sec
Initializing property integral containers    ... done (  0.0 sec)

SHARK setup successfully completed in   0.3 seconds

Maximum memory used throughout the entire STARTUP-calculation: 11.8 MB


           ************************************************************
           *        Program running with 8 parallel MPI-processes     *
           *              working on a common directory               *
           ************************************************************
-------------------------------------------------------------------------------
                                 ORCA GUESS
                   Start orbitals & Density for SCF / CASSCF
-------------------------------------------------------------------------------

------------
SCF SETTINGS
------------
Hamiltonian:
 Ab initio Hamiltonian  Method          .... Hartree-Fock(GTOs)


General Settings:
 Integral files         IntName         .... h-shift_016
 Hartree-Fock type      HFTyp           .... RHF
 Total Charge           Charge          ....    0
 Multiplicity           Mult            ....    1
 Number of Electrons    NEL             ....   38
 Basis Dimension        Dim             ....   61
 Nuclear Repulsion      ENuc            ....    160.7209295453 Eh

Convergence Acceleration:
 AO-DIIS                CNVDIIS         .... on
   Start iteration      DIISMaxIt       ....    12
   Startup error        DIISStart       ....  0.200000
   # of expansion vecs  DIISMaxEq       ....     5
   Bias factor          DIISBfac        ....   1.050
   Max. coefficient     DIISMaxC        ....  10.000
 MO-DIIS                CNVKDIIS        .... off
 Trust-Rad. Augm. Hess. CNVTRAH         .... auto
   Auto Start mean grad. ratio tolernc. ....  1.125000
   Auto Start start iteration           ....    50
   Auto Start num. interpolation iter.  ....    10
   Max. Number of Micro iterations      ....    24
   Max. Number of Macro iterations      .... Maxiter - #DIIS iter
   Number of Davidson start vectors     ....     2
   Converg. threshold    (grad. norm)   ....   5.000e-05
   Grad. Scal. Fac. for Micro threshold ....   0.100
   Minimum threshold for Micro iter.    ....   1.000e-02
   NR start threshold (gradient norm)   ....   1.000e-04
   Initial trust radius                 ....   0.400
   Minimum AH scaling param. (alpha)    ....   1.000
   Maximum AH scaling param. (alpha)    .... 1000.000
   Quad. conv. algorithm                .... NR
   White noise on init. David. guess    .... on
   Maximum white noise                  ....   0.010
   Pseudo random numbers                .... off
   Inactive MOs                         .... canonical
   Orbital update algorithm             .... Taylor
   Preconditioner                       .... Diag
   Full preconditioner red. dimension   ....   250
 SOSCF                 CNVSOSCF           .... on
   Start iteration     SOSCFMaxIt         ....   150
   Startup grad/error  SOSCFStart         ....  0.003300
   Hessian update      SOSCFHessUp        .... L-BFGS
   Autom. constraints  SOSCFAutoConstrain .... off
 Level Shifting         CNVShift        .... on
   Level shift para.    LevelShift      ....    0.2500
   Turn off err/grad.   ShiftErr        ....    0.0010
 Zerner damping         CNVZerner       .... off
 Static damping         CNVDamp         .... on
   Fraction old density DampFac         ....    0.7000
   Max. Damping (<1)    DampMax         ....    0.9800
   Min. Damping (>=0)   DampMin         ....    0.0000
   Turn off err/grad.   DampErr         ....    0.1000

SCF Procedure:
 Maximum # iterations   MaxIter         ....   125
 SCF integral mode      SCFMode         .... Direct
   Integral package                     .... SHARK and LIBINT hybrid scheme
 Reset frequency        DirectResetFreq ....    20
 Integral Threshold     Thresh          ....  1.000e-10 Eh
 Primitive CutOff       TCut            ....  1.000e-11 Eh

Convergence Tolerance:
 Convergence Check Mode ConvCheckMode   .... Total+1el-Energy
 Convergence forced     ConvForced      .... 0
 Energy Change          TolE            ....  1.000e-06 Eh
 1-El. energy change                    ....  1.000e-03 Eh
 Orbital Gradient       TolG            ....  5.000e-05
 Orbital Rotation angle TolX            ....  5.000e-05
 DIIS Error             TolErr          ....  1.000e-06

------------------------------
INITIAL GUESS: MODEL POTENTIAL
------------------------------
Loading Hartree-Fock densities                     ... done
Calculating cut-offs                               ... done
Initializing the effective Hamiltonian             ... done
Setting up the integral package (SHARK)            ... done
Starting the Coulomb interaction                   ... done (   0.0 sec)
Making the grid                                    ... done (   0.1 sec)
Mapping shells                                     ... done
Starting the XC term evaluation                    ... done (   0.0 sec)
Transforming the Hamiltonian                       ... done (   0.0 sec)
Diagonalizing the Hamiltonian                      ... done (   0.0 sec)
Back transforming the eigenvectors                 ... done (   0.0 sec)
Now organizing SCF variables                       ... done
                      ------------------
                      INITIAL GUESS DONE (   0.1 sec)
                      ------------------
             **** ENERGY FILE WAS UPDATED (h-shift_016.en.tmp) ****
Finished Guess after   0.4 sec
Maximum memory used throughout the entire GUESS-calculation: 4.2 MB


           ************************************************************
           *        Program running with 8 parallel MPI-processes     *
           *              working on a common directory               *
           ************************************************************

-------------------------------------------------------------------------------------------
                                      ORCA LEAN-SCF
                              memory conserving SCF solver
-------------------------------------------------------------------------------------------

----------------------------------------D-I-I-S--------------------------------------------
Iteration    Energy (Eh)           Delta-E    RMSDP     MaxDP     DIISErr   Damp  Time(sec)
-------------------------------------------------------------------------------------------
               ***  Starting incremental Fock matrix formation  ***
    1    -193.6459988772608938     0.00e+00  1.57e-02  5.35e-02  1.89e-01  0.700   0.1
    2    -193.7269863223231425    -8.10e-02  1.25e-02  4.06e-02  1.24e-01  0.700   0.0
                               ***Turning on AO-DIIS***
    3    -193.7770640539703493    -5.01e-02  7.70e-03  2.03e-02  7.38e-02  0.700   0.0
    4    -193.8087104711173367    -3.16e-02  1.83e-02  4.33e-02  4.99e-02  0.000   0.0
                              *** Initializing SOSCF ***
---------------------------------------S-O-S-C-F--------------------------------------
Iteration    Energy (Eh)           Delta-E    RMSDP     MaxDP     MaxGrad    Time(sec)
--------------------------------------------------------------------------------------
    5    -193.8771731823868834    -6.85e-02  1.70e-03  2.80e-03  2.79e-03     0.0
               *** Restarting incremental Fock matrix formation ***
    6    -193.8772942154434133    -1.21e-04  8.69e-04  1.82e-03  1.35e-03     0.0
    7    -193.8773296854168677    -3.55e-05  5.40e-04  1.18e-03  5.51e-04     0.0
    8    -193.8773364964433483    -6.81e-06  7.08e-05  1.80e-04  1.34e-04     0.0
    9    -193.8773367111516848    -2.15e-07  3.20e-05  7.79e-05  3.29e-05     0.0
                 **** Energy Check signals convergence ****

               *****************************************************
               *                     SUCCESS                       *
               *           SCF CONVERGED AFTER   9 CYCLES          *
               *****************************************************

             **** ENERGY FILE WAS UPDATED (h-shift_016.en.tmp) ****

----------------
TOTAL SCF ENERGY
----------------

Total Energy       :       -193.87733676693423 Eh           -5275.67054 eV

Components:
Nuclear Repulsion  :        160.72092954525684 Eh            4373.43883 eV
Electronic Energy  :       -354.59826631219107 Eh           -9649.10938 eV
One Electron Energy:       -578.40153452614015 Eh          -15739.10592 eV
Two Electron Energy:        223.80326821394908 Eh            6089.99654 eV

Virial components:
Potential Energy   :       -388.04372687974598 Eh          -10559.20663 eV
Kinetic Energy     :        194.16639011281174 Eh            5283.53608 eV
Virial Ratio       :          1.99851131111976

---------------
SCF CONVERGENCE
---------------

  Last Energy change         ...    2.1471e-07  Tolerance :   1.0000e-06
  Last MAX-Density change    ...    7.7949e-05  Tolerance :   1.0000e-05
  Last RMS-Density change    ...    3.1952e-05  Tolerance :   1.0000e-06
  Last DIIS Error            ...    2.7852e-03  Tolerance :   1.0000e-06
  Last Orbital Gradient      ...    3.2876e-05  Tolerance :   5.0000e-05
  Last Orbital Rotation      ...    3.2278e-05  Tolerance :   5.0000e-05


----------------
ORBITAL ENERGIES
----------------

  NO   OCC          E(Eh)            E(eV) 
   0   2.0000     -11.236052      -305.7485 
   1   2.0000     -11.235522      -305.7341 
   2   2.0000     -11.227437      -305.5141 
   3   2.0000     -11.221498      -305.3525 
   4   2.0000     -11.215280      -305.1833 
   5   2.0000      -1.100280       -29.9401 
   6   2.0000      -1.021241       -27.7894 
   7   2.0000      -0.941180       -25.6108 
   8   2.0000      -0.814019       -22.1506 
   9   2.0000      -0.717199       -19.5160 
  10   2.0000      -0.667247       -18.1567 
  11   2.0000      -0.603563       -16.4238 
  12   2.0000      -0.584807       -15.9134 
  13   2.0000      -0.567446       -15.4410 
  14   2.0000      -0.541424       -14.7329 
  15   2.0000      -0.506944       -13.7947 
  16   2.0000      -0.468833       -12.7576 
  17   2.0000      -0.411954       -11.2098 
  18   2.0000      -0.315571        -8.5871 
  19   0.0000       0.132656         3.6098 
  20   0.0000       0.232680         6.3315 
  21   0.0000       0.253181         6.8894 
  22   0.0000       0.265319         7.2197 
  23   0.0000       0.291735         7.9385 
  24   0.0000       0.320362         8.7175 
  25   0.0000       0.337085         9.1726 
  26   0.0000       0.347422         9.4538 
  27   0.0000       0.359052         9.7703 
  28   0.0000       0.367687        10.0053 
  29   0.0000       0.429093        11.6762 
*Only the first 10 virtual orbitals were printed.

                    ********************************
                    * MULLIKEN POPULATION ANALYSIS *
                    ********************************

-----------------------
MULLIKEN ATOMIC CHARGES
-----------------------
   0 C :   -0.509267
   1 H :    0.181571
   2 C :   -0.362428
   3 C :   -0.151594
   4 C :   -0.196427
   5 C :   -0.148245
   6 H :    0.159395
   7 H :    0.170867
   8 H :    0.171777
   9 H :    0.161829
  10 H :    0.173269
  11 H :    0.174899
  12 H :    0.174357
Sum of atomic charges:    0.0000000

--------------------------------
MULLIKEN REDUCED ORBITAL CHARGES
--------------------------------
  0 C s       :     3.366587  s :     3.366587
      pz      :     1.033892  p :     3.142680
      px      :     1.111651
      py      :     0.997137

  1 H s       :     0.818429  s :     0.818429

  2 C s       :     3.266263  s :     3.266263
      pz      :     1.018238  p :     3.096165
      px      :     1.082108
      py      :     0.995819

  3 C s       :     3.194559  s :     3.194559
      pz      :     0.998167  p :     2.957035
      px      :     0.963869
      py      :     0.994999

  4 C s       :     3.193300  s :     3.193300
      pz      :     1.016131  p :     3.003128
      px      :     0.922618
      py      :     1.064379

  5 C s       :     3.210458  s :     3.210458
      pz      :     0.941825  p :     2.937787
      px      :     1.036241
      py      :     0.959722

  6 H s       :     0.840605  s :     0.840605

  7 H s       :     0.829133  s :     0.829133

  8 H s       :     0.828223  s :     0.828223

  9 H s       :     0.838171  s :     0.838171

 10 H s       :     0.826731  s :     0.826731

 11 H s       :     0.825101  s :     0.825101

 12 H s       :     0.825643  s :     0.825643



                     *******************************
                     * LOEWDIN POPULATION ANALYSIS *
                     *******************************

----------------------
LOEWDIN ATOMIC CHARGES
----------------------
   0 C :   -0.319316
   1 H :    0.124572
   2 C :   -0.246562
   3 C :   -0.113925
   4 C :   -0.149717
   5 C :   -0.107363
   6 H :    0.111013
   7 H :    0.117254
   8 H :    0.117536
   9 H :    0.116179
  10 H :    0.116549
  11 H :    0.117260
  12 H :    0.116519

-------------------------------
LOEWDIN REDUCED ORBITAL CHARGES
-------------------------------
  0 C s       :     2.976116  s :     2.976116
      pz      :     1.105940  p :     3.343199
      px      :     1.144499
      py      :     1.092761

  1 H s       :     0.875428  s :     0.875428

  2 C s       :     2.988299  s :     2.988299
      pz      :     1.036261  p :     3.258263
      px      :     1.115056
      py      :     1.106946

  3 C s       :     2.944964  s :     2.944964
      pz      :     0.987926  p :     3.168962
      px      :     1.071526
      py      :     1.109510

  4 C s       :     2.940497  s :     2.940497
      pz      :     1.074499  p :     3.209220
      px      :     1.064007
      py      :     1.070714

  5 C s       :     2.951586  s :     2.951586
      pz      :     1.032125  p :     3.155777
      px      :     1.090965
      py      :     1.032687

  6 H s       :     0.888987  s :     0.888987

  7 H s       :     0.882746  s :     0.882746

  8 H s       :     0.882464  s :     0.882464

  9 H s       :     0.883821  s :     0.883821

 10 H s       :     0.883451  s :     0.883451

 11 H s       :     0.882740  s :     0.882740

 12 H s       :     0.883481  s :     0.883481



                      *****************************
                      * MAYER POPULATION ANALYSIS *
                      *****************************

  NA   - Mulliken gross atomic population
  ZA   - Total nuclear charge
  QA   - Mulliken gross atomic charge
  VA   - Mayer's total valence
  BVA  - Mayer's bonded valence
  FA   - Mayer's free valence

  ATOM       NA         ZA         QA         VA         BVA        FA
  0 C      6.5093     6.0000    -0.5093     3.7717     3.7717    -0.0000
  1 H      0.8184     1.0000     0.1816     0.9306     0.9306    -0.0000
  2 C      6.3624     6.0000    -0.3624     3.8457     3.8457    -0.0000
  3 C      6.1516     6.0000    -0.1516     3.8087     3.8087     0.0000
  4 C      6.1964     6.0000    -0.1964     3.8244     3.8244     0.0000
  5 C      6.1482     6.0000    -0.1482     3.7671     3.7671     0.0000
  6 H      0.8406     1.0000     0.1594     0.9325     0.9325    -0.0000
  7 H      0.8291     1.0000     0.1709     0.9222     0.9222    -0.0000
  8 H      0.8282     1.0000     0.1718     0.9390     0.9390    -0.0000
  9 H      0.8382     1.0000     0.1618     0.9439     0.9439     0.0000
 10 H      0.8267     1.0000     0.1733     0.9372     0.9372     0.0000
 11 H      0.8251     1.0000     0.1749     0.9387     0.9387     0.0000
 12 H      0.8256     1.0000     0.1744     0.9387     0.9387     0.0000

  Mayer bond orders larger than 0.100000
B(  0-C ,  1-H ) :   0.9434 B(  0-C ,  5-C ) :   0.9586 B(  0-C ,  6-H ) :   0.9597 
B(  0-C ,  7-H ) :   0.9451 B(  2-C ,  3-C ) :   1.8799 B(  2-C ,  8-H ) :   0.9615 
B(  2-C ,  9-H ) :   0.9628 B(  3-C ,  4-C ) :   1.0460 B(  3-C , 10-H ) :   0.9577 
B(  4-C ,  5-C ) :   1.8822 B(  4-C , 11-H ) :   0.9566 B(  5-C , 12-H ) :   0.9577 


-------
TIMINGS
-------

Total SCF time: 0 days 0 hours 0 min 0 sec 

Total time                  ....       0.648 sec
Sum of individual times     ....       0.605 sec  ( 93.4%)

SCF preparation             ....       0.254 sec  ( 39.2%)
Fock matrix formation       ....       0.297 sec  ( 45.8%)
  Startup                   ....       0.001 sec  (  0.5% of F)
  Coulomb+Exchange Fock     ....       0.315 sec  (106.3% of F)
Diagonalization             ....       0.000 sec  (  0.0%)
Density matrix formation    ....       0.008 sec  (  1.2%)
Total Energy calculation    ....       0.005 sec  (  0.7%)
Population analysis         ....       0.004 sec  (  0.7%)
Orbital Transformation      ....       0.005 sec  (  0.7%)
Orbital Orthonormalization  ....       0.000 sec  (  0.0%)
DIIS solution               ....       0.020 sec  (  3.1%)
SOSCF solution              ....       0.013 sec  (  2.0%)
Finished LeanSCF after   0.7 sec

Maximum memory used throughout the entire LEANSCF-calculation: 6.4 MB

-------------------------   --------------------
FINAL SINGLE POINT ENERGY      -193.877336766934
-------------------------   --------------------



           ************************************************************
           *        Program running with 8 parallel MPI-processes     *
           *              working on a common directory               *
           ************************************************************

------------------------------------------------------------------------------
                              ORCA PROPERTY CALCULATIONS
------------------------------------------------------------------------------

GBWName                                 ... h-shift_016.gbw
Number of atoms                         ...     13
Number of basis functions               ...     61
Max core memory                         ...   1200 MB

Electric properties:
Dipole moment                           ... YES
Quadrupole moment                       ...  NO
Static polarizability (Dipole/Dipole)   ...  NO
Static polarizability (Dipole/Quad.)    ...  NO
Static polarizability (Quad./Quad.)     ...  NO
Static polarizability (Velocity)        ...  NO
Static hyperpolarizability              ...  NO

Atomic electric properties:
Dipole moment                           ...  NO
Quadrupole moment                       ...  NO
Static polarizability                   ...  NO

Choice of electric origin               ... Center of mass
Position of electric origin             ...     1.889699    -1.412610     2.048247

General magnetic properties:
Magnetizability                         ...  NO

EPR properties:
g-Tensor (aka g-matrix)                 ...  NO
Zero-Field splitting spin-orbit         ...  NO
Zero-field splitting spin-spin          ...  NO
Hyperfine couplings                     ...  NO (   0 nuclei)
Quadrupole couplings                    ...  NO (   0 nuclei)
Contact density                         ...  NO (   0 nuclei)

NMR properties:
Chemical shifts                         ...  NO (   0 nuclei)
Spin-rotation constants                 ...  NO (   0 nuclei)
Spin-spin couplings                     ...  NO (   0 nuclei,    0 pairs)

Choice of magnetic origin               ... GIAO
Position of magnetic origin             ...     0.000000     0.000000     0.000000

Properties with geometric perturbations:
SCF Hessian                             ...  NO
IR spectrum                             ...  NO
VCD spectrum                            ...  NO
X-ray spectroscopy properties:
SCF XES/XAS/RIXS spectra                ...  NO

SCF SOC stabilization energy            ...  NO
Diagonal Born-Oppenheimer correction    ...  NO

-------------
DIPOLE MOMENT
-------------

Method             : SCF
Type of density    : Electron Density
Multiplicity       :   1
Irrep              :   0
Energy             :  -193.8773367669342349 Eh
Basis              : AO
                                X                 Y                 Z
Electronic contribution:      0.234192426      -1.816152185       1.722735882
Nuclear contribution   :     -0.290891890       1.828804835      -1.833305659
                        -----------------------------------------
Total Dipole Moment    :     -0.056699464       0.012652649      -0.110569777
                        -----------------------------------------
Magnitude (a.u.)       :      0.124902339
Magnitude (Debye)      :      0.317476515



--------------------
Rotational spectrum 
--------------------
 
Rotational constants in cm-1:             0.286683             0.139122             0.096890 
Rotational constants in MHz :          8594.553458          4170.767354          2904.686951 

Dipole components along the rotational axes: 
x,y,z [a.u.] :     0.103610     0.047796    -0.050805 
x,y,z [Debye]:     0.263355     0.121487    -0.129136 

 

Dipole moment calculation done in   0.0 sec 

Maximum memory used throughout the entire PROP-calculation: 2.2 MB

--------------------------------
SUGGESTED CITATIONS FOR THIS RUN
--------------------------------

Below you find a list of papers that are relevant to this ORCA run
We neither can nor want to force you to cite these papers, but we appreciate if you do
You receive ORCA, which is the product of decades of hard work by many enthusiastic individuals, for free
The only thing we kindly ask in return is that you cite our papers,
We deeply appreciate it, if you show your appreciation for ORCA by not just citing the generic ORCA reference.

Please note that relegating all ORCA citations to the supporting information does *not* help us.
SI sections are not indexed - citations you put there will not count into any citation statistics
But we need these citations in order to attract the funding resources that allow us to do what we are doing

Therefore, if you are a happy ORCA user, please consider citing a few of the papers listed below in the main body of your paper

In addition to the list printed below, the program has created the file h-shift_016.bibtex that contains the list in bibtex format
You can import this file easily into all common literature databanks and citation aid programs


List of essential papers. We consider these as the minimum necessary citations

  1. Neese, F.
     Software update: the ORCA program system, version 6.0
     WIRES Comput. Molec. Sci. 2025 15(1), e70019
     doi.org/10.1002/wcms.7019

List of papers to cite with high priority. The work reported in these papers was absolutely
necessary for this run to complete.
Our perspective: the developers of density functionals and basis sets usually get cited in chemistry papers
Good! But without the algorithms to do something with them, the functionals or basis sets would not do anything.
Hence, in our opinion, the algorithm design and method developments papers are equally worthy of getting cited

  1. Neese, F.
     The SHARK Integral Generation and Digestion System
     J. Comp. Chem. 2022 44(3), 381
     doi.org/10.1002/jcc.26942

List of suggested additional citations. These are papers that are important in the 'surrounding' of 
of this run, or papers that preceded the highly important papers. If you like your results we are grateful for a citation.

  1. Neese, F.
     The ORCA program system
     WIRES Comput. Molec. Sci. 2012 2(1), 73-78
     doi.org/10.1002/wcms.81
  2. Neese, F.
     Software update: the ORCA program system, version 4.0
     WIRES Comput. Molec. Sci. 2018 8(1), 1-6
     doi.org/10.1002/wcms.1327
  3. Neese, F.; Wennmohs, F.; Becker, U.; Riplinger, C.
     The ORCA quantum chemistry program package
     J. Chem. Phys. 2020 152(22), 224108
     doi.org/10.1063/5.0004608
  4. Neese, F.
     Software update: The ORCA program system—Version 5.0
     WIRES Comput. Molec. Sci. 2022 12(1), e1606
     doi.org/10.1002/wcms.1606

List of optional additional citations

  1. Neese, F.
     Approximate second-order SCF convergence for spin unrestricted wavefunctions
     Chem. Phys. Lett. 2000 325(1-3), 93-98
     doi.org/10.1016/s0009-2614(00)00662-x

Timings for individual modules:

Sum of individual times          ...        2.350 sec (=   0.039 min)
Startup calculation              ...        0.643 sec (=   0.011 min)  27.4 %
SCF iterations                   ...        1.297 sec (=   0.022 min)  55.2 %
Property calculations            ...        0.410 sec (=   0.007 min)  17.4 %
                             ****ORCA TERMINATED NORMALLY****
TOTAL RUN TIME: 0 days 0 hours 0 minutes 2 seconds 822 msec
