
                                 *****************
                                 * O   R   C   A *
                                 *****************

                                            #,                                       
                                            ###                                      
                                            ####                                     
                                            #####                                    
                                            ######                                   
                                           ########,                                 
                                     ,,################,,,,,                         
                               ,,#################################,,                 
                          ,,##########################################,,             
                       ,#########################################, ''#####,          
                    ,#############################################,,   '####,        
                  ,##################################################,,,,####,       
                ,###########''''           ''''###############################       
              ,#####''   ,,,,##########,,,,          '''####'''          '####       
            ,##' ,,,,###########################,,,                        '##       
           ' ,,###''''                  '''############,,,                           
         ,,##''                                '''############,,,,        ,,,,,,###''
      ,#''                                            '''#######################'''  
     '                                                          ''''####''''         
             ,#######,   #######,   ,#######,      ##                                
            ,#'     '#,  ##    ##  ,#'     '#,    #''#        ,####,    ,#,          
            ##       ##  ##   ,#'  ##            #'  '#       #'       ,# #          
            ##       ##  #######   ##           ,######,      #####,      #          
            '#,     ,#'  ##    ##  '#,     ,#' ,#      #,     #,   #      #          
             '#######'   ##     ##  '#######'  #'      '#     '####' #    #          



                #########################################################
                #                        -***-                          #
                #          Department of theory and spectroscopy        #
                #                                                       #
                #                      Frank Neese                      #
                #                                                       #
                #     Directorship, Architecture, Infrastructure        #
                #                    SHARK, DRIVERS                     #
                #        Core code/Algorithms in most modules           #
                #                                                       #
                #        Max Planck Institute fuer Kohlenforschung      #
                #                Kaiser Wilhelm Platz 1                 #
                #                 D-45470 Muelheim/Ruhr                 #
                #                      Germany                          #
                #                                                       #
                #                  All rights reserved                  #
                #                        -***-                          #
                #########################################################


                         Program Version 6.1.0  -  RELEASE   -
                                (GIT: $679e74b$)
                          ($2025-06-10 18:02:51 +0200$)


 With contributions from (in alphabetic order):
[Max-Planck-Institut fuer Kohlenforschung]                               
  Daniel Aravena         : Magnetic Suceptibility                        
  Michael Atanasov       : Ab Initio Ligand Field Theory (pilot matlab implementation)
  Alexander A. Auer      : GIAO ZORA, VPT2 properties, NMR spectrum      
  Ute Becker             : All parallelization in ORCA, NUMFREQ, NUMCALC 
  Giovanni Bistoni       : ED, misc. LED, open-shell LED, HFLD           
  Dmytro Bykov           : pre 5.0 version of the SCF Hessian            
  Marcos Casanova-Páez   : Triplet and SCS-CIS(D). UHF-(DLPNO)-IP/EA/STEOM-CCSD. UHF-CVS-IP/STEOM-CCSD   
  Vijay G. Chilkuri      : MRCI spin determinant printing, contributions to CSF-ICE 
  Pauline Colinet        : FMM embedding                                 
  Dipayan Datta          : RHF DLPNO-CCSD density                        
  Achintya Kumar Dutta   : EOM-CC, STEOM-CC                              
  Nicolas Foglia         : Exact transition moments, OPA infrastructure, MCD improvements    
  Dmitry Ganyushin       : Spin-Orbit,Spin-Spin,Magnetic field MRCI      
  Miquel Garcia-Rates    : C-PCM and meta-GGA Hessian, CCSD/C-PCM, Gaussian charge scheme 
  Tiago L. C. Gouveia    : GS-ROHF, GS-ROCIS                             
  Yang Guo               : DLPNO-NEVPT2, F12-NEVPT2, CIM, IAO-localization        
  Andreas Hansen         : Spin unrestricted coupled pair/coupled cluster methods 
  Ingolf Harden          : AUTO-CI MPn and infrastructure                
  Benjamin Helmich-Paris : MC-RPA, TRAH-(SCF,CASSCF), AVAS, COSX integrals, SCF dyn. polar., MC-PDFT, srDFT 
  Lee Huntington         : MR-EOM, pCC                                   
  Robert Izsak           : Overlap fitted RIJCOSX, COSX-SCS-MP3, EOM     
  Riya Kayal             : Wick's Theorem for AUTO-CI, AUTO-CI UHF-CCSDT 
  Emily Kempfer          : AUTO-CI RHF CISDT and CCSDT, approximate NEVPT4
  Christian Kollmar      : KDIIS, OOCD, Brueckner-CCSD(T), CCSD density, CASPT2, CASPT2-K, improved NEVPT2 
  Axel Koslowski         : Symmetry handling                             
  Simone Kossmann        : meta-GGA functionals, TD-DFT gradient, OOMP2, (MP2 Hessian; deprecated post 5.0) 
  Lucas Lang             : DCDCAS, Hyperfine gauge corrections, ICE-SOC+SSC
  Marvin Lechner         : AUTO-CI (C++ implementation), FIC-MRCC        
  Spencer Leger          : CASSCF response                               
  Dagmar Lenk            : GEPOL surface, SMD, ORCA-2-JSON               
  Dimitrios Liakos       : Extrapolation schemes; Compound Job, Property file
  Dimitrios Manganas     : Further ROCIS development; embedding schemes. LFT, Crystal Embedding 
  Dimitrios Pantazis     : SARC Basis sets                               
  Anastasios Papadopoulos: AUTO-CI, single reference methods and gradients 
  Taras Petrenko         : pre 6.0 DFT Hessian and TD-DFT gradient,  ECA, NRVS 
  Petra Pikulova         : Analytic Raman intensities                    
  Peter Pinski           : DLPNO-MP2, DLPNO-MP2 Gradient                 
  Shashank Vittal Rao    : ES-AILFT, MagRelax                            
  Christoph Reimann      : Effective Core Potentials                     
  Marius Retegan         : Local ZFS, SOC                                
  Christoph Riplinger    : Optimizer, TS searches, QM/MM, DLPNO-CCSD(T), (RO)-DLPNO pert. Triples 
  Michael Roemelt        : Original ROCIS implementation, recursive CI coupling coefficients
  Masaaki Saitow         : Open-shell DLPNO-CCSD energy and density      
  Barbara Sandhoefer     : DKH picture change effects                    
  Yorick L. A. Schmerwitz: GMF and freeze-and-release deltaSCF, NEB S-IDPP initial path                    
  Kantharuban Sivalingam : CASSCF convergence/infrastructure, NEVPT2, NEVPT3, NEVPT4(SD), FIC-MRCI and CEPA variants
  Bernardo de Souza      : ESD, SOC TD-DFT                               
  Georgi L. Stoychev     : AutoAux, RI-MP2 NMR, DLPNO-MP2 response, X2C  
  Van Anh Tran           : RI-MP2 g-tensors                              
  Willem Van den Heuvel  : Paramagnetic NMR                              
  Zikuan Wang            : NOTCH, Electric field optimization            
  Frank Wennmohs         : Technical directorship and infrastructure     
  Hang Xu                : AUTO-CI-Response properties                   
                                                                         
[FACCTs GmbH]                                                            
  Markus Bursch, Nicolas Foglia, Miquel Garcia-Rates, Ingolf Harden, Hagen Neugebauer, Anastasios Papadopoulos, 
  Christoph Riplinger, Bernardo de Souza, Georgi L. Stoychev                                                    
                                                                 
  APM, various basis sets, CI-OPT, improved COSX, DLPNO-Multilevel,           
  DOCKER, DRACO, updates on ESD, Fragmentator, GOAT, IRC, LR-CPCM, L-BFGS, MBIS, meta-GGA TD-DFT gradient, ML-optimized integration grids, 
  MM, NACMEs, nearIR, NEB, NEB-TS, NL-DFT gradient (VV10), 2- and 3-layer-ONIOM, interface openCOSMO-RS, QMMM,   
  Crystal-QMMM, RESP, rigid body optimization, SF, symmetry and pop. for TD-DFT, various functionals, SOLVATOR                                   
                                                                         
[Other institutions]                                                     
  V. Asgeirsson          : NEB                                           
  Christoph Bannwarth    : sTDA-DFT, sTD-DFT, PBEh-3c, B97-3c, D3        
  Giovanni Bistoni       : ETS/NOCV, ADLD/ADEX, COVALED                  
  Martin Brehm           : Molecular dynamics                            
  Ronald Cardenas        : ETS/NOCV                                      
  Martina Colucci        : COVALED                                       
  Sebastian Ehlert       : rSCAN, r2SCAN, r2SCAN-3c, D4, dhf basis sets  
  Marvin Friede          : D4 for Fr, Ra, Ac-Lr                          
  Lars Goerigk           : TD-DFT with DH, B97 family of functionals     
  Stefan Grimme          : VdW corrections, initial TS optimization, DFT functionals, gCP, sTDA/sTD-DF 
  Waldemar Hujo          : DFT-NL                                        
  H. Jonsson             : NEB                                           
  Holger Kruse           : gCP                                           
  Marcel Mueller         : wB97X-3c, vDZP basis set                      
  Hagen Neugebauer       : wr2SCAN, Native XTB                           
  Gianluca Regni         : ADLD/ADEX                                     
  Tobias Risthaus        : pre 6.0 range-separated hybrid DFT and stability analysis
  Lukas Wittmann         : regularized MP2, r2SCAN double-hybrids, wr2SCAN        
                                                                         
We gratefully acknowledge several colleagues who have allowed us to      
interface, adapt or use parts of their codes:                            
  Ed Valeev, F. Pavosevic, A. Kumar             : LibInt (2-el integral package), F12 methods 
  Garnet Chan, S. Sharma, J. Yang, R. Olivares  : DMRG                   
  Ulf Ekstrom                                   : XCFun DFT Library      
  Mihaly Kallay                                 : mrcc  (arbitrary order and MRCC methods)
  Frank Weinhold                                : gennbo (NPA and NBO analysis)           
  Simon Mueller                                 : openCOSMO-RS                            
  Christopher J. Cramer and Donald G. Truhlar   : smd solvation model                     
  S Lehtola, MJT Oliveira, MAL Marques          : LibXC Library                           
  Liviu Ungur et al                             : ANISO software                          


 Your calculation uses the libint2 library for the computation of 2-el integrals
 For citations please refer to: http://libint.valeyev.net

 Your ORCA version has been built with support for libXC version: 7.0.0
 For citations please refer to: https://libxc.gitlab.io

 This ORCA versions uses:
   CBLAS   interface :  Fast vector & matrix operations
   LAPACKE interface :  Fast linear algebra routines
   SCALAPACK package :  Parallel linear algebra routines
   Shared memory     :  Shared parallel matrices
   BLAS/LAPACK       :  OpenBLAS 0.3.29  USE64BITINT DYNAMIC_ARCH NO_AFFINITY Zen SINGLE_THREADED
        Core in use  :  Zen
   Copyright (c) 2011-2014, The OpenBLAS Project


  ***********************************
  * Starting time: Sun Apr  5 12:59:35 2026
  * Host name:     QC1
  * Process ID:    2593
  * Working dir.:  /home/user/QC/h-shift/split_2
  ***********************************

NOTE: MaxCore=1200 MB was set to SCF,MP2,MDCI,CIPSI,MRCI,RASCI and CIS
      => If you want to overwrite this, your respective input block should be placed after the MaxCore statement
================================================================================

----- Orbital basis set information -----
Your calculation utilizes the basis: 6-31G
   H-He, Li-Ne : W. J. Hehre, R. Ditchfield and J.A. Pople, J. Chem. Phys. 56, 2257 (1972).
                 Note: He and Ne are unpublished basis sets taken from the Gaussian program.
                 Note: Li and B from J. D. Dill and J. A. Pople, J. Chem. Phys. 62, 2921 (1975).
   Na - Ar     : M. M. Francl, W. J. Pietro, W. J. Hehre, J. S. Binkley, M. S. Gordon, 
                 D. J. DeFrees and J. A. Pople, J. Chem. Phys. 77, 3654 (1982).
   K - Zn      : V. A. Rassolov, J. A. Pople, M. A. Ratner, and T. L. Windus, J. Chem. Phys. 109, 1223 (1998).

================================================================================
                                        WARNINGS
                       Please study these warnings very carefully!
================================================================================


================================================================================
                                       INPUT FILE
================================================================================
NAME = h-shift_003.inp
|  1> ! HF 6-31G
|  2> %maxcore 1200
|  3> %pal nprocs 8 end
|  4> * xyz 0 1
|  5> C   -0.02376400   0.01061400  -0.19158500
|  6> H    0.99029700   0.02004900  -0.57172900
|  7> C    2.59769000   0.00326600   1.55389500
|  8> C    2.06955400  -1.19521700   1.78305100
|  9> C    0.66634700  -1.60809600   1.62894100
| 10> C   -0.23350000  -1.11683300   0.77828300
| 11> H   -0.70304000  -0.06012600  -1.03085700
| 12> H   -0.19782700   0.97165100   0.28584100
| 13> H    2.01275200   0.85264700   1.26532800
| 14> H    3.65164700   0.17268800   1.66120300
| 15> H    2.72840900  -1.97820100   2.11926500
| 16> H    0.36700300  -2.43440600   2.25105500
| 17> H   -1.20979400  -1.57008200   0.76770000
| 18> *
| 19> 
| 20>                          ****END OF INPUT****
================================================================================

                       ****************************
                       * Single Point Calculation *
                       ****************************

---------------------------------
CARTESIAN COORDINATES (ANGSTROEM)
---------------------------------
  C     -0.023764    0.010614   -0.191585
  H      0.990297    0.020049   -0.571729
  C      2.597690    0.003266    1.553895
  C      2.069554   -1.195217    1.783051
  C      0.666347   -1.608096    1.628941
  C     -0.233500   -1.116833    0.778283
  H     -0.703040   -0.060126   -1.030857
  H     -0.197827    0.971651    0.285841
  H      2.012752    0.852647    1.265328
  H      3.651647    0.172688    1.661203
  H      2.728409   -1.978201    2.119265
  H      0.367003   -2.434406    2.251055
  H     -1.209794   -1.570082    0.767700

----------------------------
CARTESIAN COORDINATES (A.U.)
----------------------------
  NO LB      ZA    FRAG     MASS         X           Y           Z
   0 C     6.0000    0    12.011   -0.044907    0.020058   -0.362043
   1 H     1.0000    0     1.008    1.871390    0.037887   -1.080411
   2 C     6.0000    0    12.011    4.908923    0.006172    2.936436
   3 C     6.0000    0    12.011    3.910890   -2.258633    3.369478
   4 C     6.0000    0    12.011    1.259213   -3.038861    3.078252
   5 C     6.0000    0    12.011   -0.441251   -2.110509    1.470742
   6 H     1.0000    0     1.008   -1.328553   -0.113622   -1.948037
   7 H     1.0000    0     1.008   -0.373839    1.836154    0.540161
   8 H     1.0000    0     1.008    3.803550    1.611269    2.391123
   9 H     1.0000    0     1.008    6.900613    0.326333    3.139219
  10 H     1.0000    0     1.008    5.155946   -3.738258    4.004830
  11 H     1.0000    0     1.008    0.693535   -4.600361    4.253877
  12 H     1.0000    0     1.008   -2.286179   -2.967025    1.450743

--------------------------------
INTERNAL COORDINATES (ANGSTROEM)
--------------------------------
 C      0   0   0     0.000000000000     0.00000000     0.00000000
 H      1   0   0     1.083013477147     0.00000000     0.00000000
 C      2   1   0     2.665008689463   106.54258141     0.00000000
 C      3   2   1     1.329587006601    84.46600895    64.36345330
 C      4   3   2     1.470785111969   127.87550021   319.56822913
 C      5   4   3     1.332172282981   127.43236554    29.16672760
 H      1   2   3     1.082033974402   108.42859309   184.30955597
 H      1   2   3     1.087118038124   107.23963179    68.70304193
 H      3   2   1     1.070920846979    56.67725340   288.45149236
 H      3   2   1     1.072867269888   132.16733813   192.00860922
 H      4   3   2     1.077122884854   117.77954920   139.27918694
 H      5   4   3     1.076764076032   114.84194101   206.00106969
 H      6   5   4     1.076427717186   117.62221656   177.19616872

---------------------------
INTERNAL COORDINATES (A.U.)
---------------------------
 C      0   0   0     0.000000000000     0.00000000     0.00000000
 H      1   0   0     2.046598871154     0.00000000     0.00000000
 C      2   1   0     5.036136567606   106.54258141     0.00000000
 C      3   2   1     2.512555313695    84.46600895    64.36345330
 C      4   3   2     2.779381063470   127.87550021   319.56822913
 C      5   4   3     2.517440778034   127.43236554    29.16672760
 H      1   2   3     2.044747879218   108.42859309   184.30955597
 H      1   2   3     2.054355367300   107.23963179    68.70304193
 H      3   2   1     2.023747111897    56.67725340   288.45149236
 H      3   2   1     2.027425318136   132.16733813   192.00860922
 H      4   3   2     2.035467264954   117.77954920   139.27918694
 H      5   4   3     2.034789214544   114.84194101   206.00106969
 H      6   5   4     2.034153588443   117.62221656   177.19616872

---------------------
BASIS SET INFORMATION
---------------------
There are 2 groups of distinct atoms

 Group   1 Type C   : 10s4p contracted to 3s2p pattern {631/31}
 Group   2 Type H   : 4s contracted to 2s pattern {31}

Atom   0C    basis set group =>   1
Atom   1H    basis set group =>   2
Atom   2C    basis set group =>   1
Atom   3C    basis set group =>   1
Atom   4C    basis set group =>   1
Atom   5C    basis set group =>   1
Atom   6H    basis set group =>   2
Atom   7H    basis set group =>   2
Atom   8H    basis set group =>   2
Atom   9H    basis set group =>   2
Atom  10H    basis set group =>   2
Atom  11H    basis set group =>   2
Atom  12H    basis set group =>   2


           ************************************************************
           *        Program running with 8 parallel MPI-processes     *
           *              working on a common directory               *
           ************************************************************
------------------------------------------------------------------------------
                             ORCA STARTUP CALCULATIONS
------------------------------------------------------------------------------
------------------------------------------------------------------------------
                   ___                                                        
                  /   \      - P O W E R E D   B Y -                         
                 /     \                                                     
                 |  |  |   _    _      __       _____    __    __             
                 |  |  |  | |  | |    /  \     |  _  \  |  |  /  |          
                  \  \/   | |  | |   /    \    | | | |  |  | /  /          
                 / \  \   | |__| |  /  /\  \   | |_| |  |  |/  /          
                |  |  |   |  __  | /  /__\  \  |    /   |      \           
                |  |  |   | |  | | |   __   |  |    \   |  |\   \          
                \     /   | |  | | |  |  |  |  | |\  \  |  | \   \       
                 \___/    |_|  |_| |__|  |__|  |_| \__\ |__|  \__/        
                                                                              
                      - O R C A' S   B I G   F R I E N D -                    
                                      &                                       
                       - I N T E G R A L  F E E D E R -                       
                                                                              
 v1 FN, 2020, v2 2021, v3 2022-2024                                           
------------------------------------------------------------------------------


----------------------
SHARK INTEGRAL PACKAGE
----------------------

Number of atoms                             ...     13
Number of basis functions                   ...     61
Number of shells                            ...     41
Maximum angular momentum                    ...      1
Integral batch strategy                     ... SHARK/LIBINT Hybrid
RI-J (if used) integral strategy            ... SPLIT-RIJ (Revised 2003 algorithm where possible)
Printlevel                                  ...      1
Contraction scheme used                     ... SEGMENTED contraction
Prescreening option                         ... SCHWARTZ
   Thresh                                   ... 1.000e-10
   Tcut                                     ... 1.000e-11
   Tpresel                                  ... 1.000e-11 
Coulomb Range Separation                    ... NOT USED
Exchange Range Separation                   ... NOT USED
Multipole approximations                    ... NOT USED
Finite Nucleus Model                        ... NOT USED
CABS basis                                  ... NOT available
Auxiliary Coulomb fitting basis             ... NOT available
Auxiliary J/K fitting basis                 ... NOT available
Auxiliary Correlation fitting basis         ... NOT available
Auxiliary 'external' fitting basis          ... NOT available

Checking pre-screening integrals            ... done (  0.0 sec) Dimension = 41
   => SHARK Basis and OBASIS are compatible. Storing Pre-screening
Shell pair information
Shell pair cut-off parameter TPreSel        ...   1.0e-11
Total number of shell pairs                 ...       861
Shell pairs after pre-screening             ...       846
Total number of primitive shell pairs       ...      5382
Primitive shell pairs kept                  ...      3722
          la=0 lb=0:    481 shell pairs
          la=1 lb=0:    310 shell pairs
          la=1 lb=1:     55 shell pairs

Checking whether 4 symmetric matrices of dimension 61 fit in memory
:Max Core in MB      =   1200.00
 MB in use           =      2.04
 MB left             =   1197.96
 MB needed           =      0.06
 Data fit in memory  = YES
Calculating Nuclear repulsion               ... done (  0.0 sec) ENN=    160.094353956862 Eh

Diagonalization of the overlap matrix:
Smallest eigenvalue                        ... 3.370e-03
Time for diagonalization                   ...    0.001 sec
Threshold for overlap eigenvalues          ... 1.000e-07
Number of eigenvalues below threshold      ... 0
Time for construction of square roots      ...    0.001 sec
Total time needed                          ...    0.003 sec

-------------------
DFT GRID GENERATION
-------------------

General Integration Accuracy     IntAcc      ... 4.388
Radial Grid Type                 RadialGrid  ... OptM3 with GC (2021)
Angular Grid (max. ang.)         AngularGrid ... 4 (Lebedev-302)
Angular grid pruning method      GridPruning ... 4 (adaptive)
Weight generation scheme         WeightScheme... mBecke (2022)
Basis function cutoff            BFCut       ... 1.0000e-10
Integration weight cutoff        WCut        ... 1.0000e-14
Partially contracted basis set               ... off
Rotationally invariant grid construction     ... off
Angular grids for H and He will be reduced by one unit

Total number of grid points                  ...    56081
Total number of batches                      ...      882
Average number of points per batch           ...       63
Average number of grid points per atom       ...     4314
Grids setup in   0.2 sec
Initializing property integral containers    ... done (  0.0 sec)

SHARK setup successfully completed in   0.3 seconds

Maximum memory used throughout the entire STARTUP-calculation: 11.8 MB


           ************************************************************
           *        Program running with 8 parallel MPI-processes     *
           *              working on a common directory               *
           ************************************************************
-------------------------------------------------------------------------------
                                 ORCA GUESS
                   Start orbitals & Density for SCF / CASSCF
-------------------------------------------------------------------------------

------------
SCF SETTINGS
------------
Hamiltonian:
 Ab initio Hamiltonian  Method          .... Hartree-Fock(GTOs)


General Settings:
 Integral files         IntName         .... h-shift_003
 Hartree-Fock type      HFTyp           .... RHF
 Total Charge           Charge          ....    0
 Multiplicity           Mult            ....    1
 Number of Electrons    NEL             ....   38
 Basis Dimension        Dim             ....   61
 Nuclear Repulsion      ENuc            ....    160.0943539569 Eh

Convergence Acceleration:
 AO-DIIS                CNVDIIS         .... on
   Start iteration      DIISMaxIt       ....    12
   Startup error        DIISStart       ....  0.200000
   # of expansion vecs  DIISMaxEq       ....     5
   Bias factor          DIISBfac        ....   1.050
   Max. coefficient     DIISMaxC        ....  10.000
 MO-DIIS                CNVKDIIS        .... off
 Trust-Rad. Augm. Hess. CNVTRAH         .... auto
   Auto Start mean grad. ratio tolernc. ....  1.125000
   Auto Start start iteration           ....    50
   Auto Start num. interpolation iter.  ....    10
   Max. Number of Micro iterations      ....    24
   Max. Number of Macro iterations      .... Maxiter - #DIIS iter
   Number of Davidson start vectors     ....     2
   Converg. threshold    (grad. norm)   ....   5.000e-05
   Grad. Scal. Fac. for Micro threshold ....   0.100
   Minimum threshold for Micro iter.    ....   1.000e-02
   NR start threshold (gradient norm)   ....   1.000e-04
   Initial trust radius                 ....   0.400
   Minimum AH scaling param. (alpha)    ....   1.000
   Maximum AH scaling param. (alpha)    .... 1000.000
   Quad. conv. algorithm                .... NR
   White noise on init. David. guess    .... on
   Maximum white noise                  ....   0.010
   Pseudo random numbers                .... off
   Inactive MOs                         .... canonical
   Orbital update algorithm             .... Taylor
   Preconditioner                       .... Diag
   Full preconditioner red. dimension   ....   250
 SOSCF                 CNVSOSCF           .... on
   Start iteration     SOSCFMaxIt         ....   150
   Startup grad/error  SOSCFStart         ....  0.003300
   Hessian update      SOSCFHessUp        .... L-BFGS
   Autom. constraints  SOSCFAutoConstrain .... off
 Level Shifting         CNVShift        .... on
   Level shift para.    LevelShift      ....    0.2500
   Turn off err/grad.   ShiftErr        ....    0.0010
 Zerner damping         CNVZerner       .... off
 Static damping         CNVDamp         .... on
   Fraction old density DampFac         ....    0.7000
   Max. Damping (<1)    DampMax         ....    0.9800
   Min. Damping (>=0)   DampMin         ....    0.0000
   Turn off err/grad.   DampErr         ....    0.1000

SCF Procedure:
 Maximum # iterations   MaxIter         ....   125
 SCF integral mode      SCFMode         .... Direct
   Integral package                     .... SHARK and LIBINT hybrid scheme
 Reset frequency        DirectResetFreq ....    20
 Integral Threshold     Thresh          ....  1.000e-10 Eh
 Primitive CutOff       TCut            ....  1.000e-11 Eh

Convergence Tolerance:
 Convergence Check Mode ConvCheckMode   .... Total+1el-Energy
 Convergence forced     ConvForced      .... 0
 Energy Change          TolE            ....  1.000e-06 Eh
 1-El. energy change                    ....  1.000e-03 Eh
 Orbital Gradient       TolG            ....  5.000e-05
 Orbital Rotation angle TolX            ....  5.000e-05
 DIIS Error             TolErr          ....  1.000e-06

------------------------------
INITIAL GUESS: MODEL POTENTIAL
------------------------------
Loading Hartree-Fock densities                     ... done
Calculating cut-offs                               ... done
Initializing the effective Hamiltonian             ... done
Setting up the integral package (SHARK)            ... done
Starting the Coulomb interaction                   ... done (   0.0 sec)
Making the grid                                    ... done (   0.1 sec)
Mapping shells                                     ... done
Starting the XC term evaluation                    ... done (   0.0 sec)
Transforming the Hamiltonian                       ... done (   0.0 sec)
Diagonalizing the Hamiltonian                      ... done (   0.0 sec)
Back transforming the eigenvectors                 ... done (   0.0 sec)
Now organizing SCF variables                       ... done
                      ------------------
                      INITIAL GUESS DONE (   0.1 sec)
                      ------------------
             **** ENERGY FILE WAS UPDATED (h-shift_003.en.tmp) ****
Finished Guess after   0.3 sec
Maximum memory used throughout the entire GUESS-calculation: 4.2 MB


           ************************************************************
           *        Program running with 8 parallel MPI-processes     *
           *              working on a common directory               *
           ************************************************************

-------------------------------------------------------------------------------------------
                                      ORCA LEAN-SCF
                              memory conserving SCF solver
-------------------------------------------------------------------------------------------

----------------------------------------D-I-I-S--------------------------------------------
Iteration    Energy (Eh)           Delta-E    RMSDP     MaxDP     DIISErr   Damp  Time(sec)
-------------------------------------------------------------------------------------------
               ***  Starting incremental Fock matrix formation  ***
    1    -193.6475703986206440     0.00e+00  1.57e-02  5.37e-02  1.91e-01  0.700   0.0
    2    -193.7286732459219820    -8.11e-02  1.25e-02  4.08e-02  1.25e-01  0.700   0.1
                               ***Turning on AO-DIIS***
    3    -193.7788421787969924    -5.02e-02  7.71e-03  2.05e-02  7.46e-02  0.700   0.0
    4    -193.8105493151126097    -3.17e-02  1.83e-02  4.37e-02  5.05e-02  0.000   0.0
                              *** Initializing SOSCF ***
---------------------------------------S-O-S-C-F--------------------------------------
Iteration    Energy (Eh)           Delta-E    RMSDP     MaxDP     MaxGrad    Time(sec)
--------------------------------------------------------------------------------------
    5    -193.8791379957626191    -6.86e-02  1.69e-03  2.83e-03  2.82e-03     0.1
               *** Restarting incremental Fock matrix formation ***
    6    -193.8792581355256743    -1.20e-04  8.59e-04  1.82e-03  1.34e-03     0.0
    7    -193.8792929532152698    -3.48e-05  5.30e-04  1.18e-03  5.39e-04     0.0
    8    -193.8792995010231834    -6.55e-06  6.94e-05  1.87e-04  1.32e-04     0.0
    9    -193.8792997109939051    -2.10e-07  3.14e-05  7.78e-05  3.58e-05     0.0
                 **** Energy Check signals convergence ****

               *****************************************************
               *                     SUCCESS                       *
               *           SCF CONVERGED AFTER   9 CYCLES          *
               *****************************************************

             **** ENERGY FILE WAS UPDATED (h-shift_003.en.tmp) ****

----------------
TOTAL SCF ENERGY
----------------

Total Energy       :       -193.87929976589305 Eh           -5275.72396 eV

Components:
Nuclear Repulsion  :        160.09435395686165 Eh            4356.38885 eV
Electronic Energy  :       -353.97365372275470 Eh           -9632.11280 eV
One Electron Energy:       -577.15158667104026 Eh          -15705.09310 eV
Two Electron Energy:        223.17793294828556 Eh            6072.98030 eV

Virial components:
Potential Energy   :       -388.03228271242745 Eh          -10558.89522 eV
Kinetic Energy     :        194.15298294653437 Eh            5283.17126 eV
Virial Ratio       :          1.99859037354725

---------------
SCF CONVERGENCE
---------------

  Last Energy change         ...    2.0997e-07  Tolerance :   1.0000e-06
  Last MAX-Density change    ...    7.7842e-05  Tolerance :   1.0000e-05
  Last RMS-Density change    ...    3.1374e-05  Tolerance :   1.0000e-06
  Last DIIS Error            ...    2.8168e-03  Tolerance :   1.0000e-06
  Last Orbital Gradient      ...    3.5770e-05  Tolerance :   5.0000e-05
  Last Orbital Rotation      ...    3.5502e-05  Tolerance :   5.0000e-05


----------------
ORBITAL ENERGIES
----------------

  NO   OCC          E(Eh)            E(eV) 
   0   2.0000     -11.236108      -305.7500 
   1   2.0000     -11.235238      -305.7264 
   2   2.0000     -11.227473      -305.5151 
   3   2.0000     -11.222011      -305.3664 
   4   2.0000     -11.216276      -305.2104 
   5   2.0000      -1.098802       -29.8999 
   6   2.0000      -1.022328       -27.8190 
   7   2.0000      -0.940920       -25.6037 
   8   2.0000      -0.814931       -22.1754 
   9   2.0000      -0.715713       -19.4755 
  10   2.0000      -0.666298       -18.1309 
  11   2.0000      -0.605292       -16.4708 
  12   2.0000      -0.585091       -15.9211 
  13   2.0000      -0.567103       -15.4317 
  14   2.0000      -0.539534       -14.6815 
  15   2.0000      -0.506609       -13.7855 
  16   2.0000      -0.468878       -12.7588 
  17   2.0000      -0.413662       -11.2563 
  18   2.0000      -0.315594        -8.5878 
  19   0.0000       0.132207         3.5975 
  20   0.0000       0.234657         6.3853 
  21   0.0000       0.254281         6.9194 
  22   0.0000       0.262833         7.1520 
  23   0.0000       0.291709         7.9378 
  24   0.0000       0.318663         8.6713 
  25   0.0000       0.337896         9.1946 
  26   0.0000       0.346039         9.4162 
  27   0.0000       0.357227         9.7206 
  28   0.0000       0.367291         9.9945 
  29   0.0000       0.426819        11.6143 
*Only the first 10 virtual orbitals were printed.

                    ********************************
                    * MULLIKEN POPULATION ANALYSIS *
                    ********************************

-----------------------
MULLIKEN ATOMIC CHARGES
-----------------------
   0 C :   -0.505658
   1 H :    0.179887
   2 C :   -0.360241
   3 C :   -0.150513
   4 C :   -0.195940
   5 C :   -0.149139
   6 H :    0.159889
   7 H :    0.170082
   8 H :    0.170696
   9 H :    0.162001
  10 H :    0.173668
  11 H :    0.173369
  12 H :    0.171898
Sum of atomic charges:    0.0000000

--------------------------------
MULLIKEN REDUCED ORBITAL CHARGES
--------------------------------
  0 C s       :     3.366077  s :     3.366077
      pz      :     1.027777  p :     3.139581
      px      :     1.111301
      py      :     1.000502

  1 H s       :     0.820113  s :     0.820113

  2 C s       :     3.265400  s :     3.265400
      pz      :     1.019825  p :     3.094840
      px      :     1.080436
      py      :     0.994579

  3 C s       :     3.193851  s :     3.193851
      pz      :     0.999367  p :     2.956662
      px      :     0.962585
      py      :     0.994710

  4 C s       :     3.192037  s :     3.192037
      pz      :     1.018202  p :     3.003903
      px      :     0.920727
      py      :     1.064975

  5 C s       :     3.209427  s :     3.209427
      pz      :     0.946191  p :     2.939712
      px      :     1.038291
      py      :     0.955230

  6 H s       :     0.840111  s :     0.840111

  7 H s       :     0.829918  s :     0.829918

  8 H s       :     0.829304  s :     0.829304

  9 H s       :     0.837999  s :     0.837999

 10 H s       :     0.826332  s :     0.826332

 11 H s       :     0.826631  s :     0.826631

 12 H s       :     0.828102  s :     0.828102



                     *******************************
                     * LOEWDIN POPULATION ANALYSIS *
                     *******************************

----------------------
LOEWDIN ATOMIC CHARGES
----------------------
   0 C :   -0.318388
   1 H :    0.123160
   2 C :   -0.244291
   3 C :   -0.114285
   4 C :   -0.149064
   5 C :   -0.109132
   6 H :    0.111767
   7 H :    0.117227
   8 H :    0.117175
   9 H :    0.116411
  10 H :    0.116488
  11 H :    0.117076
  12 H :    0.115856

-------------------------------
LOEWDIN REDUCED ORBITAL CHARGES
-------------------------------
  0 C s       :     2.975925  s :     2.975925
      pz      :     1.103779  p :     3.342464
      px      :     1.144069
      py      :     1.094615

  1 H s       :     0.876840  s :     0.876840

  2 C s       :     2.988240  s :     2.988240
      pz      :     1.035075  p :     3.256051
      px      :     1.113420
      py      :     1.107556

  3 C s       :     2.945040  s :     2.945040
      pz      :     0.987935  p :     3.169245
      px      :     1.070634
      py      :     1.110676

  4 C s       :     2.940107  s :     2.940107
      pz      :     1.073118  p :     3.208957
      px      :     1.065011
      py      :     1.070828

  5 C s       :     2.950982  s :     2.950982
      pz      :     1.032058  p :     3.158150
      px      :     1.094944
      py      :     1.031148

  6 H s       :     0.888233  s :     0.888233

  7 H s       :     0.882773  s :     0.882773

  8 H s       :     0.882825  s :     0.882825

  9 H s       :     0.883589  s :     0.883589

 10 H s       :     0.883512  s :     0.883512

 11 H s       :     0.882924  s :     0.882924

 12 H s       :     0.884144  s :     0.884144



                      *****************************
                      * MAYER POPULATION ANALYSIS *
                      *****************************

  NA   - Mulliken gross atomic population
  ZA   - Total nuclear charge
  QA   - Mulliken gross atomic charge
  VA   - Mayer's total valence
  BVA  - Mayer's bonded valence
  FA   - Mayer's free valence

  ATOM       NA         ZA         QA         VA         BVA        FA
  0 C      6.5057     6.0000    -0.5057     3.7722     3.7722     0.0000
  1 H      0.8201     1.0000     0.1799     0.9313     0.9313     0.0000
  2 C      6.3602     6.0000    -0.3602     3.8476     3.8476    -0.0000
  3 C      6.1505     6.0000    -0.1505     3.8087     3.8087     0.0000
  4 C      6.1959     6.0000    -0.1959     3.8282     3.8282     0.0000
  5 C      6.1491     6.0000    -0.1491     3.7709     3.7709    -0.0000
  6 H      0.8401     1.0000     0.1599     0.9316     0.9316     0.0000
  7 H      0.8299     1.0000     0.1701     0.9228     0.9228     0.0000
  8 H      0.8293     1.0000     0.1707     0.9396     0.9396    -0.0000
  9 H      0.8380     1.0000     0.1620     0.9440     0.9440     0.0000
 10 H      0.8263     1.0000     0.1737     0.9372     0.9372     0.0000
 11 H      0.8266     1.0000     0.1734     0.9389     0.9389     0.0000
 12 H      0.8281     1.0000     0.1719     0.9389     0.9389     0.0000

  Mayer bond orders larger than 0.100000
B(  0-C ,  1-H ) :   0.9469 B(  0-C ,  5-C ) :   0.9561 B(  0-C ,  6-H ) :   0.9591 
B(  0-C ,  7-H ) :   0.9451 B(  2-C ,  3-C ) :   1.8845 B(  2-C ,  8-H ) :   0.9620 
B(  2-C ,  9-H ) :   0.9627 B(  3-C ,  4-C ) :   1.0423 B(  3-C , 10-H ) :   0.9576 
B(  4-C ,  5-C ) :   1.8883 B(  4-C , 11-H ) :   0.9570 B(  5-C , 12-H ) :   0.9586 


-------
TIMINGS
-------

Total SCF time: 0 days 0 hours 0 min 0 sec 

Total time                  ....       0.688 sec
Sum of individual times     ....       0.647 sec  ( 94.0%)

SCF preparation             ....       0.256 sec  ( 37.2%)
Fock matrix formation       ....       0.336 sec  ( 48.8%)
  Startup                   ....       0.001 sec  (  0.4% of F)
  Coulomb+Exchange Fock     ....       0.354 sec  (105.3% of F)
Diagonalization             ....       0.000 sec  (  0.0%)
Density matrix formation    ....       0.008 sec  (  1.1%)
Total Energy calculation    ....       0.005 sec  (  0.7%)
Population analysis         ....       0.005 sec  (  0.7%)
Orbital Transformation      ....       0.005 sec  (  0.7%)
Orbital Orthonormalization  ....       0.000 sec  (  0.0%)
DIIS solution               ....       0.020 sec  (  3.0%)
SOSCF solution              ....       0.013 sec  (  1.9%)
Finished LeanSCF after   0.7 sec

Maximum memory used throughout the entire LEANSCF-calculation: 6.4 MB

-------------------------   --------------------
FINAL SINGLE POINT ENERGY      -193.879299765893
-------------------------   --------------------



           ************************************************************
           *        Program running with 8 parallel MPI-processes     *
           *              working on a common directory               *
           ************************************************************

------------------------------------------------------------------------------
                              ORCA PROPERTY CALCULATIONS
------------------------------------------------------------------------------

GBWName                                 ... h-shift_003.gbw
Number of atoms                         ...     13
Number of basis functions               ...     61
Max core memory                         ...   1200 MB

Electric properties:
Dipole moment                           ... YES
Quadrupole moment                       ...  NO
Static polarizability (Dipole/Dipole)   ...  NO
Static polarizability (Dipole/Quad.)    ...  NO
Static polarizability (Quad./Quad.)     ...  NO
Static polarizability (Velocity)        ...  NO
Static hyperpolarizability              ...  NO

Atomic electric properties:
Dipole moment                           ...  NO
Quadrupole moment                       ...  NO
Static polarizability                   ...  NO

Choice of electric origin               ... Center of mass
Position of electric origin             ...     1.905076    -1.414157     2.038834

General magnetic properties:
Magnetizability                         ...  NO

EPR properties:
g-Tensor (aka g-matrix)                 ...  NO
Zero-Field splitting spin-orbit         ...  NO
Zero-field splitting spin-spin          ...  NO
Hyperfine couplings                     ...  NO (   0 nuclei)
Quadrupole couplings                    ...  NO (   0 nuclei)
Contact density                         ...  NO (   0 nuclei)

NMR properties:
Chemical shifts                         ...  NO (   0 nuclei)
Spin-rotation constants                 ...  NO (   0 nuclei)
Spin-spin couplings                     ...  NO (   0 nuclei,    0 pairs)

Choice of magnetic origin               ... GIAO
Position of magnetic origin             ...     0.000000     0.000000     0.000000

Properties with geometric perturbations:
SCF Hessian                             ...  NO
IR spectrum                             ...  NO
VCD spectrum                            ...  NO
X-ray spectroscopy properties:
SCF XES/XAS/RIXS spectra                ...  NO

SCF SOC stabilization energy            ...  NO
Diagonal Born-Oppenheimer correction    ...  NO

-------------
DIPOLE MOMENT
-------------

Method             : SCF
Type of density    : Electron Density
Multiplicity       :   1
Irrep              :   0
Energy             :  -193.8792997658930517 Eh
Basis              : AO
                                X                 Y                 Z
Electronic contribution:      0.336393710      -1.813179416       1.679963442
Nuclear contribution   :     -0.399228286       1.839704875      -1.766988643
                        -----------------------------------------
Total Dipole Moment    :     -0.062834576       0.026525459      -0.087025202
                        -----------------------------------------
Magnitude (a.u.)       :      0.110567489
Magnitude (Debye)      :      0.281040223



--------------------
Rotational spectrum 
--------------------
 
Rotational constants in cm-1:             0.290976             0.134445             0.095210 
Rotational constants in MHz :          8723.246990          4030.574180          2854.317540 

Dipole components along the rotational axes: 
x,y,z [a.u.] :     0.098329     0.044518    -0.023974 
x,y,z [Debye]:     0.249932     0.113156    -0.060936 

 

Dipole moment calculation done in   0.0 sec 

Maximum memory used throughout the entire PROP-calculation: 2.2 MB

--------------------------------
SUGGESTED CITATIONS FOR THIS RUN
--------------------------------

Below you find a list of papers that are relevant to this ORCA run
We neither can nor want to force you to cite these papers, but we appreciate if you do
You receive ORCA, which is the product of decades of hard work by many enthusiastic individuals, for free
The only thing we kindly ask in return is that you cite our papers,
We deeply appreciate it, if you show your appreciation for ORCA by not just citing the generic ORCA reference.

Please note that relegating all ORCA citations to the supporting information does *not* help us.
SI sections are not indexed - citations you put there will not count into any citation statistics
But we need these citations in order to attract the funding resources that allow us to do what we are doing

Therefore, if you are a happy ORCA user, please consider citing a few of the papers listed below in the main body of your paper

In addition to the list printed below, the program has created the file h-shift_003.bibtex that contains the list in bibtex format
You can import this file easily into all common literature databanks and citation aid programs


List of essential papers. We consider these as the minimum necessary citations

  1. Neese, F.
     Software update: the ORCA program system, version 6.0
     WIRES Comput. Molec. Sci. 2025 15(1), e70019
     doi.org/10.1002/wcms.7019

List of papers to cite with high priority. The work reported in these papers was absolutely
necessary for this run to complete.
Our perspective: the developers of density functionals and basis sets usually get cited in chemistry papers
Good! But without the algorithms to do something with them, the functionals or basis sets would not do anything.
Hence, in our opinion, the algorithm design and method developments papers are equally worthy of getting cited

  1. Neese, F.
     The SHARK Integral Generation and Digestion System
     J. Comp. Chem. 2022 44(3), 381
     doi.org/10.1002/jcc.26942

List of suggested additional citations. These are papers that are important in the 'surrounding' of 
of this run, or papers that preceded the highly important papers. If you like your results we are grateful for a citation.

  1. Neese, F.
     The ORCA program system
     WIRES Comput. Molec. Sci. 2012 2(1), 73-78
     doi.org/10.1002/wcms.81
  2. Neese, F.
     Software update: the ORCA program system, version 4.0
     WIRES Comput. Molec. Sci. 2018 8(1), 1-6
     doi.org/10.1002/wcms.1327
  3. Neese, F.; Wennmohs, F.; Becker, U.; Riplinger, C.
     The ORCA quantum chemistry program package
     J. Chem. Phys. 2020 152(22), 224108
     doi.org/10.1063/5.0004608
  4. Neese, F.
     Software update: The ORCA program system—Version 5.0
     WIRES Comput. Molec. Sci. 2022 12(1), e1606
     doi.org/10.1002/wcms.1606

List of optional additional citations

  1. Neese, F.
     Approximate second-order SCF convergence for spin unrestricted wavefunctions
     Chem. Phys. Lett. 2000 325(1-3), 93-98
     doi.org/10.1016/s0009-2614(00)00662-x

Timings for individual modules:

Sum of individual times          ...        2.323 sec (=   0.039 min)
Startup calculation              ...        0.680 sec (=   0.011 min)  29.3 %
SCF iterations                   ...        1.280 sec (=   0.021 min)  55.1 %
Property calculations            ...        0.362 sec (=   0.006 min)  15.6 %
                             ****ORCA TERMINATED NORMALLY****
TOTAL RUN TIME: 0 days 0 hours 0 minutes 2 seconds 760 msec
