
                                 *****************
                                 * O   R   C   A *
                                 *****************

                                            #,                                       
                                            ###                                      
                                            ####                                     
                                            #####                                    
                                            ######                                   
                                           ########,                                 
                                     ,,################,,,,,                         
                               ,,#################################,,                 
                          ,,##########################################,,             
                       ,#########################################, ''#####,          
                    ,#############################################,,   '####,        
                  ,##################################################,,,,####,       
                ,###########''''           ''''###############################       
              ,#####''   ,,,,##########,,,,          '''####'''          '####       
            ,##' ,,,,###########################,,,                        '##       
           ' ,,###''''                  '''############,,,                           
         ,,##''                                '''############,,,,        ,,,,,,###''
      ,#''                                            '''#######################'''  
     '                                                          ''''####''''         
             ,#######,   #######,   ,#######,      ##                                
            ,#'     '#,  ##    ##  ,#'     '#,    #''#        ,####,    ,#,          
            ##       ##  ##   ,#'  ##            #'  '#       #'       ,# #          
            ##       ##  #######   ##           ,######,      #####,      #          
            '#,     ,#'  ##    ##  '#,     ,#' ,#      #,     #,   #      #          
             '#######'   ##     ##  '#######'  #'      '#     '####' #    #          



                #########################################################
                #                        -***-                          #
                #          Department of theory and spectroscopy        #
                #                                                       #
                #                      Frank Neese                      #
                #                                                       #
                #     Directorship, Architecture, Infrastructure        #
                #                    SHARK, DRIVERS                     #
                #        Core code/Algorithms in most modules           #
                #                                                       #
                #        Max Planck Institute fuer Kohlenforschung      #
                #                Kaiser Wilhelm Platz 1                 #
                #                 D-45470 Muelheim/Ruhr                 #
                #                      Germany                          #
                #                                                       #
                #                  All rights reserved                  #
                #                        -***-                          #
                #########################################################


                         Program Version 6.1.0  -  RELEASE   -
                                (GIT: $679e74b$)
                          ($2025-06-10 18:02:51 +0200$)


 With contributions from (in alphabetic order):
[Max-Planck-Institut fuer Kohlenforschung]                               
  Daniel Aravena         : Magnetic Suceptibility                        
  Michael Atanasov       : Ab Initio Ligand Field Theory (pilot matlab implementation)
  Alexander A. Auer      : GIAO ZORA, VPT2 properties, NMR spectrum      
  Ute Becker             : All parallelization in ORCA, NUMFREQ, NUMCALC 
  Giovanni Bistoni       : ED, misc. LED, open-shell LED, HFLD           
  Dmytro Bykov           : pre 5.0 version of the SCF Hessian            
  Marcos Casanova-Páez   : Triplet and SCS-CIS(D). UHF-(DLPNO)-IP/EA/STEOM-CCSD. UHF-CVS-IP/STEOM-CCSD   
  Vijay G. Chilkuri      : MRCI spin determinant printing, contributions to CSF-ICE 
  Pauline Colinet        : FMM embedding                                 
  Dipayan Datta          : RHF DLPNO-CCSD density                        
  Achintya Kumar Dutta   : EOM-CC, STEOM-CC                              
  Nicolas Foglia         : Exact transition moments, OPA infrastructure, MCD improvements    
  Dmitry Ganyushin       : Spin-Orbit,Spin-Spin,Magnetic field MRCI      
  Miquel Garcia-Rates    : C-PCM and meta-GGA Hessian, CCSD/C-PCM, Gaussian charge scheme 
  Tiago L. C. Gouveia    : GS-ROHF, GS-ROCIS                             
  Yang Guo               : DLPNO-NEVPT2, F12-NEVPT2, CIM, IAO-localization        
  Andreas Hansen         : Spin unrestricted coupled pair/coupled cluster methods 
  Ingolf Harden          : AUTO-CI MPn and infrastructure                
  Benjamin Helmich-Paris : MC-RPA, TRAH-(SCF,CASSCF), AVAS, COSX integrals, SCF dyn. polar., MC-PDFT, srDFT 
  Lee Huntington         : MR-EOM, pCC                                   
  Robert Izsak           : Overlap fitted RIJCOSX, COSX-SCS-MP3, EOM     
  Riya Kayal             : Wick's Theorem for AUTO-CI, AUTO-CI UHF-CCSDT 
  Emily Kempfer          : AUTO-CI RHF CISDT and CCSDT, approximate NEVPT4
  Christian Kollmar      : KDIIS, OOCD, Brueckner-CCSD(T), CCSD density, CASPT2, CASPT2-K, improved NEVPT2 
  Axel Koslowski         : Symmetry handling                             
  Simone Kossmann        : meta-GGA functionals, TD-DFT gradient, OOMP2, (MP2 Hessian; deprecated post 5.0) 
  Lucas Lang             : DCDCAS, Hyperfine gauge corrections, ICE-SOC+SSC
  Marvin Lechner         : AUTO-CI (C++ implementation), FIC-MRCC        
  Spencer Leger          : CASSCF response                               
  Dagmar Lenk            : GEPOL surface, SMD, ORCA-2-JSON               
  Dimitrios Liakos       : Extrapolation schemes; Compound Job, Property file
  Dimitrios Manganas     : Further ROCIS development; embedding schemes. LFT, Crystal Embedding 
  Dimitrios Pantazis     : SARC Basis sets                               
  Anastasios Papadopoulos: AUTO-CI, single reference methods and gradients 
  Taras Petrenko         : pre 6.0 DFT Hessian and TD-DFT gradient,  ECA, NRVS 
  Petra Pikulova         : Analytic Raman intensities                    
  Peter Pinski           : DLPNO-MP2, DLPNO-MP2 Gradient                 
  Shashank Vittal Rao    : ES-AILFT, MagRelax                            
  Christoph Reimann      : Effective Core Potentials                     
  Marius Retegan         : Local ZFS, SOC                                
  Christoph Riplinger    : Optimizer, TS searches, QM/MM, DLPNO-CCSD(T), (RO)-DLPNO pert. Triples 
  Michael Roemelt        : Original ROCIS implementation, recursive CI coupling coefficients
  Masaaki Saitow         : Open-shell DLPNO-CCSD energy and density      
  Barbara Sandhoefer     : DKH picture change effects                    
  Yorick L. A. Schmerwitz: GMF and freeze-and-release deltaSCF, NEB S-IDPP initial path                    
  Kantharuban Sivalingam : CASSCF convergence/infrastructure, NEVPT2, NEVPT3, NEVPT4(SD), FIC-MRCI and CEPA variants
  Bernardo de Souza      : ESD, SOC TD-DFT                               
  Georgi L. Stoychev     : AutoAux, RI-MP2 NMR, DLPNO-MP2 response, X2C  
  Van Anh Tran           : RI-MP2 g-tensors                              
  Willem Van den Heuvel  : Paramagnetic NMR                              
  Zikuan Wang            : NOTCH, Electric field optimization            
  Frank Wennmohs         : Technical directorship and infrastructure     
  Hang Xu                : AUTO-CI-Response properties                   
                                                                         
[FACCTs GmbH]                                                            
  Markus Bursch, Nicolas Foglia, Miquel Garcia-Rates, Ingolf Harden, Hagen Neugebauer, Anastasios Papadopoulos, 
  Christoph Riplinger, Bernardo de Souza, Georgi L. Stoychev                                                    
                                                                 
  APM, various basis sets, CI-OPT, improved COSX, DLPNO-Multilevel,           
  DOCKER, DRACO, updates on ESD, Fragmentator, GOAT, IRC, LR-CPCM, L-BFGS, MBIS, meta-GGA TD-DFT gradient, ML-optimized integration grids, 
  MM, NACMEs, nearIR, NEB, NEB-TS, NL-DFT gradient (VV10), 2- and 3-layer-ONIOM, interface openCOSMO-RS, QMMM,   
  Crystal-QMMM, RESP, rigid body optimization, SF, symmetry and pop. for TD-DFT, various functionals, SOLVATOR                                   
                                                                         
[Other institutions]                                                     
  V. Asgeirsson          : NEB                                           
  Christoph Bannwarth    : sTDA-DFT, sTD-DFT, PBEh-3c, B97-3c, D3        
  Giovanni Bistoni       : ETS/NOCV, ADLD/ADEX, COVALED                  
  Martin Brehm           : Molecular dynamics                            
  Ronald Cardenas        : ETS/NOCV                                      
  Martina Colucci        : COVALED                                       
  Sebastian Ehlert       : rSCAN, r2SCAN, r2SCAN-3c, D4, dhf basis sets  
  Marvin Friede          : D4 for Fr, Ra, Ac-Lr                          
  Lars Goerigk           : TD-DFT with DH, B97 family of functionals     
  Stefan Grimme          : VdW corrections, initial TS optimization, DFT functionals, gCP, sTDA/sTD-DF 
  Waldemar Hujo          : DFT-NL                                        
  H. Jonsson             : NEB                                           
  Holger Kruse           : gCP                                           
  Marcel Mueller         : wB97X-3c, vDZP basis set                      
  Hagen Neugebauer       : wr2SCAN, Native XTB                           
  Gianluca Regni         : ADLD/ADEX                                     
  Tobias Risthaus        : pre 6.0 range-separated hybrid DFT and stability analysis
  Lukas Wittmann         : regularized MP2, r2SCAN double-hybrids, wr2SCAN        
                                                                         
We gratefully acknowledge several colleagues who have allowed us to      
interface, adapt or use parts of their codes:                            
  Ed Valeev, F. Pavosevic, A. Kumar             : LibInt (2-el integral package), F12 methods 
  Garnet Chan, S. Sharma, J. Yang, R. Olivares  : DMRG                   
  Ulf Ekstrom                                   : XCFun DFT Library      
  Mihaly Kallay                                 : mrcc  (arbitrary order and MRCC methods)
  Frank Weinhold                                : gennbo (NPA and NBO analysis)           
  Simon Mueller                                 : openCOSMO-RS                            
  Christopher J. Cramer and Donald G. Truhlar   : smd solvation model                     
  S Lehtola, MJT Oliveira, MAL Marques          : LibXC Library                           
  Liviu Ungur et al                             : ANISO software                          


 Your calculation uses the libint2 library for the computation of 2-el integrals
 For citations please refer to: http://libint.valeyev.net

 Your ORCA version has been built with support for libXC version: 7.0.0
 For citations please refer to: https://libxc.gitlab.io

 This ORCA versions uses:
   CBLAS   interface :  Fast vector & matrix operations
   LAPACKE interface :  Fast linear algebra routines
   SCALAPACK package :  Parallel linear algebra routines
   Shared memory     :  Shared parallel matrices
   BLAS/LAPACK       :  OpenBLAS 0.3.29  USE64BITINT DYNAMIC_ARCH NO_AFFINITY Zen SINGLE_THREADED
        Core in use  :  Zen
   Copyright (c) 2011-2014, The OpenBLAS Project


  ***********************************
  * Starting time: Sun Apr  5 13:01:32 2026
  * Host name:     QC1
  * Process ID:    8901
  * Working dir.:  /home/user/QC/h-shift/split_2
  ***********************************

NOTE: MaxCore=1200 MB was set to SCF,MP2,MDCI,CIPSI,MRCI,RASCI and CIS
      => If you want to overwrite this, your respective input block should be placed after the MaxCore statement
================================================================================

----- Orbital basis set information -----
Your calculation utilizes the basis: 6-31G
   H-He, Li-Ne : W. J. Hehre, R. Ditchfield and J.A. Pople, J. Chem. Phys. 56, 2257 (1972).
                 Note: He and Ne are unpublished basis sets taken from the Gaussian program.
                 Note: Li and B from J. D. Dill and J. A. Pople, J. Chem. Phys. 62, 2921 (1975).
   Na - Ar     : M. M. Francl, W. J. Pietro, W. J. Hehre, J. S. Binkley, M. S. Gordon, 
                 D. J. DeFrees and J. A. Pople, J. Chem. Phys. 77, 3654 (1982).
   K - Zn      : V. A. Rassolov, J. A. Pople, M. A. Ratner, and T. L. Windus, J. Chem. Phys. 109, 1223 (1998).

================================================================================
                                        WARNINGS
                       Please study these warnings very carefully!
================================================================================


================================================================================
                                       INPUT FILE
================================================================================
NAME = h-shift_045.inp
|  1> ! HF 6-31G
|  2> %maxcore 1200
|  3> %pal nprocs 8 end
|  4> * xyz 0 1
|  5> C    0.04361300   0.00820800  -0.02622500
|  6> H    1.32768000  -0.04880600  -0.03116400
|  7> C    2.37721600   0.01142600   1.19828300
|  8> C    1.89499300  -1.12301200   1.83498000
|  9> C    0.56632700  -1.58421200   1.76799400
| 10> C   -0.27260200  -1.14330300   0.77000600
| 11> H   -0.49203000   0.06902500  -0.97098000
| 12> H    0.03582000   0.97171300   0.46967500
| 13> H    1.92518900   0.96699600   1.35020600
| 14> H    3.42040200   0.06302300   0.97766800
| 15> H    2.61011300  -1.81690800   2.23548600
| 16> H    0.31929100  -2.48851600   2.28646100
| 17> H   -1.04023700  -1.81768000   0.43800100
| 18> *
| 19> 
| 20>                          ****END OF INPUT****
================================================================================

                       ****************************
                       * Single Point Calculation *
                       ****************************

---------------------------------
CARTESIAN COORDINATES (ANGSTROEM)
---------------------------------
  C      0.043613    0.008208   -0.026225
  H      1.327680   -0.048806   -0.031164
  C      2.377216    0.011426    1.198283
  C      1.894993   -1.123012    1.834980
  C      0.566327   -1.584212    1.767994
  C     -0.272602   -1.143303    0.770006
  H     -0.492030    0.069025   -0.970980
  H      0.035820    0.971713    0.469675
  H      1.925189    0.966996    1.350206
  H      3.420402    0.063023    0.977668
  H      2.610113   -1.816908    2.235486
  H      0.319291   -2.488516    2.286461
  H     -1.040237   -1.817680    0.438001

----------------------------
CARTESIAN COORDINATES (A.U.)
----------------------------
  NO LB      ZA    FRAG     MASS         X           Y           Z
   0 C     6.0000    0    12.011    0.082417    0.015511   -0.049558
   1 H     1.0000    0     1.008    2.508952   -0.092230   -0.058891
   2 C     6.0000    0    12.011    4.492287    0.021592    2.264427
   3 C     6.0000    0    12.011    3.581018   -2.122185    3.467610
   4 C     6.0000    0    12.011    1.070203   -2.993727    3.341024
   5 C     6.0000    0    12.011   -0.515143   -2.160530    1.455100
   6 H     1.0000    0     1.008   -0.929802    0.130438   -1.834886
   7 H     1.0000    0     1.008    0.067690    1.836271    0.887557
   8 H     1.0000    0     1.008    3.638080    1.827358    2.551520
   9 H     1.0000    0     1.008    6.463623    0.119096    1.847525
  10 H     1.0000    0     1.008    4.932399   -3.433459    4.224456
  11 H     1.0000    0     1.008    0.603373   -4.702614    4.320785
  12 H     1.0000    0     1.008   -1.965763   -3.434917    0.827702

--------------------------------
INTERNAL COORDINATES (ANGSTROEM)
--------------------------------
 C      0   0   0     0.000000000000     0.00000000     0.00000000
 H      1   0   0     1.285341608447     0.00000000     0.00000000
 C      2   1   0     1.617619743614   130.06075334     0.00000000
 C      3   2   1     1.387397443915    95.32665898    60.74022914
 C      4   3   2     1.408029084839   125.02818629   331.11284430
 C      5   4   3     1.376293087052   120.31562288    17.92615671
 H      1   2   3     1.087738084726   119.41236555   172.81694821
 H      1   2   3     1.083660198528    92.77313617    57.79851603
 H      3   2   1     1.067952729084    82.34635863   299.83370744
 H      3   2   1     1.067506561680   118.60453791   187.11773183
 H      4   3   2     1.073914954385   117.90631336   137.42843263
 H      5   4   3     1.071261191214   118.10450300   178.60770085
 H      6   5   4     1.074371979986   117.29157930   149.80637210

---------------------------
INTERNAL COORDINATES (A.U.)
---------------------------
 C      0   0   0     0.000000000000     0.00000000     0.00000000
 H      1   0   0     2.428943628499     0.00000000     0.00000000
 C      2   1   0     3.056858304254   130.06075334     0.00000000
 C      3   2   1     2.621801207902    95.32665898    60.74022914
 C      4   3   2     2.660789358941   125.02818629   331.11284430
 C      5   4   3     2.600817014537   120.31562288    17.92615671
 H      1   2   3     2.055527085568   119.41236555   172.81694821
 H      1   2   3     2.047820997449    92.77313617    57.79851603
 H      3   2   1     2.018138181943    82.34635863   299.83370744
 H      3   2   1     2.017295047739   118.60453791   187.11773183
 H      4   3   2     2.029405154910   117.90631336   137.42843263
 H      5   4   3     2.024390269292   118.10450300   178.60770085
 H      6   5   4     2.030268808132   117.29157930   149.80637210

---------------------
BASIS SET INFORMATION
---------------------
There are 2 groups of distinct atoms

 Group   1 Type C   : 10s4p contracted to 3s2p pattern {631/31}
 Group   2 Type H   : 4s contracted to 2s pattern {31}

Atom   0C    basis set group =>   1
Atom   1H    basis set group =>   2
Atom   2C    basis set group =>   1
Atom   3C    basis set group =>   1
Atom   4C    basis set group =>   1
Atom   5C    basis set group =>   1
Atom   6H    basis set group =>   2
Atom   7H    basis set group =>   2
Atom   8H    basis set group =>   2
Atom   9H    basis set group =>   2
Atom  10H    basis set group =>   2
Atom  11H    basis set group =>   2
Atom  12H    basis set group =>   2


           ************************************************************
           *        Program running with 8 parallel MPI-processes     *
           *              working on a common directory               *
           ************************************************************
------------------------------------------------------------------------------
                             ORCA STARTUP CALCULATIONS
------------------------------------------------------------------------------
------------------------------------------------------------------------------
                   ___                                                        
                  /   \      - P O W E R E D   B Y -                         
                 /     \                                                     
                 |  |  |   _    _      __       _____    __    __             
                 |  |  |  | |  | |    /  \     |  _  \  |  |  /  |          
                  \  \/   | |  | |   /    \    | | | |  |  | /  /          
                 / \  \   | |__| |  /  /\  \   | |_| |  |  |/  /          
                |  |  |   |  __  | /  /__\  \  |    /   |      \           
                |  |  |   | |  | | |   __   |  |    \   |  |\   \          
                \     /   | |  | | |  |  |  |  | |\  \  |  | \   \       
                 \___/    |_|  |_| |__|  |__|  |_| \__\ |__|  \__/        
                                                                              
                      - O R C A' S   B I G   F R I E N D -                    
                                      &                                       
                       - I N T E G R A L  F E E D E R -                       
                                                                              
 v1 FN, 2020, v2 2021, v3 2022-2024                                           
------------------------------------------------------------------------------


----------------------
SHARK INTEGRAL PACKAGE
----------------------

Number of atoms                             ...     13
Number of basis functions                   ...     61
Number of shells                            ...     41
Maximum angular momentum                    ...      1
Integral batch strategy                     ... SHARK/LIBINT Hybrid
RI-J (if used) integral strategy            ... SPLIT-RIJ (Revised 2003 algorithm where possible)
Printlevel                                  ...      1
Contraction scheme used                     ... SEGMENTED contraction
Prescreening option                         ... SCHWARTZ
   Thresh                                   ... 1.000e-10
   Tcut                                     ... 1.000e-11
   Tpresel                                  ... 1.000e-11 
Coulomb Range Separation                    ... NOT USED
Exchange Range Separation                   ... NOT USED
Multipole approximations                    ... NOT USED
Finite Nucleus Model                        ... NOT USED
CABS basis                                  ... NOT available
Auxiliary Coulomb fitting basis             ... NOT available
Auxiliary J/K fitting basis                 ... NOT available
Auxiliary Correlation fitting basis         ... NOT available
Auxiliary 'external' fitting basis          ... NOT available

Checking pre-screening integrals            ... done (  0.0 sec) Dimension = 41
   => SHARK Basis and OBASIS are compatible. Storing Pre-screening
Shell pair information
Shell pair cut-off parameter TPreSel        ...   1.0e-11
Total number of shell pairs                 ...       861
Shell pairs after pre-screening             ...       848
Total number of primitive shell pairs       ...      5382
Primitive shell pairs kept                  ...      3782
          la=0 lb=0:    483 shell pairs
          la=1 lb=0:    310 shell pairs
          la=1 lb=1:     55 shell pairs

Checking whether 4 symmetric matrices of dimension 61 fit in memory
:Max Core in MB      =   1200.00
 MB in use           =      2.05
 MB left             =   1197.95
 MB needed           =      0.06
 Data fit in memory  = YES
Calculating Nuclear repulsion               ... done (  0.0 sec) ENN=    164.941886690517 Eh

Diagonalization of the overlap matrix:
Smallest eigenvalue                        ... 3.455e-03
Time for diagonalization                   ...    0.000 sec
Threshold for overlap eigenvalues          ... 1.000e-07
Number of eigenvalues below threshold      ... 0
Time for construction of square roots      ...    0.000 sec
Total time needed                          ...    0.001 sec

-------------------
DFT GRID GENERATION
-------------------

General Integration Accuracy     IntAcc      ... 4.388
Radial Grid Type                 RadialGrid  ... OptM3 with GC (2021)
Angular Grid (max. ang.)         AngularGrid ... 4 (Lebedev-302)
Angular grid pruning method      GridPruning ... 4 (adaptive)
Weight generation scheme         WeightScheme... mBecke (2022)
Basis function cutoff            BFCut       ... 1.0000e-10
Integration weight cutoff        WCut        ... 1.0000e-14
Partially contracted basis set               ... off
Rotationally invariant grid construction     ... off
Angular grids for H and He will be reduced by one unit

Total number of grid points                  ...    55942
Total number of batches                      ...      881
Average number of points per batch           ...       63
Average number of grid points per atom       ...     4303
Grids setup in   0.2 sec
Initializing property integral containers    ... done (  0.0 sec)

SHARK setup successfully completed in   0.3 seconds

Maximum memory used throughout the entire STARTUP-calculation: 11.8 MB


           ************************************************************
           *        Program running with 8 parallel MPI-processes     *
           *              working on a common directory               *
           ************************************************************
-------------------------------------------------------------------------------
                                 ORCA GUESS
                   Start orbitals & Density for SCF / CASSCF
-------------------------------------------------------------------------------

------------
SCF SETTINGS
------------
Hamiltonian:
 Ab initio Hamiltonian  Method          .... Hartree-Fock(GTOs)


General Settings:
 Integral files         IntName         .... h-shift_045
 Hartree-Fock type      HFTyp           .... RHF
 Total Charge           Charge          ....    0
 Multiplicity           Mult            ....    1
 Number of Electrons    NEL             ....   38
 Basis Dimension        Dim             ....   61
 Nuclear Repulsion      ENuc            ....    164.9418866905 Eh

Convergence Acceleration:
 AO-DIIS                CNVDIIS         .... on
   Start iteration      DIISMaxIt       ....    12
   Startup error        DIISStart       ....  0.200000
   # of expansion vecs  DIISMaxEq       ....     5
   Bias factor          DIISBfac        ....   1.050
   Max. coefficient     DIISMaxC        ....  10.000
 MO-DIIS                CNVKDIIS        .... off
 Trust-Rad. Augm. Hess. CNVTRAH         .... auto
   Auto Start mean grad. ratio tolernc. ....  1.125000
   Auto Start start iteration           ....    50
   Auto Start num. interpolation iter.  ....    10
   Max. Number of Micro iterations      ....    24
   Max. Number of Macro iterations      .... Maxiter - #DIIS iter
   Number of Davidson start vectors     ....     2
   Converg. threshold    (grad. norm)   ....   5.000e-05
   Grad. Scal. Fac. for Micro threshold ....   0.100
   Minimum threshold for Micro iter.    ....   1.000e-02
   NR start threshold (gradient norm)   ....   1.000e-04
   Initial trust radius                 ....   0.400
   Minimum AH scaling param. (alpha)    ....   1.000
   Maximum AH scaling param. (alpha)    .... 1000.000
   Quad. conv. algorithm                .... NR
   White noise on init. David. guess    .... on
   Maximum white noise                  ....   0.010
   Pseudo random numbers                .... off
   Inactive MOs                         .... canonical
   Orbital update algorithm             .... Taylor
   Preconditioner                       .... Diag
   Full preconditioner red. dimension   ....   250
 SOSCF                 CNVSOSCF           .... on
   Start iteration     SOSCFMaxIt         ....   150
   Startup grad/error  SOSCFStart         ....  0.003300
   Hessian update      SOSCFHessUp        .... L-BFGS
   Autom. constraints  SOSCFAutoConstrain .... off
 Level Shifting         CNVShift        .... on
   Level shift para.    LevelShift      ....    0.2500
   Turn off err/grad.   ShiftErr        ....    0.0010
 Zerner damping         CNVZerner       .... off
 Static damping         CNVDamp         .... on
   Fraction old density DampFac         ....    0.7000
   Max. Damping (<1)    DampMax         ....    0.9800
   Min. Damping (>=0)   DampMin         ....    0.0000
   Turn off err/grad.   DampErr         ....    0.1000

SCF Procedure:
 Maximum # iterations   MaxIter         ....   125
 SCF integral mode      SCFMode         .... Direct
   Integral package                     .... SHARK and LIBINT hybrid scheme
 Reset frequency        DirectResetFreq ....    20
 Integral Threshold     Thresh          ....  1.000e-10 Eh
 Primitive CutOff       TCut            ....  1.000e-11 Eh

Convergence Tolerance:
 Convergence Check Mode ConvCheckMode   .... Total+1el-Energy
 Convergence forced     ConvForced      .... 0
 Energy Change          TolE            ....  1.000e-06 Eh
 1-El. energy change                    ....  1.000e-03 Eh
 Orbital Gradient       TolG            ....  5.000e-05
 Orbital Rotation angle TolX            ....  5.000e-05
 DIIS Error             TolErr          ....  1.000e-06

------------------------------
INITIAL GUESS: MODEL POTENTIAL
------------------------------
Loading Hartree-Fock densities                     ... done
Calculating cut-offs                               ... done
Initializing the effective Hamiltonian             ... done
Setting up the integral package (SHARK)            ... done
Starting the Coulomb interaction                   ... done (   0.0 sec)
Making the grid                                    ... done (   0.1 sec)
Mapping shells                                     ... done
Starting the XC term evaluation                    ... done (   0.0 sec)
Transforming the Hamiltonian                       ... done (   0.0 sec)
Diagonalizing the Hamiltonian                      ... done (   0.0 sec)
Back transforming the eigenvectors                 ... done (   0.0 sec)
Now organizing SCF variables                       ... done
                      ------------------
                      INITIAL GUESS DONE (   0.1 sec)
                      ------------------
             **** ENERGY FILE WAS UPDATED (h-shift_045.en.tmp) ****
Finished Guess after   0.4 sec
Maximum memory used throughout the entire GUESS-calculation: 4.2 MB


           ************************************************************
           *        Program running with 8 parallel MPI-processes     *
           *              working on a common directory               *
           ************************************************************

-------------------------------------------------------------------------------------------
                                      ORCA LEAN-SCF
                              memory conserving SCF solver
-------------------------------------------------------------------------------------------

----------------------------------------D-I-I-S--------------------------------------------
Iteration    Energy (Eh)           Delta-E    RMSDP     MaxDP     DIISErr   Damp  Time(sec)
-------------------------------------------------------------------------------------------
               ***  Starting incremental Fock matrix formation  ***
    1    -193.5859997785196356     0.00e+00  1.58e-02  4.77e-02  1.66e-01  0.700   0.1
    2    -193.6632367258738441    -7.72e-02  1.25e-02  3.68e-02  1.10e-01  0.700   0.0
                               ***Turning on AO-DIIS***
    3    -193.7108524899010149    -4.76e-02  7.60e-03  1.94e-02  6.68e-02  0.700   0.0
    4    -193.7409055150288282    -3.01e-02  1.81e-02  4.21e-02  4.55e-02  0.000   0.0
                              *** Initializing SOSCF ***
---------------------------------------S-O-S-C-F--------------------------------------
Iteration    Energy (Eh)           Delta-E    RMSDP     MaxDP     MaxGrad    Time(sec)
--------------------------------------------------------------------------------------
    5    -193.8060054993677568    -6.51e-02  1.80e-03  3.11e-03  2.27e-03     0.0
               *** Restarting incremental Fock matrix formation ***
    6    -193.8061574586088227    -1.52e-04  1.13e-03  2.56e-03  1.91e-03     0.0
    7    -193.8062239274159424    -6.65e-05  1.23e-03  3.47e-03  1.03e-03     0.0
    8    -193.8062523231076852    -2.84e-05  1.84e-04  3.85e-04  1.80e-04     0.0
    9    -193.8062533361692203    -1.01e-06  9.44e-05  1.86e-04  6.51e-05     0.0
   10    -193.8062536123576365    -2.76e-07  2.25e-05  5.55e-05  1.30e-05     0.0
                 **** Energy Check signals convergence ****

               *****************************************************
               *                     SUCCESS                       *
               *           SCF CONVERGED AFTER  10 CYCLES          *
               *****************************************************

             **** ENERGY FILE WAS UPDATED (h-shift_045.en.tmp) ****

----------------
TOTAL SCF ENERGY
----------------

Total Energy       :       -193.80625362929891 Eh           -5273.73627 eV

Components:
Nuclear Repulsion  :        164.94188669051726 Eh            4488.29692 eV
Electronic Energy  :       -358.74814031981617 Eh           -9762.03319 eV
One Electron Energy:       -586.69802649617964 Eh          -15964.86494 eV
Two Electron Energy:        227.94988617636346 Eh            6202.83175 eV

Virial components:
Potential Energy   :       -387.90485497280554 Eh          -10555.42773 eV
Kinetic Energy     :        194.09860134350666 Eh            5281.69146 eV
Virial Ratio       :          1.99849381854282

---------------
SCF CONVERGENCE
---------------

  Last Energy change         ...    2.7619e-07  Tolerance :   1.0000e-06
  Last MAX-Density change    ...    5.5458e-05  Tolerance :   1.0000e-05
  Last RMS-Density change    ...    2.2520e-05  Tolerance :   1.0000e-06
  Last DIIS Error            ...    2.2687e-03  Tolerance :   1.0000e-06
  Last Orbital Gradient      ...    1.2993e-05  Tolerance :   5.0000e-05
  Last Orbital Rotation      ...    3.8712e-05  Tolerance :   5.0000e-05


----------------
ORBITAL ENERGIES
----------------

  NO   OCC          E(Eh)            E(eV) 
   0   2.0000     -11.242624      -305.9273 
   1   2.0000     -11.242138      -305.9141 
   2   2.0000     -11.227925      -305.5274 
   3   2.0000     -11.225455      -305.4602 
   4   2.0000     -11.220657      -305.3296 
   5   2.0000      -1.119066       -30.4513 
   6   2.0000      -1.011900       -27.5352 
   7   2.0000      -0.944263       -25.6947 
   8   2.0000      -0.811399       -22.0793 
   9   2.0000      -0.728300       -19.8180 
  10   2.0000      -0.679496       -18.4900 
  11   2.0000      -0.594892       -16.1878 
  12   2.0000      -0.580774       -15.8037 
  13   2.0000      -0.565813       -15.3965 
  14   2.0000      -0.533887       -14.5278 
  15   2.0000      -0.513771       -13.9804 
  16   2.0000      -0.494371       -13.4525 
  17   2.0000      -0.361935        -9.8487 
  18   2.0000      -0.300461        -8.1759 
  19   0.0000       0.117424         3.1953 
  20   0.0000       0.188279         5.1233 
  21   0.0000       0.241666         6.5761 
  22   0.0000       0.275113         7.4862 
  23   0.0000       0.291646         7.9361 
  24   0.0000       0.326003         8.8710 
  25   0.0000       0.338468         9.2102 
  26   0.0000       0.349680         9.5153 
  27   0.0000       0.383309        10.4304 
  28   0.0000       0.395162        10.7529 
  29   0.0000       0.443686        12.0733 
*Only the first 10 virtual orbitals were printed.

                    ********************************
                    * MULLIKEN POPULATION ANALYSIS *
                    ********************************

-----------------------
MULLIKEN ATOMIC CHARGES
-----------------------
   0 C :   -0.533520
   1 H :    0.186648
   2 C :   -0.460941
   3 C :   -0.133874
   4 C :   -0.213624
   5 C :   -0.107269
   6 H :    0.159693
   7 H :    0.189538
   8 H :    0.202189
   9 H :    0.164329
  10 H :    0.183867
  11 H :    0.177612
  12 H :    0.185352
Sum of atomic charges:   -0.0000000

--------------------------------
MULLIKEN REDUCED ORBITAL CHARGES
--------------------------------
  0 C s       :     3.389824  s :     3.389824
      pz      :     1.061957  p :     3.143696
      px      :     1.094655
      py      :     0.987085

  1 H s       :     0.813352  s :     0.813352

  2 C s       :     3.341615  s :     3.341615
      pz      :     1.012572  p :     3.119326
      px      :     1.103140
      py      :     1.003613

  3 C s       :     3.200321  s :     3.200321
      pz      :     0.940940  p :     2.933553
      px      :     0.983659
      py      :     1.008955

  4 C s       :     3.200272  s :     3.200272
      pz      :     1.013647  p :     3.013352
      px      :     0.930198
      py      :     1.069507

  5 C s       :     3.202659  s :     3.202659
      pz      :     0.921198  p :     2.904610
      px      :     0.996883
      py      :     0.986529

  6 H s       :     0.840307  s :     0.840307

  7 H s       :     0.810462  s :     0.810462

  8 H s       :     0.797811  s :     0.797811

  9 H s       :     0.835671  s :     0.835671

 10 H s       :     0.816133  s :     0.816133

 11 H s       :     0.822388  s :     0.822388

 12 H s       :     0.814648  s :     0.814648



                     *******************************
                     * LOEWDIN POPULATION ANALYSIS *
                     *******************************

----------------------
LOEWDIN ATOMIC CHARGES
----------------------
   0 C :   -0.341037
   1 H :    0.174847
   2 C :   -0.306217
   3 C :   -0.104082
   4 C :   -0.164207
   5 C :   -0.096285
   6 H :    0.112658
   7 H :    0.120130
   8 H :    0.127182
   9 H :    0.115271
  10 H :    0.121714
  11 H :    0.118558
  12 H :    0.121467

-------------------------------
LOEWDIN REDUCED ORBITAL CHARGES
-------------------------------
  0 C s       :     3.001034  s :     3.001034
      pz      :     1.119475  p :     3.340003
      px      :     1.126400
      py      :     1.094128

  1 H s       :     0.825153  s :     0.825153

  2 C s       :     3.006767  s :     3.006767
      pz      :     1.074486  p :     3.299449
      px      :     1.121175
      py      :     1.103788

  3 C s       :     2.946878  s :     2.946878
      pz      :     0.975635  p :     3.157204
      px      :     1.085846
      py      :     1.095723

  4 C s       :     2.940434  s :     2.940434
      pz      :     1.079211  p :     3.223773
      px      :     1.068455
      py      :     1.076108

  5 C s       :     2.952453  s :     2.952453
      pz      :     1.027136  p :     3.143832
      px      :     1.046950
      py      :     1.069745

  6 H s       :     0.887342  s :     0.887342

  7 H s       :     0.879870  s :     0.879870

  8 H s       :     0.872818  s :     0.872818

  9 H s       :     0.884729  s :     0.884729

 10 H s       :     0.878286  s :     0.878286

 11 H s       :     0.881442  s :     0.881442

 12 H s       :     0.878533  s :     0.878533



                      *****************************
                      * MAYER POPULATION ANALYSIS *
                      *****************************

  NA   - Mulliken gross atomic population
  ZA   - Total nuclear charge
  QA   - Mulliken gross atomic charge
  VA   - Mayer's total valence
  BVA  - Mayer's bonded valence
  FA   - Mayer's free valence

  ATOM       NA         ZA         QA         VA         BVA        FA
  0 C      6.5335     6.0000    -0.5335     3.7202     3.7202     0.0000
  1 H      0.8134     1.0000     0.1866     0.9134     0.9134     0.0000
  2 C      6.4609     6.0000    -0.4609     3.7590     3.7590    -0.0000
  3 C      6.1339     6.0000    -0.1339     3.7599     3.7599    -0.0000
  4 C      6.2136     6.0000    -0.2136     3.8188     3.8188     0.0000
  5 C      6.1073     6.0000    -0.1073     3.7231     3.7231    -0.0000
  6 H      0.8403     1.0000     0.1597     0.9444     0.9444     0.0000
  7 H      0.8105     1.0000     0.1895     0.9131     0.9131    -0.0000
  8 H      0.7978     1.0000     0.2022     0.9149     0.9149    -0.0000
  9 H      0.8357     1.0000     0.1643     0.9423     0.9423     0.0000
 10 H      0.8161     1.0000     0.1839     0.9351     0.9351    -0.0000
 11 H      0.8224     1.0000     0.1776     0.9388     0.9388     0.0000
 12 H      0.8146     1.0000     0.1854     0.9367     0.9367     0.0000

  Mayer bond orders larger than 0.100000
B(  0-C ,  1-H ) :   0.7216 B(  0-C ,  5-C ) :   1.0873 B(  0-C ,  6-H ) :   0.9606 
B(  0-C ,  7-H ) :   0.9313 B(  1-H ,  2-C ) :   0.2233 B(  2-C ,  3-C ) :   1.5536 
B(  2-C ,  5-C ) :   0.1326 B(  2-C ,  8-H ) :   0.9431 B(  2-C ,  9-H ) :   0.9586 
B(  3-C ,  4-C ) :   1.2541 B(  3-C , 10-H ) :   0.9556 B(  4-C ,  5-C ) :   1.6330 
B(  4-C , 11-H ) :   0.9585 B(  5-C , 12-H ) :   0.9548 

-------
TIMINGS
-------

Total SCF time: 0 days 0 hours 0 min 0 sec 

Total time                  ....       0.724 sec
Sum of individual times     ....       0.678 sec  ( 93.6%)

SCF preparation             ....       0.259 sec  ( 35.7%)
Fock matrix formation       ....       0.358 sec  ( 49.5%)
  Startup                   ....       0.002 sec  (  0.4% of F)
  Coulomb+Exchange Fock     ....       0.378 sec  (105.5% of F)
Diagonalization             ....       0.000 sec  (  0.0%)
Density matrix formation    ....       0.009 sec  (  1.2%)
Total Energy calculation    ....       0.006 sec  (  0.8%)
Population analysis         ....       0.005 sec  (  0.7%)
Orbital Transformation      ....       0.005 sec  (  0.6%)
Orbital Orthonormalization  ....       0.000 sec  (  0.0%)
DIIS solution               ....       0.021 sec  (  2.8%)
SOSCF solution              ....       0.016 sec  (  2.2%)
Finished LeanSCF after   0.7 sec

Maximum memory used throughout the entire LEANSCF-calculation: 6.5 MB

-------------------------   --------------------
FINAL SINGLE POINT ENERGY      -193.806253629299
-------------------------   --------------------



           ************************************************************
           *        Program running with 8 parallel MPI-processes     *
           *              working on a common directory               *
           ************************************************************

------------------------------------------------------------------------------
                              ORCA PROPERTY CALCULATIONS
------------------------------------------------------------------------------

GBWName                                 ... h-shift_045.gbw
Number of atoms                         ...     13
Number of basis functions               ...     61
Max core memory                         ...   1200 MB

Electric properties:
Dipole moment                           ... YES
Quadrupole moment                       ...  NO
Static polarizability (Dipole/Dipole)   ...  NO
Static polarizability (Dipole/Quad.)    ...  NO
Static polarizability (Quad./Quad.)     ...  NO
Static polarizability (Velocity)        ...  NO
Static hyperpolarizability              ...  NO

Atomic electric properties:
Dipole moment                           ...  NO
Quadrupole moment                       ...  NO
Static polarizability                   ...  NO

Choice of electric origin               ... Center of mass
Position of electric origin             ...     1.762596    -1.391150     2.036530

General magnetic properties:
Magnetizability                         ...  NO

EPR properties:
g-Tensor (aka g-matrix)                 ...  NO
Zero-Field splitting spin-orbit         ...  NO
Zero-field splitting spin-spin          ...  NO
Hyperfine couplings                     ...  NO (   0 nuclei)
Quadrupole couplings                    ...  NO (   0 nuclei)
Contact density                         ...  NO (   0 nuclei)

NMR properties:
Chemical shifts                         ...  NO (   0 nuclei)
Spin-rotation constants                 ...  NO (   0 nuclei)
Spin-spin couplings                     ...  NO (   0 nuclei,    0 pairs)

Choice of magnetic origin               ... GIAO
Position of magnetic origin             ...     0.000000     0.000000     0.000000

Properties with geometric perturbations:
SCF Hessian                             ...  NO
IR spectrum                             ...  NO
VCD spectrum                            ...  NO
X-ray spectroscopy properties:
SCF XES/XAS/RIXS spectra                ...  NO

SCF SOC stabilization energy            ...  NO
Diagonal Born-Oppenheimer correction    ...  NO

-------------
DIPOLE MOMENT
-------------

Method             : SCF
Type of density    : Electron Density
Multiplicity       :   1
Irrep              :   0
Energy             :  -193.8062536292989080 Eh
Basis              : AO
                                X                 Y                 Z
Electronic contribution:     -0.591834539      -1.742104229       1.711628782
Nuclear contribution   :      0.604581360       1.677615492      -1.750758845
                        -----------------------------------------
Total Dipole Moment    :      0.012746821      -0.064488737      -0.039130064
                        -----------------------------------------
Magnitude (a.u.)       :      0.076501245
Magnitude (Debye)      :      0.194450712



--------------------
Rotational spectrum 
--------------------
 
Rotational constants in cm-1:             0.272838             0.168906             0.108148 
Rotational constants in MHz :          8179.472125          5063.684728          3242.196022 

Dipole components along the rotational axes: 
x,y,z [a.u.] :    -0.007067    -0.027203    -0.071151 
x,y,z [Debye]:    -0.017964    -0.069144    -0.180852 

 

Dipole moment calculation done in   0.0 sec 

Maximum memory used throughout the entire PROP-calculation: 2.2 MB

--------------------------------
SUGGESTED CITATIONS FOR THIS RUN
--------------------------------

Below you find a list of papers that are relevant to this ORCA run
We neither can nor want to force you to cite these papers, but we appreciate if you do
You receive ORCA, which is the product of decades of hard work by many enthusiastic individuals, for free
The only thing we kindly ask in return is that you cite our papers,
We deeply appreciate it, if you show your appreciation for ORCA by not just citing the generic ORCA reference.

Please note that relegating all ORCA citations to the supporting information does *not* help us.
SI sections are not indexed - citations you put there will not count into any citation statistics
But we need these citations in order to attract the funding resources that allow us to do what we are doing

Therefore, if you are a happy ORCA user, please consider citing a few of the papers listed below in the main body of your paper

In addition to the list printed below, the program has created the file h-shift_045.bibtex that contains the list in bibtex format
You can import this file easily into all common literature databanks and citation aid programs


List of essential papers. We consider these as the minimum necessary citations

  1. Neese, F.
     Software update: the ORCA program system, version 6.0
     WIRES Comput. Molec. Sci. 2025 15(1), e70019
     doi.org/10.1002/wcms.7019

List of papers to cite with high priority. The work reported in these papers was absolutely
necessary for this run to complete.
Our perspective: the developers of density functionals and basis sets usually get cited in chemistry papers
Good! But without the algorithms to do something with them, the functionals or basis sets would not do anything.
Hence, in our opinion, the algorithm design and method developments papers are equally worthy of getting cited

  1. Neese, F.
     The SHARK Integral Generation and Digestion System
     J. Comp. Chem. 2022 44(3), 381
     doi.org/10.1002/jcc.26942

List of suggested additional citations. These are papers that are important in the 'surrounding' of 
of this run, or papers that preceded the highly important papers. If you like your results we are grateful for a citation.

  1. Neese, F.
     The ORCA program system
     WIRES Comput. Molec. Sci. 2012 2(1), 73-78
     doi.org/10.1002/wcms.81
  2. Neese, F.
     Software update: the ORCA program system, version 4.0
     WIRES Comput. Molec. Sci. 2018 8(1), 1-6
     doi.org/10.1002/wcms.1327
  3. Neese, F.; Wennmohs, F.; Becker, U.; Riplinger, C.
     The ORCA quantum chemistry program package
     J. Chem. Phys. 2020 152(22), 224108
     doi.org/10.1063/5.0004608
  4. Neese, F.
     Software update: The ORCA program system—Version 5.0
     WIRES Comput. Molec. Sci. 2022 12(1), e1606
     doi.org/10.1002/wcms.1606

List of optional additional citations

  1. Neese, F.
     Approximate second-order SCF convergence for spin unrestricted wavefunctions
     Chem. Phys. Lett. 2000 325(1-3), 93-98
     doi.org/10.1016/s0009-2614(00)00662-x

Timings for individual modules:

Sum of individual times          ...        2.395 sec (=   0.040 min)
Startup calculation              ...        0.665 sec (=   0.011 min)  27.8 %
SCF iterations                   ...        1.293 sec (=   0.022 min)  54.0 %
Property calculations            ...        0.437 sec (=   0.007 min)  18.2 %
                             ****ORCA TERMINATED NORMALLY****
TOTAL RUN TIME: 0 days 0 hours 0 minutes 2 seconds 900 msec
