
                                 *****************
                                 * O   R   C   A *
                                 *****************

                                            #,                                       
                                            ###                                      
                                            ####                                     
                                            #####                                    
                                            ######                                   
                                           ########,                                 
                                     ,,################,,,,,                         
                               ,,#################################,,                 
                          ,,##########################################,,             
                       ,#########################################, ''#####,          
                    ,#############################################,,   '####,        
                  ,##################################################,,,,####,       
                ,###########''''           ''''###############################       
              ,#####''   ,,,,##########,,,,          '''####'''          '####       
            ,##' ,,,,###########################,,,                        '##       
           ' ,,###''''                  '''############,,,                           
         ,,##''                                '''############,,,,        ,,,,,,###''
      ,#''                                            '''#######################'''  
     '                                                          ''''####''''         
             ,#######,   #######,   ,#######,      ##                                
            ,#'     '#,  ##    ##  ,#'     '#,    #''#        ,####,    ,#,          
            ##       ##  ##   ,#'  ##            #'  '#       #'       ,# #          
            ##       ##  #######   ##           ,######,      #####,      #          
            '#,     ,#'  ##    ##  '#,     ,#' ,#      #,     #,   #      #          
             '#######'   ##     ##  '#######'  #'      '#     '####' #    #          



                #########################################################
                #                        -***-                          #
                #          Department of theory and spectroscopy        #
                #                                                       #
                #                      Frank Neese                      #
                #                                                       #
                #     Directorship, Architecture, Infrastructure        #
                #                    SHARK, DRIVERS                     #
                #        Core code/Algorithms in most modules           #
                #                                                       #
                #        Max Planck Institute fuer Kohlenforschung      #
                #                Kaiser Wilhelm Platz 1                 #
                #                 D-45470 Muelheim/Ruhr                 #
                #                      Germany                          #
                #                                                       #
                #                  All rights reserved                  #
                #                        -***-                          #
                #########################################################


                         Program Version 6.1.0  -  RELEASE   -
                                (GIT: $679e74b$)
                          ($2025-06-10 18:02:51 +0200$)


 With contributions from (in alphabetic order):
[Max-Planck-Institut fuer Kohlenforschung]                               
  Daniel Aravena         : Magnetic Suceptibility                        
  Michael Atanasov       : Ab Initio Ligand Field Theory (pilot matlab implementation)
  Alexander A. Auer      : GIAO ZORA, VPT2 properties, NMR spectrum      
  Ute Becker             : All parallelization in ORCA, NUMFREQ, NUMCALC 
  Giovanni Bistoni       : ED, misc. LED, open-shell LED, HFLD           
  Dmytro Bykov           : pre 5.0 version of the SCF Hessian            
  Marcos Casanova-Páez   : Triplet and SCS-CIS(D). UHF-(DLPNO)-IP/EA/STEOM-CCSD. UHF-CVS-IP/STEOM-CCSD   
  Vijay G. Chilkuri      : MRCI spin determinant printing, contributions to CSF-ICE 
  Pauline Colinet        : FMM embedding                                 
  Dipayan Datta          : RHF DLPNO-CCSD density                        
  Achintya Kumar Dutta   : EOM-CC, STEOM-CC                              
  Nicolas Foglia         : Exact transition moments, OPA infrastructure, MCD improvements    
  Dmitry Ganyushin       : Spin-Orbit,Spin-Spin,Magnetic field MRCI      
  Miquel Garcia-Rates    : C-PCM and meta-GGA Hessian, CCSD/C-PCM, Gaussian charge scheme 
  Tiago L. C. Gouveia    : GS-ROHF, GS-ROCIS                             
  Yang Guo               : DLPNO-NEVPT2, F12-NEVPT2, CIM, IAO-localization        
  Andreas Hansen         : Spin unrestricted coupled pair/coupled cluster methods 
  Ingolf Harden          : AUTO-CI MPn and infrastructure                
  Benjamin Helmich-Paris : MC-RPA, TRAH-(SCF,CASSCF), AVAS, COSX integrals, SCF dyn. polar., MC-PDFT, srDFT 
  Lee Huntington         : MR-EOM, pCC                                   
  Robert Izsak           : Overlap fitted RIJCOSX, COSX-SCS-MP3, EOM     
  Riya Kayal             : Wick's Theorem for AUTO-CI, AUTO-CI UHF-CCSDT 
  Emily Kempfer          : AUTO-CI RHF CISDT and CCSDT, approximate NEVPT4
  Christian Kollmar      : KDIIS, OOCD, Brueckner-CCSD(T), CCSD density, CASPT2, CASPT2-K, improved NEVPT2 
  Axel Koslowski         : Symmetry handling                             
  Simone Kossmann        : meta-GGA functionals, TD-DFT gradient, OOMP2, (MP2 Hessian; deprecated post 5.0) 
  Lucas Lang             : DCDCAS, Hyperfine gauge corrections, ICE-SOC+SSC
  Marvin Lechner         : AUTO-CI (C++ implementation), FIC-MRCC        
  Spencer Leger          : CASSCF response                               
  Dagmar Lenk            : GEPOL surface, SMD, ORCA-2-JSON               
  Dimitrios Liakos       : Extrapolation schemes; Compound Job, Property file
  Dimitrios Manganas     : Further ROCIS development; embedding schemes. LFT, Crystal Embedding 
  Dimitrios Pantazis     : SARC Basis sets                               
  Anastasios Papadopoulos: AUTO-CI, single reference methods and gradients 
  Taras Petrenko         : pre 6.0 DFT Hessian and TD-DFT gradient,  ECA, NRVS 
  Petra Pikulova         : Analytic Raman intensities                    
  Peter Pinski           : DLPNO-MP2, DLPNO-MP2 Gradient                 
  Shashank Vittal Rao    : ES-AILFT, MagRelax                            
  Christoph Reimann      : Effective Core Potentials                     
  Marius Retegan         : Local ZFS, SOC                                
  Christoph Riplinger    : Optimizer, TS searches, QM/MM, DLPNO-CCSD(T), (RO)-DLPNO pert. Triples 
  Michael Roemelt        : Original ROCIS implementation, recursive CI coupling coefficients
  Masaaki Saitow         : Open-shell DLPNO-CCSD energy and density      
  Barbara Sandhoefer     : DKH picture change effects                    
  Yorick L. A. Schmerwitz: GMF and freeze-and-release deltaSCF, NEB S-IDPP initial path                    
  Kantharuban Sivalingam : CASSCF convergence/infrastructure, NEVPT2, NEVPT3, NEVPT4(SD), FIC-MRCI and CEPA variants
  Bernardo de Souza      : ESD, SOC TD-DFT                               
  Georgi L. Stoychev     : AutoAux, RI-MP2 NMR, DLPNO-MP2 response, X2C  
  Van Anh Tran           : RI-MP2 g-tensors                              
  Willem Van den Heuvel  : Paramagnetic NMR                              
  Zikuan Wang            : NOTCH, Electric field optimization            
  Frank Wennmohs         : Technical directorship and infrastructure     
  Hang Xu                : AUTO-CI-Response properties                   
                                                                         
[FACCTs GmbH]                                                            
  Markus Bursch, Nicolas Foglia, Miquel Garcia-Rates, Ingolf Harden, Hagen Neugebauer, Anastasios Papadopoulos, 
  Christoph Riplinger, Bernardo de Souza, Georgi L. Stoychev                                                    
                                                                 
  APM, various basis sets, CI-OPT, improved COSX, DLPNO-Multilevel,           
  DOCKER, DRACO, updates on ESD, Fragmentator, GOAT, IRC, LR-CPCM, L-BFGS, MBIS, meta-GGA TD-DFT gradient, ML-optimized integration grids, 
  MM, NACMEs, nearIR, NEB, NEB-TS, NL-DFT gradient (VV10), 2- and 3-layer-ONIOM, interface openCOSMO-RS, QMMM,   
  Crystal-QMMM, RESP, rigid body optimization, SF, symmetry and pop. for TD-DFT, various functionals, SOLVATOR                                   
                                                                         
[Other institutions]                                                     
  V. Asgeirsson          : NEB                                           
  Christoph Bannwarth    : sTDA-DFT, sTD-DFT, PBEh-3c, B97-3c, D3        
  Giovanni Bistoni       : ETS/NOCV, ADLD/ADEX, COVALED                  
  Martin Brehm           : Molecular dynamics                            
  Ronald Cardenas        : ETS/NOCV                                      
  Martina Colucci        : COVALED                                       
  Sebastian Ehlert       : rSCAN, r2SCAN, r2SCAN-3c, D4, dhf basis sets  
  Marvin Friede          : D4 for Fr, Ra, Ac-Lr                          
  Lars Goerigk           : TD-DFT with DH, B97 family of functionals     
  Stefan Grimme          : VdW corrections, initial TS optimization, DFT functionals, gCP, sTDA/sTD-DF 
  Waldemar Hujo          : DFT-NL                                        
  H. Jonsson             : NEB                                           
  Holger Kruse           : gCP                                           
  Marcel Mueller         : wB97X-3c, vDZP basis set                      
  Hagen Neugebauer       : wr2SCAN, Native XTB                           
  Gianluca Regni         : ADLD/ADEX                                     
  Tobias Risthaus        : pre 6.0 range-separated hybrid DFT and stability analysis
  Lukas Wittmann         : regularized MP2, r2SCAN double-hybrids, wr2SCAN        
                                                                         
We gratefully acknowledge several colleagues who have allowed us to      
interface, adapt or use parts of their codes:                            
  Ed Valeev, F. Pavosevic, A. Kumar             : LibInt (2-el integral package), F12 methods 
  Garnet Chan, S. Sharma, J. Yang, R. Olivares  : DMRG                   
  Ulf Ekstrom                                   : XCFun DFT Library      
  Mihaly Kallay                                 : mrcc  (arbitrary order and MRCC methods)
  Frank Weinhold                                : gennbo (NPA and NBO analysis)           
  Simon Mueller                                 : openCOSMO-RS                            
  Christopher J. Cramer and Donald G. Truhlar   : smd solvation model                     
  S Lehtola, MJT Oliveira, MAL Marques          : LibXC Library                           
  Liviu Ungur et al                             : ANISO software                          


 Your calculation uses the libint2 library for the computation of 2-el integrals
 For citations please refer to: http://libint.valeyev.net

 Your ORCA version has been built with support for libXC version: 7.0.0
 For citations please refer to: https://libxc.gitlab.io

 This ORCA versions uses:
   CBLAS   interface :  Fast vector & matrix operations
   LAPACKE interface :  Fast linear algebra routines
   SCALAPACK package :  Parallel linear algebra routines
   Shared memory     :  Shared parallel matrices
   BLAS/LAPACK       :  OpenBLAS 0.3.29  USE64BITINT DYNAMIC_ARCH NO_AFFINITY Zen SINGLE_THREADED
        Core in use  :  Zen
   Copyright (c) 2011-2014, The OpenBLAS Project


  ***********************************
  * Starting time: Sun Apr  5 12:59:46 2026
  * Host name:     QC1
  * Process ID:    3186
  * Working dir.:  /home/user/QC/h-shift/split_2
  ***********************************

NOTE: MaxCore=1200 MB was set to SCF,MP2,MDCI,CIPSI,MRCI,RASCI and CIS
      => If you want to overwrite this, your respective input block should be placed after the MaxCore statement
================================================================================

----- Orbital basis set information -----
Your calculation utilizes the basis: 6-31G
   H-He, Li-Ne : W. J. Hehre, R. Ditchfield and J.A. Pople, J. Chem. Phys. 56, 2257 (1972).
                 Note: He and Ne are unpublished basis sets taken from the Gaussian program.
                 Note: Li and B from J. D. Dill and J. A. Pople, J. Chem. Phys. 62, 2921 (1975).
   Na - Ar     : M. M. Francl, W. J. Pietro, W. J. Hehre, J. S. Binkley, M. S. Gordon, 
                 D. J. DeFrees and J. A. Pople, J. Chem. Phys. 77, 3654 (1982).
   K - Zn      : V. A. Rassolov, J. A. Pople, M. A. Ratner, and T. L. Windus, J. Chem. Phys. 109, 1223 (1998).

================================================================================
                                        WARNINGS
                       Please study these warnings very carefully!
================================================================================


================================================================================
                                       INPUT FILE
================================================================================
NAME = h-shift_007.inp
|  1> ! HF 6-31G
|  2> %maxcore 1200
|  3> %pal nprocs 8 end
|  4> * xyz 0 1
|  5> C   -0.01847600   0.01063700  -0.18625000
|  6> H    0.99778600   0.01896300  -0.56073500
|  7> C    2.59239200   0.00429800   1.54703400
|  8> C    2.06473200  -1.19206300   1.78541600
|  9> C    0.66199000  -1.60829900   1.63369400
| 10> C   -0.23399500  -1.12083100   0.77767800
| 11> H   -0.69348500  -0.05213600  -1.02909000
| 12> H   -0.19055200   0.96909200   0.29713700
| 13> H    2.00681200   0.85410400   1.26032100
| 14> H    3.64780800   0.17226300   1.64196200
| 15> H    2.72546600  -1.97423800   2.12062500
| 16> H    0.36359200  -2.43520500   2.25579500
| 17> H   -1.20829700  -1.57863000   0.75680400
| 18> *
| 19> 
| 20>                          ****END OF INPUT****
================================================================================

                       ****************************
                       * Single Point Calculation *
                       ****************************

---------------------------------
CARTESIAN COORDINATES (ANGSTROEM)
---------------------------------
  C     -0.018476    0.010637   -0.186250
  H      0.997786    0.018963   -0.560735
  C      2.592392    0.004298    1.547034
  C      2.064732   -1.192063    1.785416
  C      0.661990   -1.608299    1.633694
  C     -0.233995   -1.120831    0.777678
  H     -0.693485   -0.052136   -1.029090
  H     -0.190552    0.969092    0.297137
  H      2.006812    0.854104    1.260321
  H      3.647808    0.172263    1.641962
  H      2.725466   -1.974238    2.120625
  H      0.363592   -2.435205    2.255795
  H     -1.208297   -1.578630    0.756804

----------------------------
CARTESIAN COORDINATES (A.U.)
----------------------------
  NO LB      ZA    FRAG     MASS         X           Y           Z
   0 C     6.0000    0    12.011   -0.034915    0.020101   -0.351961
   1 H     1.0000    0     1.008    1.885542    0.035835   -1.059636
   2 C     6.0000    0    12.011    4.898911    0.008122    2.923471
   3 C     6.0000    0    12.011    3.901778   -2.252673    3.373947
   4 C     6.0000    0    12.011    1.250980   -3.039245    3.087234
   5 C     6.0000    0    12.011   -0.442186   -2.118064    1.469598
   6 H     1.0000    0     1.008   -1.310497   -0.098523   -1.944698
   7 H     1.0000    0     1.008   -0.360091    1.831318    0.561508
   8 H     1.0000    0     1.008    3.792325    1.614023    2.381662
   9 H     1.0000    0     1.008    6.893358    0.325530    3.102859
  10 H     1.0000    0     1.008    5.150384   -3.730769    4.007400
  11 H     1.0000    0     1.008    0.687089   -4.601871    4.262835
  12 H     1.0000    0     1.008   -2.283350   -2.983178    1.430152

--------------------------------
INTERNAL COORDINATES (ANGSTROEM)
--------------------------------
 C      0   0   0     0.000000000000     0.00000000     0.00000000
 H      1   0   0     1.083095928413     0.00000000     0.00000000
 C      2   1   0     2.643042473140   106.87706425     0.00000000
 C      3   2   1     1.329108985691    84.75039768    64.19092230
 C      4   3   2     1.471039459547   127.93486153   319.78392850
 C      5   4   3     1.331607135572   127.18140560    29.07307077
 H      1   2   3     1.081645443392   108.45602106   183.82633081
 H      1   2   3     1.087156441627   107.18577475    68.16794480
 H      3   2   1     1.071110880537    56.79009004   288.59537337
 H      3   2   1     1.072905633998   131.54266017   191.80504754
 H      4   3   2     1.077372833824   117.76328174   138.97553305
 H      5   4   3     1.076951509327   114.95408061   205.50904251
 H      6   5   4     1.076698674412   117.75433952   176.51749787

---------------------------
INTERNAL COORDINATES (A.U.)
---------------------------
 C      0   0   0     0.000000000000     0.00000000     0.00000000
 H      1   0   0     2.046754681466     0.00000000     0.00000000
 C      2   1   0     4.994626434557   106.87706425     0.00000000
 C      3   2   1     2.511651985090    84.75039768    64.19092230
 C      4   3   2     2.779861710735   127.93486153   319.78392850
 C      5   4   3     2.516372804206   127.18140560    29.07307077
 H      1   2   3     2.044013662014   108.45602106   183.82633081
 H      1   2   3     2.054427939402   107.18577475    68.16794480
 H      3   2   1     2.024106223278    56.79009004   288.59537337
 H      3   2   1     2.027497815798   131.54266017   191.80504754
 H      4   3   2     2.035939600054   117.76328174   138.97553305
 H      5   4   3     2.035143412141   114.95408061   205.50904251
 H      6   5   4     2.034665623395   117.75433952   176.51749787

---------------------
BASIS SET INFORMATION
---------------------
There are 2 groups of distinct atoms

 Group   1 Type C   : 10s4p contracted to 3s2p pattern {631/31}
 Group   2 Type H   : 4s contracted to 2s pattern {31}

Atom   0C    basis set group =>   1
Atom   1H    basis set group =>   2
Atom   2C    basis set group =>   1
Atom   3C    basis set group =>   1
Atom   4C    basis set group =>   1
Atom   5C    basis set group =>   1
Atom   6H    basis set group =>   2
Atom   7H    basis set group =>   2
Atom   8H    basis set group =>   2
Atom   9H    basis set group =>   2
Atom  10H    basis set group =>   2
Atom  11H    basis set group =>   2
Atom  12H    basis set group =>   2


           ************************************************************
           *        Program running with 8 parallel MPI-processes     *
           *              working on a common directory               *
           ************************************************************
------------------------------------------------------------------------------
                             ORCA STARTUP CALCULATIONS
------------------------------------------------------------------------------
------------------------------------------------------------------------------
                   ___                                                        
                  /   \      - P O W E R E D   B Y -                         
                 /     \                                                     
                 |  |  |   _    _      __       _____    __    __             
                 |  |  |  | |  | |    /  \     |  _  \  |  |  /  |          
                  \  \/   | |  | |   /    \    | | | |  |  | /  /          
                 / \  \   | |__| |  /  /\  \   | |_| |  |  |/  /          
                |  |  |   |  __  | /  /__\  \  |    /   |      \           
                |  |  |   | |  | | |   __   |  |    \   |  |\   \          
                \     /   | |  | | |  |  |  |  | |\  \  |  | \   \       
                 \___/    |_|  |_| |__|  |__|  |_| \__\ |__|  \__/        
                                                                              
                      - O R C A' S   B I G   F R I E N D -                    
                                      &                                       
                       - I N T E G R A L  F E E D E R -                       
                                                                              
 v1 FN, 2020, v2 2021, v3 2022-2024                                           
------------------------------------------------------------------------------


----------------------
SHARK INTEGRAL PACKAGE
----------------------

Number of atoms                             ...     13
Number of basis functions                   ...     61
Number of shells                            ...     41
Maximum angular momentum                    ...      1
Integral batch strategy                     ... SHARK/LIBINT Hybrid
RI-J (if used) integral strategy            ... SPLIT-RIJ (Revised 2003 algorithm where possible)
Printlevel                                  ...      1
Contraction scheme used                     ... SEGMENTED contraction
Prescreening option                         ... SCHWARTZ
   Thresh                                   ... 1.000e-10
   Tcut                                     ... 1.000e-11
   Tpresel                                  ... 1.000e-11 
Coulomb Range Separation                    ... NOT USED
Exchange Range Separation                   ... NOT USED
Multipole approximations                    ... NOT USED
Finite Nucleus Model                        ... NOT USED
CABS basis                                  ... NOT available
Auxiliary Coulomb fitting basis             ... NOT available
Auxiliary J/K fitting basis                 ... NOT available
Auxiliary Correlation fitting basis         ... NOT available
Auxiliary 'external' fitting basis          ... NOT available

Checking pre-screening integrals            ... done (  0.0 sec) Dimension = 41
   => SHARK Basis and OBASIS are compatible. Storing Pre-screening
Shell pair information
Shell pair cut-off parameter TPreSel        ...   1.0e-11
Total number of shell pairs                 ...       861
Shell pairs after pre-screening             ...       846
Total number of primitive shell pairs       ...      5382
Primitive shell pairs kept                  ...      3724
          la=0 lb=0:    481 shell pairs
          la=1 lb=0:    310 shell pairs
          la=1 lb=1:     55 shell pairs

Checking whether 4 symmetric matrices of dimension 61 fit in memory
:Max Core in MB      =   1200.00
 MB in use           =      2.04
 MB left             =   1197.96
 MB needed           =      0.06
 Data fit in memory  = YES
Calculating Nuclear repulsion               ... done (  0.0 sec) ENN=    160.226641096442 Eh

Diagonalization of the overlap matrix:
Smallest eigenvalue                        ... 3.360e-03
Time for diagonalization                   ...    0.000 sec
Threshold for overlap eigenvalues          ... 1.000e-07
Number of eigenvalues below threshold      ... 0
Time for construction of square roots      ...    0.000 sec
Total time needed                          ...    0.001 sec

-------------------
DFT GRID GENERATION
-------------------

General Integration Accuracy     IntAcc      ... 4.388
Radial Grid Type                 RadialGrid  ... OptM3 with GC (2021)
Angular Grid (max. ang.)         AngularGrid ... 4 (Lebedev-302)
Angular grid pruning method      GridPruning ... 4 (adaptive)
Weight generation scheme         WeightScheme... mBecke (2022)
Basis function cutoff            BFCut       ... 1.0000e-10
Integration weight cutoff        WCut        ... 1.0000e-14
Partially contracted basis set               ... off
Rotationally invariant grid construction     ... off
Angular grids for H and He will be reduced by one unit

Total number of grid points                  ...    56077
Total number of batches                      ...      883
Average number of points per batch           ...       63
Average number of grid points per atom       ...     4314
Grids setup in   0.2 sec
Initializing property integral containers    ... done (  0.0 sec)

SHARK setup successfully completed in   0.2 seconds

Maximum memory used throughout the entire STARTUP-calculation: 11.8 MB


           ************************************************************
           *        Program running with 8 parallel MPI-processes     *
           *              working on a common directory               *
           ************************************************************
-------------------------------------------------------------------------------
                                 ORCA GUESS
                   Start orbitals & Density for SCF / CASSCF
-------------------------------------------------------------------------------

------------
SCF SETTINGS
------------
Hamiltonian:
 Ab initio Hamiltonian  Method          .... Hartree-Fock(GTOs)


General Settings:
 Integral files         IntName         .... h-shift_007
 Hartree-Fock type      HFTyp           .... RHF
 Total Charge           Charge          ....    0
 Multiplicity           Mult            ....    1
 Number of Electrons    NEL             ....   38
 Basis Dimension        Dim             ....   61
 Nuclear Repulsion      ENuc            ....    160.2266410964 Eh

Convergence Acceleration:
 AO-DIIS                CNVDIIS         .... on
   Start iteration      DIISMaxIt       ....    12
   Startup error        DIISStart       ....  0.200000
   # of expansion vecs  DIISMaxEq       ....     5
   Bias factor          DIISBfac        ....   1.050
   Max. coefficient     DIISMaxC        ....  10.000
 MO-DIIS                CNVKDIIS        .... off
 Trust-Rad. Augm. Hess. CNVTRAH         .... auto
   Auto Start mean grad. ratio tolernc. ....  1.125000
   Auto Start start iteration           ....    50
   Auto Start num. interpolation iter.  ....    10
   Max. Number of Micro iterations      ....    24
   Max. Number of Macro iterations      .... Maxiter - #DIIS iter
   Number of Davidson start vectors     ....     2
   Converg. threshold    (grad. norm)   ....   5.000e-05
   Grad. Scal. Fac. for Micro threshold ....   0.100
   Minimum threshold for Micro iter.    ....   1.000e-02
   NR start threshold (gradient norm)   ....   1.000e-04
   Initial trust radius                 ....   0.400
   Minimum AH scaling param. (alpha)    ....   1.000
   Maximum AH scaling param. (alpha)    .... 1000.000
   Quad. conv. algorithm                .... NR
   White noise on init. David. guess    .... on
   Maximum white noise                  ....   0.010
   Pseudo random numbers                .... off
   Inactive MOs                         .... canonical
   Orbital update algorithm             .... Taylor
   Preconditioner                       .... Diag
   Full preconditioner red. dimension   ....   250
 SOSCF                 CNVSOSCF           .... on
   Start iteration     SOSCFMaxIt         ....   150
   Startup grad/error  SOSCFStart         ....  0.003300
   Hessian update      SOSCFHessUp        .... L-BFGS
   Autom. constraints  SOSCFAutoConstrain .... off
 Level Shifting         CNVShift        .... on
   Level shift para.    LevelShift      ....    0.2500
   Turn off err/grad.   ShiftErr        ....    0.0010
 Zerner damping         CNVZerner       .... off
 Static damping         CNVDamp         .... on
   Fraction old density DampFac         ....    0.7000
   Max. Damping (<1)    DampMax         ....    0.9800
   Min. Damping (>=0)   DampMin         ....    0.0000
   Turn off err/grad.   DampErr         ....    0.1000

SCF Procedure:
 Maximum # iterations   MaxIter         ....   125
 SCF integral mode      SCFMode         .... Direct
   Integral package                     .... SHARK and LIBINT hybrid scheme
 Reset frequency        DirectResetFreq ....    20
 Integral Threshold     Thresh          ....  1.000e-10 Eh
 Primitive CutOff       TCut            ....  1.000e-11 Eh

Convergence Tolerance:
 Convergence Check Mode ConvCheckMode   .... Total+1el-Energy
 Convergence forced     ConvForced      .... 0
 Energy Change          TolE            ....  1.000e-06 Eh
 1-El. energy change                    ....  1.000e-03 Eh
 Orbital Gradient       TolG            ....  5.000e-05
 Orbital Rotation angle TolX            ....  5.000e-05
 DIIS Error             TolErr          ....  1.000e-06

------------------------------
INITIAL GUESS: MODEL POTENTIAL
------------------------------
Loading Hartree-Fock densities                     ... done
Calculating cut-offs                               ... done
Initializing the effective Hamiltonian             ... done
Setting up the integral package (SHARK)            ... done
Starting the Coulomb interaction                   ... done (   0.0 sec)
Making the grid                                    ... done (   0.1 sec)
Mapping shells                                     ... done
Starting the XC term evaluation                    ... done (   0.0 sec)
Transforming the Hamiltonian                       ... done (   0.0 sec)
Diagonalizing the Hamiltonian                      ... done (   0.0 sec)
Back transforming the eigenvectors                 ... done (   0.0 sec)
Now organizing SCF variables                       ... done
                      ------------------
                      INITIAL GUESS DONE (   0.1 sec)
                      ------------------
             **** ENERGY FILE WAS UPDATED (h-shift_007.en.tmp) ****
Finished Guess after   0.3 sec
Maximum memory used throughout the entire GUESS-calculation: 4.2 MB


           ************************************************************
           *        Program running with 8 parallel MPI-processes     *
           *              working on a common directory               *
           ************************************************************

-------------------------------------------------------------------------------------------
                                      ORCA LEAN-SCF
                              memory conserving SCF solver
-------------------------------------------------------------------------------------------

----------------------------------------D-I-I-S--------------------------------------------
Iteration    Energy (Eh)           Delta-E    RMSDP     MaxDP     DIISErr   Damp  Time(sec)
-------------------------------------------------------------------------------------------
               ***  Starting incremental Fock matrix formation  ***
    1    -193.6472525291205500     0.00e+00  1.57e-02  5.37e-02  1.90e-01  0.700   0.0
    2    -193.7283794510149448    -8.11e-02  1.25e-02  4.07e-02  1.25e-01  0.700   0.0
                               ***Turning on AO-DIIS***
    3    -193.7785567520471943    -5.02e-02  7.71e-03  2.05e-02  7.45e-02  0.700   0.0
    4    -193.8102673162012763    -3.17e-02  1.83e-02  4.36e-02  5.04e-02  0.000   0.0
                              *** Initializing SOSCF ***
---------------------------------------S-O-S-C-F--------------------------------------
Iteration    Energy (Eh)           Delta-E    RMSDP     MaxDP     MaxGrad    Time(sec)
--------------------------------------------------------------------------------------
    5    -193.8788615889373261    -6.86e-02  1.69e-03  2.83e-03  2.80e-03     0.0
               *** Restarting incremental Fock matrix formation ***
    6    -193.8789816345242514    -1.20e-04  8.60e-04  1.82e-03  1.34e-03     0.0
    7    -193.8790164320897418    -3.48e-05  5.30e-04  1.17e-03  5.39e-04     0.0
    8    -193.8790229872409725    -6.56e-06  6.94e-05  1.85e-04  1.32e-04     0.0
    9    -193.8790231964061661    -2.09e-07  3.14e-05  7.76e-05  3.52e-05     0.0
                 **** Energy Check signals convergence ****

               *****************************************************
               *                     SUCCESS                       *
               *           SCF CONVERGED AFTER   9 CYCLES          *
               *****************************************************

             **** ENERGY FILE WAS UPDATED (h-shift_007.en.tmp) ****

----------------
TOTAL SCF ENERGY
----------------

Total Energy       :       -193.87902325093634 Eh           -5275.71643 eV

Components:
Nuclear Repulsion  :        160.22664109644202 Eh            4359.98856 eV
Electronic Energy  :       -354.10566434737837 Eh           -9635.70500 eV
One Electron Energy:       -577.41567716602333 Eh          -15712.27937 eV
Two Electron Energy:        223.31001281864496 Eh            6076.57438 eV

Virial components:
Potential Energy   :       -388.03570005345932 Eh          -10558.98821 eV
Kinetic Energy     :        194.15667680252295 Eh            5283.27177 eV
Virial Ratio       :          1.99856995105108

---------------
SCF CONVERGENCE
---------------

  Last Energy change         ...    2.0917e-07  Tolerance :   1.0000e-06
  Last MAX-Density change    ...    7.7611e-05  Tolerance :   1.0000e-05
  Last RMS-Density change    ...    3.1390e-05  Tolerance :   1.0000e-06
  Last DIIS Error            ...    2.8038e-03  Tolerance :   1.0000e-06
  Last Orbital Gradient      ...    3.5245e-05  Tolerance :   5.0000e-05
  Last Orbital Rotation      ...    3.4622e-05  Tolerance :   5.0000e-05


----------------
ORBITAL ENERGIES
----------------

  NO   OCC          E(Eh)            E(eV) 
   0   2.0000     -11.236068      -305.7489 
   1   2.0000     -11.235240      -305.7264 
   2   2.0000     -11.227425      -305.5138 
   3   2.0000     -11.221879      -305.3629 
   4   2.0000     -11.216098      -305.2056 
   5   2.0000      -1.099164       -29.9098 
   6   2.0000      -1.022207       -27.8157 
   7   2.0000      -0.941006       -25.6061 
   8   2.0000      -0.814657       -22.1679 
   9   2.0000      -0.715920       -19.4812 
  10   2.0000      -0.666507       -18.1366 
  11   2.0000      -0.604925       -16.4609 
  12   2.0000      -0.585112       -15.9217 
  13   2.0000      -0.567164       -15.4333 
  14   2.0000      -0.539867       -14.6905 
  15   2.0000      -0.506658       -13.7869 
  16   2.0000      -0.468652       -12.7527 
  17   2.0000      -0.413504       -11.2520 
  18   2.0000      -0.315773        -8.5926 
  19   0.0000       0.132439         3.6038 
  20   0.0000       0.234376         6.3777 
  21   0.0000       0.254119         6.9149 
  22   0.0000       0.263241         7.1632 
  23   0.0000       0.291696         7.9374 
  24   0.0000       0.318984         8.6800 
  25   0.0000       0.337771         9.1912 
  26   0.0000       0.346361         9.4250 
  27   0.0000       0.357475         9.7274 
  28   0.0000       0.367361         9.9964 
  29   0.0000       0.427205        11.6248 
*Only the first 10 virtual orbitals were printed.

                    ********************************
                    * MULLIKEN POPULATION ANALYSIS *
                    ********************************

-----------------------
MULLIKEN ATOMIC CHARGES
-----------------------
   0 C :   -0.506332
   1 H :    0.180154
   2 C :   -0.360847
   3 C :   -0.150600
   4 C :   -0.195909
   5 C :   -0.149133
   6 H :    0.159839
   7 H :    0.170205
   8 H :    0.170896
   9 H :    0.161998
  10 H :    0.173613
  11 H :    0.173739
  12 H :    0.172378
Sum of atomic charges:    0.0000000

--------------------------------
MULLIKEN REDUCED ORBITAL CHARGES
--------------------------------
  0 C s       :     3.366177  s :     3.366177
      pz      :     1.028999  p :     3.140156
      px      :     1.111373
      py      :     0.999784

  1 H s       :     0.819846  s :     0.819846

  2 C s       :     3.265588  s :     3.265588
      pz      :     1.019550  p :     3.095259
      px      :     1.080918
      py      :     0.994791

  3 C s       :     3.193837  s :     3.193837
      pz      :     0.999241  p :     2.956763
      px      :     0.962913
      py      :     0.994610

  4 C s       :     3.192147  s :     3.192147
      pz      :     1.017803  p :     3.003762
      px      :     0.921009
      py      :     1.064949

  5 C s       :     3.209615  s :     3.209615
      pz      :     0.945343  p :     2.939519
      px      :     1.038083
      py      :     0.956092

  6 H s       :     0.840161  s :     0.840161

  7 H s       :     0.829795  s :     0.829795

  8 H s       :     0.829104  s :     0.829104

  9 H s       :     0.838002  s :     0.838002

 10 H s       :     0.826387  s :     0.826387

 11 H s       :     0.826261  s :     0.826261

 12 H s       :     0.827622  s :     0.827622



                     *******************************
                     * LOEWDIN POPULATION ANALYSIS *
                     *******************************

----------------------
LOEWDIN ATOMIC CHARGES
----------------------
   0 C :   -0.318555
   1 H :    0.123388
   2 C :   -0.244691
   3 C :   -0.114202
   4 C :   -0.149145
   5 C :   -0.108823
   6 H :    0.111636
   7 H :    0.117223
   8 H :    0.117231
   9 H :    0.116363
  10 H :    0.116481
  11 H :    0.117126
  12 H :    0.115969

-------------------------------
LOEWDIN REDUCED ORBITAL CHARGES
-------------------------------
  0 C s       :     2.975979  s :     2.975979
      pz      :     1.104226  p :     3.342576
      px      :     1.144141
      py      :     1.094209

  1 H s       :     0.876612  s :     0.876612

  2 C s       :     2.988156  s :     2.988156
      pz      :     1.035305  p :     3.256534
      px      :     1.113737
      py      :     1.107493

  3 C s       :     2.944986  s :     2.944986
      pz      :     0.987979  p :     3.169217
      px      :     1.070757
      py      :     1.110480

  4 C s       :     2.940119  s :     2.940119
      pz      :     1.073410  p :     3.209027
      px      :     1.064805
      py      :     1.070811

  5 C s       :     2.951024  s :     2.951024
      pz      :     1.032074  p :     3.157799
      px      :     1.094302
      py      :     1.031423

  6 H s       :     0.888364  s :     0.888364

  7 H s       :     0.882777  s :     0.882777

  8 H s       :     0.882769  s :     0.882769

  9 H s       :     0.883637  s :     0.883637

 10 H s       :     0.883519  s :     0.883519

 11 H s       :     0.882874  s :     0.882874

 12 H s       :     0.884031  s :     0.884031



                      *****************************
                      * MAYER POPULATION ANALYSIS *
                      *****************************

  NA   - Mulliken gross atomic population
  ZA   - Total nuclear charge
  QA   - Mulliken gross atomic charge
  VA   - Mayer's total valence
  BVA  - Mayer's bonded valence
  FA   - Mayer's free valence

  ATOM       NA         ZA         QA         VA         BVA        FA
  0 C      6.5063     6.0000    -0.5063     3.7722     3.7722     0.0000
  1 H      0.8198     1.0000     0.1802     0.9312     0.9312     0.0000
  2 C      6.3608     6.0000    -0.3608     3.8472     3.8472     0.0000
  3 C      6.1506     6.0000    -0.1506     3.8087     3.8087    -0.0000
  4 C      6.1959     6.0000    -0.1959     3.8275     3.8275     0.0000
  5 C      6.1491     6.0000    -0.1491     3.7701     3.7701     0.0000
  6 H      0.8402     1.0000     0.1598     0.9318     0.9318     0.0000
  7 H      0.8298     1.0000     0.1702     0.9227     0.9227     0.0000
  8 H      0.8291     1.0000     0.1709     0.9395     0.9395     0.0000
  9 H      0.8380     1.0000     0.1620     0.9440     0.9440     0.0000
 10 H      0.8264     1.0000     0.1736     0.9372     0.9372     0.0000
 11 H      0.8263     1.0000     0.1737     0.9389     0.9389     0.0000
 12 H      0.8276     1.0000     0.1724     0.9389     0.9389    -0.0000

  Mayer bond orders larger than 0.100000
B(  0-C ,  1-H ) :   0.9463 B(  0-C ,  5-C ) :   0.9566 B(  0-C ,  6-H ) :   0.9592 
B(  0-C ,  7-H ) :   0.9451 B(  2-C ,  3-C ) :   1.8838 B(  2-C ,  8-H ) :   0.9619 
B(  2-C ,  9-H ) :   0.9627 B(  3-C ,  4-C ) :   1.0430 B(  3-C , 10-H ) :   0.9577 
B(  4-C ,  5-C ) :   1.8874 B(  4-C , 11-H ) :   0.9569 B(  5-C , 12-H ) :   0.9584 


-------
TIMINGS
-------

Total SCF time: 0 days 0 hours 0 min 0 sec 

Total time                  ....       0.643 sec
Sum of individual times     ....       0.600 sec  ( 93.4%)

SCF preparation             ....       0.266 sec  ( 41.4%)
Fock matrix formation       ....       0.280 sec  ( 43.6%)
  Startup                   ....       0.001 sec  (  0.5% of F)
  Coulomb+Exchange Fock     ....       0.298 sec  (106.4% of F)
Diagonalization             ....       0.000 sec  (  0.0%)
Density matrix formation    ....       0.008 sec  (  1.2%)
Total Energy calculation    ....       0.005 sec  (  0.7%)
Population analysis         ....       0.005 sec  (  0.7%)
Orbital Transformation      ....       0.004 sec  (  0.7%)
Orbital Orthonormalization  ....       0.000 sec  (  0.0%)
DIIS solution               ....       0.020 sec  (  3.1%)
SOSCF solution              ....       0.013 sec  (  2.0%)
Finished LeanSCF after   0.6 sec

Maximum memory used throughout the entire LEANSCF-calculation: 6.4 MB

-------------------------   --------------------
FINAL SINGLE POINT ENERGY      -193.879023250936
-------------------------   --------------------



           ************************************************************
           *        Program running with 8 parallel MPI-processes     *
           *              working on a common directory               *
           ************************************************************

------------------------------------------------------------------------------
                              ORCA PROPERTY CALCULATIONS
------------------------------------------------------------------------------

GBWName                                 ... h-shift_007.gbw
Number of atoms                         ...     13
Number of basis functions               ...     61
Max core memory                         ...   1200 MB

Electric properties:
Dipole moment                           ... YES
Quadrupole moment                       ...  NO
Static polarizability (Dipole/Dipole)   ...  NO
Static polarizability (Dipole/Quad.)    ...  NO
Static polarizability (Quad./Quad.)     ...  NO
Static polarizability (Velocity)        ...  NO
Static hyperpolarizability              ...  NO

Atomic electric properties:
Dipole moment                           ...  NO
Quadrupole moment                       ...  NO
Static polarizability                   ...  NO

Choice of electric origin               ... Center of mass
Position of electric origin             ...     1.902120    -1.414154     2.040356

General magnetic properties:
Magnetizability                         ...  NO

EPR properties:
g-Tensor (aka g-matrix)                 ...  NO
Zero-Field splitting spin-orbit         ...  NO
Zero-field splitting spin-spin          ...  NO
Hyperfine couplings                     ...  NO (   0 nuclei)
Quadrupole couplings                    ...  NO (   0 nuclei)
Contact density                         ...  NO (   0 nuclei)

NMR properties:
Chemical shifts                         ...  NO (   0 nuclei)
Spin-rotation constants                 ...  NO (   0 nuclei)
Spin-spin couplings                     ...  NO (   0 nuclei,    0 pairs)

Choice of magnetic origin               ... GIAO
Position of magnetic origin             ...     0.000000     0.000000     0.000000

Properties with geometric perturbations:
SCF Hessian                             ...  NO
IR spectrum                             ...  NO
VCD spectrum                            ...  NO
X-ray spectroscopy properties:
SCF XES/XAS/RIXS spectra                ...  NO

SCF SOC stabilization energy            ...  NO
Diagonal Born-Oppenheimer correction    ...  NO

-------------
DIPOLE MOMENT
-------------

Method             : SCF
Type of density    : Electron Density
Multiplicity       :   1
Irrep              :   0
Energy             :  -193.8790232509363420 Eh
Basis              : AO
                                X                 Y                 Z
Electronic contribution:      0.316744029      -1.815271377       1.686785378
Nuclear contribution   :     -0.378403704       1.839688498      -1.777713170
                        -----------------------------------------
Total Dipole Moment    :     -0.061659675       0.024417121      -0.090927792
                        -----------------------------------------
Magnitude (a.u.)       :      0.112543212
Magnitude (Debye)      :      0.286062111



--------------------
Rotational spectrum 
--------------------
 
Rotational constants in cm-1:             0.290152             0.135375             0.095548 
Rotational constants in MHz :          8698.547324          4058.448322          2864.444305 

Dipole components along the rotational axes: 
x,y,z [a.u.] :     0.099057     0.045259    -0.028379 
x,y,z [Debye]:     0.251782     0.115038    -0.072134 

 

Dipole moment calculation done in   0.0 sec 

Maximum memory used throughout the entire PROP-calculation: 2.2 MB

--------------------------------
SUGGESTED CITATIONS FOR THIS RUN
--------------------------------

Below you find a list of papers that are relevant to this ORCA run
We neither can nor want to force you to cite these papers, but we appreciate if you do
You receive ORCA, which is the product of decades of hard work by many enthusiastic individuals, for free
The only thing we kindly ask in return is that you cite our papers,
We deeply appreciate it, if you show your appreciation for ORCA by not just citing the generic ORCA reference.

Please note that relegating all ORCA citations to the supporting information does *not* help us.
SI sections are not indexed - citations you put there will not count into any citation statistics
But we need these citations in order to attract the funding resources that allow us to do what we are doing

Therefore, if you are a happy ORCA user, please consider citing a few of the papers listed below in the main body of your paper

In addition to the list printed below, the program has created the file h-shift_007.bibtex that contains the list in bibtex format
You can import this file easily into all common literature databanks and citation aid programs


List of essential papers. We consider these as the minimum necessary citations

  1. Neese, F.
     Software update: the ORCA program system, version 6.0
     WIRES Comput. Molec. Sci. 2025 15(1), e70019
     doi.org/10.1002/wcms.7019

List of papers to cite with high priority. The work reported in these papers was absolutely
necessary for this run to complete.
Our perspective: the developers of density functionals and basis sets usually get cited in chemistry papers
Good! But without the algorithms to do something with them, the functionals or basis sets would not do anything.
Hence, in our opinion, the algorithm design and method developments papers are equally worthy of getting cited

  1. Neese, F.
     The SHARK Integral Generation and Digestion System
     J. Comp. Chem. 2022 44(3), 381
     doi.org/10.1002/jcc.26942

List of suggested additional citations. These are papers that are important in the 'surrounding' of 
of this run, or papers that preceded the highly important papers. If you like your results we are grateful for a citation.

  1. Neese, F.
     The ORCA program system
     WIRES Comput. Molec. Sci. 2012 2(1), 73-78
     doi.org/10.1002/wcms.81
  2. Neese, F.
     Software update: the ORCA program system, version 4.0
     WIRES Comput. Molec. Sci. 2018 8(1), 1-6
     doi.org/10.1002/wcms.1327
  3. Neese, F.; Wennmohs, F.; Becker, U.; Riplinger, C.
     The ORCA quantum chemistry program package
     J. Chem. Phys. 2020 152(22), 224108
     doi.org/10.1063/5.0004608
  4. Neese, F.
     Software update: The ORCA program system—Version 5.0
     WIRES Comput. Molec. Sci. 2022 12(1), e1606
     doi.org/10.1002/wcms.1606

List of optional additional citations

  1. Neese, F.
     Approximate second-order SCF convergence for spin unrestricted wavefunctions
     Chem. Phys. Lett. 2000 325(1-3), 93-98
     doi.org/10.1016/s0009-2614(00)00662-x

Timings for individual modules:

Sum of individual times          ...        2.173 sec (=   0.036 min)
Startup calculation              ...        0.607 sec (=   0.010 min)  27.9 %
SCF iterations                   ...        1.186 sec (=   0.020 min)  54.6 %
Property calculations            ...        0.381 sec (=   0.006 min)  17.5 %
                             ****ORCA TERMINATED NORMALLY****
TOTAL RUN TIME: 0 days 0 hours 0 minutes 2 seconds 669 msec
