[Molden Format]
[Title]
 Molden file created by orca_2mkl for BaseName=h-shift_092

[Atoms] AU
C    1   6         -0.8971493718         0.0040534626         0.0545374962 
H    2   1          4.1500710264         0.0351885903         0.0496317672 
C    3   6          4.7340323066         0.0189293867         2.0105892380 
C    4   6          3.5034483174        -2.1031631418         3.4389708617 
C    5   6          1.1987685600        -3.0368428095         3.0469169396 
C    6   6         -0.6295679307        -2.2645041797         1.1004158737 
H    7   1         -2.2586157931         0.3250914765        -1.4128140598 
H    8   1          0.1943016411         1.6119836354         0.6204764583 
H    9   1          4.2245489128         1.8397523263         2.8136472559 
H   10   1          6.7730751510        -0.1261146530         2.0768033520 
H   11   1          4.6250272340        -2.9494259683         4.9095198343 
H   12   1          0.6002544989        -4.5941169836         4.2114058675 
H   13   1         -1.8748464303        -3.7499007306         0.4801283880 
[GTO]
  1 0
s   6 1.0 
     3047.5249000000         0.5363343823
      457.3695100000         0.9894506076
      103.9486900000         1.5972822308
       29.2101550000         2.0791870615
        9.2866630000         1.7741742532
        3.1639270000         0.6125798260
s   3 1.0 
        7.8682724000        -0.3995563516
        1.8812885000        -0.1841552393
        0.5442493000         0.5163903794
p   3 1.0 
        7.8682724000         1.2960827175
        1.8812885000         0.9937536282
        0.5442493000         0.4959527138
s   1 1.0 
        0.1687144000         0.1876178721
p   1 1.0 
        0.1687144000         0.1541275509

  2 0
s   3 1.0 
       18.7311370000         0.2149354183
        2.8253937000         0.3645711272
        0.6401217000         0.4150514277
s   1 1.0 
        0.1612778000         0.1813806839

  3 0
s   6 1.0 
     3047.5249000000         0.5363343823
      457.3695100000         0.9894506076
      103.9486900000         1.5972822308
       29.2101550000         2.0791870615
        9.2866630000         1.7741742532
        3.1639270000         0.6125798260
s   3 1.0 
        7.8682724000        -0.3995563516
        1.8812885000        -0.1841552393
        0.5442493000         0.5163903794
p   3 1.0 
        7.8682724000         1.2960827175
        1.8812885000         0.9937536282
        0.5442493000         0.4959527138
s   1 1.0 
        0.1687144000         0.1876178721
p   1 1.0 
        0.1687144000         0.1541275509

  4 0
s   6 1.0 
     3047.5249000000         0.5363343823
      457.3695100000         0.9894506076
      103.9486900000         1.5972822308
       29.2101550000         2.0791870615
        9.2866630000         1.7741742532
        3.1639270000         0.6125798260
s   3 1.0 
        7.8682724000        -0.3995563516
        1.8812885000        -0.1841552393
        0.5442493000         0.5163903794
p   3 1.0 
        7.8682724000         1.2960827175
        1.8812885000         0.9937536282
        0.5442493000         0.4959527138
s   1 1.0 
        0.1687144000         0.1876178721
p   1 1.0 
        0.1687144000         0.1541275509

  5 0
s   6 1.0 
     3047.5249000000         0.5363343823
      457.3695100000         0.9894506076
      103.9486900000         1.5972822308
       29.2101550000         2.0791870615
        9.2866630000         1.7741742532
        3.1639270000         0.6125798260
s   3 1.0 
        7.8682724000        -0.3995563516
        1.8812885000        -0.1841552393
        0.5442493000         0.5163903794
p   3 1.0 
        7.8682724000         1.2960827175
        1.8812885000         0.9937536282
        0.5442493000         0.4959527138
s   1 1.0 
        0.1687144000         0.1876178721
p   1 1.0 
        0.1687144000         0.1541275509

  6 0
s   6 1.0 
     3047.5249000000         0.5363343823
      457.3695100000         0.9894506076
      103.9486900000         1.5972822308
       29.2101550000         2.0791870615
        9.2866630000         1.7741742532
        3.1639270000         0.6125798260
s   3 1.0 
        7.8682724000        -0.3995563516
        1.8812885000        -0.1841552393
        0.5442493000         0.5163903794
p   3 1.0 
        7.8682724000         1.2960827175
        1.8812885000         0.9937536282
        0.5442493000         0.4959527138
s   1 1.0 
        0.1687144000         0.1876178721
p   1 1.0 
        0.1687144000         0.1541275509

  7 0
s   3 1.0 
       18.7311370000         0.2149354183
        2.8253937000         0.3645711272
        0.6401217000         0.4150514277
s   1 1.0 
        0.1612778000         0.1813806839

  8 0
s   3 1.0 
       18.7311370000         0.2149354183
        2.8253937000         0.3645711272
        0.6401217000         0.4150514277
s   1 1.0 
        0.1612778000         0.1813806839

  9 0
s   3 1.0 
       18.7311370000         0.2149354183
        2.8253937000         0.3645711272
        0.6401217000         0.4150514277
s   1 1.0 
        0.1612778000         0.1813806839

 10 0
s   3 1.0 
       18.7311370000         0.2149354183
        2.8253937000         0.3645711272
        0.6401217000         0.4150514277
s   1 1.0 
        0.1612778000         0.1813806839

 11 0
s   3 1.0 
       18.7311370000         0.2149354183
        2.8253937000         0.3645711272
        0.6401217000         0.4150514277
s   1 1.0 
        0.1612778000         0.1813806839

 12 0
s   3 1.0 
       18.7311370000         0.2149354183
        2.8253937000         0.3645711272
        0.6401217000         0.4150514277
s   1 1.0 
        0.1612778000         0.1813806839

 13 0
s   3 1.0 
       18.7311370000         0.2149354183
        2.8253937000         0.3645711272
        0.6401217000         0.4150514277
s   1 1.0 
        0.1612778000         0.1813806839

[5D]
[7F]
[9G]
[MO]
 Sym=     1a
 Ene= -1.12360910274223E+01
 Spin= Alpha
 Occup= 2.000000
  1       0.059278004017
  2       0.000623758327
  3      -0.000003482824
  4       0.000173710555
  5      -0.000108847530
  6       0.005555792840
  7       0.000987090672
  8      -0.001992540591
  9       0.001752696408
 10      -0.000099214742
 11       0.000552206146
 12       0.000274706481
 13      -0.000011402401
 14       0.000049244729
 15       0.000042902785
 16      -0.000022783474
 17       0.000037041195
 18      -0.000028009581
 19      -0.000202024571
 20       0.000437805289
 21       0.028803199350
 22       0.000474247166
 23       0.000169615189
 24       0.000042203515
 25       0.000124106934
 26      -0.000540419280
 27      -0.000486267298
 28      -0.000408630707
 29      -0.000239372782
 30       0.046209700429
 31       0.000490546823
 32       0.000135493580
 33      -0.000067876685
 34       0.000126100970
 35       0.003934879122
 36      -0.001513193442
 37       0.001382508845
 38      -0.001819799270
 39       0.992870858064
 40       0.024858243622
 41       0.000096712424
 42       0.000162530160
 43       0.000020346266
 44      -0.017361663081
 45      -0.001448005173
 46      -0.001803350575
 47      -0.000705966005
 48      -0.000081088371
 49       0.000496067798
 50      -0.000276578162
 51      -0.000332241521
 52       0.000003633257
 53      -0.000015146768
 54       0.000001448788
 55       0.000001085843
 56       0.000041951889
 57       0.000465183948
 58      -0.000084740371
 59       0.000448575835
 60      -0.000268487031
 61       0.002052014856
 Sym=     1a
 Ene= -1.12351685219587E+01
 Spin= Alpha
 Occup= 2.000000
  1       0.002558275266
  2       0.000071380827
  3       0.000028487664
  4       0.000027607199
  5       0.000035859461
  6      -0.000219339136
  7      -0.000214325390
  8      -0.000128491583
  9      -0.000184834411
 10       0.000199932308
 11      -0.000068697544
 12      -0.016732905596
 13       0.000000570260
 14      -0.000017387462
 15      -0.000162619683
 16       0.000039943090
 17      -0.003666035345
 18       0.001274691340
 19       0.002159011780
 20      -0.000721552335
 21      -0.989750202923
 22      -0.024705551264
 23       0.000139122616
 24      -0.000018054122
 25       0.000089301561
 26       0.017176688881
 27      -0.001346181161
 28       0.000838091667
 29      -0.001775174043
 30      -0.106048837316
 31      -0.001648385301
 32       0.000226167242
 33       0.000128508529
 34       0.000002979469
 35      -0.005207390488
 36      -0.002432291534
 37      -0.002002299706
 38       0.000636968870
 39       0.033555932452
 40       0.000990819661
 41       0.000149418966
 42      -0.000028838238
 43       0.000118167571
 44       0.000175016313
 45       0.000345666460
 46       0.000236016946
 47       0.000084858834
 48      -0.000013602456
 49      -0.000118264164
 50       0.000011646113
 51       0.000328601029
 52       0.000197625466
 53      -0.000896747746
 54       0.000093379919
 55      -0.000203111521
 56       0.000265783219
 57      -0.002086082405
 58       0.000048697956
 59      -0.000802276664
 60      -0.000004279458
 61       0.000067656938
 Sym=     1a
 Ene= -1.12274742806480E+01
 Spin= Alpha
 Occup= 2.000000
  1       0.008274705706
  2       0.000371930271
  3       0.000059576093
  4      -0.000130458590
  5       0.000154428923
  6       0.000734802611
  7       0.000205381285
  8       0.000148694407
  9      -0.000163091958
 10      -0.000066796602
 11      -0.000186372481
 12       0.003932339054
 13       0.000077171889
 14      -0.000107181843
 15      -0.000114106926
 16       0.000088428500
 17       0.001801343274
 18      -0.000565265864
 19      -0.000643332785
 20       0.000033299146
 21       0.108018007528
 22       0.003746287662
 23      -0.000226045595
 24      -0.000037450862
 25      -0.000098225366
 26      -0.009478063160
 27       0.003155751932
 28      -0.000179664050
 29       0.002095210796
 30      -0.989412330168
 31      -0.025117716061
 32      -0.000118328459
 33      -0.000171841928
 34       0.000171880069
 35       0.019537634171
 36       0.001337204354
 37       0.002685932320
 38      -0.002078614361
 39       0.042661359267
 40       0.001714858549
 41       0.000123116607
 42      -0.000034972018
 43       0.000110271906
 44      -0.005981613836
 45      -0.002532521952
 46      -0.000061373524
 47      -0.001749177316
 48      -0.000043391932
 49      -0.000327303620
 50       0.000041649508
 51      -0.000318421057
 52      -0.000046810788
 53       0.000148112235
 54      -0.000058334928
 55      -0.000098927047
 56      -0.000006202539
 57      -0.000340831199
 58       0.000296172963
 59      -0.001715699854
 60       0.000064136713
 61      -0.000341159816
 Sym=     1a
 Ene= -1.12220503287875E+01
 Spin= Alpha
 Occup= 2.000000
  1      -0.994330564631
  2      -0.024764790062
  3      -0.000059295813
  4       0.000198208415
  5      -0.000059233375
  6       0.016499802282
  7       0.000390851559
  8      -0.001670430250
  9       0.000800743055
 10       0.000148166625
 11      -0.000916914233
 12       0.000350990254
 13       0.000028474856
 14      -0.000076367448
 15       0.000011394267
 16       0.000058809237
 17      -0.000024308084
 18       0.000260329360
 19       0.000042345004
 20      -0.000653292561
 21       0.000056355617
 22      -0.000013806284
 23      -0.000037570737
 24       0.000018828532
 25      -0.000019567365
 26      -0.000008002054
 27       0.000367129125
 28       0.000364968947
 29      -0.000107887671
 30      -0.005733778968
 31      -0.000031381395
 32      -0.000065933491
 33       0.000079821151
 34      -0.000082816111
 35       0.000505029588
 36       0.000359867037
 37       0.000045166217
 38       0.000249482706
 39       0.060218169813
 40       0.002345869406
 41      -0.000040386075
 42       0.000299685962
 43      -0.000120757421
 44      -0.006836696381
 45       0.000287034040
 46      -0.002849467408
 47       0.001271793785
 48       0.000209718449
 49      -0.002658868875
 50       0.000155696696
 51      -0.002743950323
 52      -0.000035849197
 53       0.000466205218
 54      -0.000005470516
 55      -0.000182051270
 56       0.000005691837
 57       0.000004067947
 58      -0.000034323906
 59      -0.000190416194
 60       0.000114092529
 61       0.000007659304
 Sym=     1a
 Ene= -1.12162471976678E+01
 Spin= Alpha
 Occup= 2.000000
  1       0.000345299765
  2      -0.000012394144
  3      -0.000085034958
  4      -0.000000556313
  5      -0.000089489453
  6       0.000253875501
  7       0.000382890631
  8      -0.000328726017
  9       0.000533975115
 10       0.000074189806
 11       0.003189450805
 12       0.996057653794
 13       0.026107927533
 14      -0.000049225608
 15       0.000013500042
 16       0.000069317267
 17      -0.019224938648
 18       0.000602998395
 19       0.000724881055
 20      -0.000639841471
 21      -0.017227022471
 22      -0.000867623113
 23      -0.000085107970
 24      -0.000116905092
 25       0.000085437882
 26       0.004061764846
 27       0.001638635054
 28       0.002274503083
 29      -0.001347364647
 30       0.002112010581
 31      -0.000132701638
 32      -0.000131473711
 33      -0.000100212931
 34       0.000029537520
 35       0.000566014845
 36       0.000830896684
 37       0.000369586031
 38       0.000145645747
 39       0.000110465546
 40       0.000026799646
 41      -0.000049526998
 42      -0.000035831117
 43      -0.000012626934
 44      -0.000390062997
 45      -0.000073974779
 46      -0.000452631426
 47       0.000190634274
 48       0.000041706403
 49       0.000430680446
 50      -0.000054256752
 51       0.000035958859
 52       0.000069247811
 53       0.003297658447
 54       0.000046717953
 55       0.003139666009
 56      -0.000121051926
 57       0.000097950930
 58       0.000027621258
 59       0.000413932443
 60      -0.000029529447
 61      -0.000031015321
 Sym=     1a
 Ene= -1.09872009668075E+00
 Spin= Alpha
 Occup= 2.000000
  1       0.075986051931
  2      -0.148629694174
  3      -0.014089147347
  4       0.057718284486
  5      -0.031939514963
  6      -0.100976860149
  7       0.000016873183
  8       0.003235776733
  9       0.000908288055
 10      -0.037231735610
 11      -0.002065915044
 12       0.067160755791
 13      -0.125071177900
 14       0.024767956501
 15       0.031014831486
 16      -0.016901167402
 17      -0.118027488817
 18       0.010904418935
 19       0.003514693726
 20      -0.001138760874
 21       0.113428742629
 22      -0.225266128160
 23       0.061364859164
 24       0.007571859053
 25       0.027940862032
 26      -0.137624988888
 27      -0.000115876568
 28       0.004501782618
 29      -0.004861739221
 30       0.126405813284
 31      -0.249497205980
 32      -0.035728130637
 33      -0.041847927585
 34       0.023185735334
 35      -0.164187663686
 36       0.000608671921
 37      -0.004172264548
 38       0.004862373060
 39       0.111198072556
 40      -0.220788412921
 41      -0.032571242891
 42      -0.031544793385
 43      -0.014878599691
 44      -0.139766850316
 45      -0.005140942657
 46       0.000325403220
 47      -0.003574344651
 48      -0.033468768722
 49      -0.001998720242
 50      -0.039731573107
 51      -0.007282724479
 52      -0.033951940119
 53      -0.000319744075
 54      -0.031647980465
 55      -0.004507373798
 56      -0.053458792230
 57      -0.004454234527
 58      -0.060004824241
 59      -0.008882917189
 60      -0.053556032312
 61      -0.008243730413
 Sym=     1a
 Ene= -1.02235955556584E+00
 Spin= Alpha
 Occup= 2.000000
  1       0.120623217593
  2      -0.236837884637
  3      -0.002427789735
  4       0.078621808687
  5      -0.031730582795
  6      -0.181875920489
  7      -0.002087317600
  8       0.002927878844
  9      -0.003742846320
 10       0.055045871012
 11       0.005641148767
 12      -0.101154443382
 13       0.192168245293
 14      -0.014349368325
 15      -0.029725789943
 16       0.022477560614
 17       0.180306857763
 18       0.000559670131
 19      -0.000924195270
 20       0.003306163306
 21      -0.102282975446
 22       0.203012543599
 23       0.005014395562
 24       0.020095232296
 25      -0.018440656960
 26       0.147400457076
 27       0.002370598399
 28       0.006038267228
 29      -0.004635442075
 30      -0.021097490653
 31       0.042007987856
 32       0.100932325514
 33       0.008105621137
 34       0.048265088978
 35       0.027117622016
 36       0.008703630895
 37      -0.011294195465
 38       0.013109208144
 39       0.114982876147
 40      -0.229609867152
 41       0.026175099245
 42      -0.077366026192
 43       0.047109669304
 44      -0.158405687087
 45       0.011283247427
 46       0.004078481981
 47       0.006302271554
 48      -0.068575351504
 49      -0.015586713557
 50      -0.061355191083
 51      -0.006261017531
 52       0.058625511153
 53       0.005685481217
 54       0.060113551125
 55       0.008713772959
 56       0.063095696369
 57       0.016526432722
 58       0.010359225692
 59      -0.003766075013
 60      -0.067660710348
 61      -0.011136175109
 Sym=     1a
 Ene= -9.40815318954095E-01
 Spin= Alpha
 Occup= 2.000000
  1       0.079593488470
  2      -0.156176299255
  3       0.000954998296
  4       0.015203593148
  5      -0.002055187797
  6      -0.135518218011
  7      -0.004025207141
  8      -0.002027919678
  9       0.000027931371
 10      -0.098185884703
 11      -0.022912296761
 12       0.139169895306
 13      -0.262297198657
 14      -0.015386177222
 15      -0.019572508421
 16       0.008064119502
 17      -0.293134451272
 18       0.002550750164
 19      -0.002153560431
 20      -0.001172508735
 21      -0.029877817211
 22       0.056175401303
 23      -0.134105375383
 24      -0.114779342052
 25       0.035942419209
 26       0.074417086348
 27      -0.019386348668
 28      -0.010486880524
 29       0.000212804765
 30      -0.118146619936
 31       0.235057718072
 32       0.036461462241
 33      -0.010505995718
 34       0.024304860892
 35       0.182693846952
 36      -0.005592768476
 37      -0.015092138402
 38       0.007664612930
 39       0.006218541396
 40      -0.011192084581
 41       0.052872961579
 42      -0.088082123336
 43       0.081329349023
 44      -0.007825335750
 45       0.014152863006
 46      -0.006061935811
 47       0.014217219848
 48      -0.058141659890
 49      -0.018718263021
 50      -0.057872504919
 51      -0.016052958040
 52      -0.099868787655
 53      -0.024713848248
 54      -0.101854228999
 55      -0.027933758821
 56       0.020646095815
 57       0.007331853893
 58       0.091227961851
 59       0.025415728889
 60      -0.000665805217
 61       0.003693737486
 Sym=     1a
 Ene= -8.14909643537196E-01
 Spin= Alpha
 Occup= 2.000000
  1       0.102419429668
  2      -0.203997437198
  3       0.012839344861
  4      -0.081129683209
  5       0.040934645419
  6      -0.190210735847
  7       0.004724825805
  8      -0.031867329643
  9       0.015539699059
 10       0.059861165864
 11       0.023400991750
 12      -0.058553623261
 13       0.110701671914
 14       0.034926453369
 15       0.062260460346
 16      -0.044468056798
 17       0.144447804187
 18       0.015152703437
 19       0.014031321650
 20      -0.008084322809
 21       0.091357689723
 22      -0.182538888805
 23       0.018047395148
 24       0.063072104221
 25      -0.059198363646
 26      -0.176997201474
 27      -0.013317298220
 28       0.007794280327
 29      -0.018758613264
 30      -0.031487087441
 31       0.065786430843
 32      -0.194506869264
 33      -0.033610805595
 34      -0.097202270520
 35       0.055051627019
 36      -0.047274337978
 37      -0.008495002227
 38      -0.023504165330
 39      -0.086401670622
 40       0.176479881401
 41       0.025340467282
 42      -0.152285772467
 43       0.083477365804
 44       0.162295847401
 45       0.002309721452
 46      -0.050412103386
 47       0.022213571191
 48      -0.113244959101
 49      -0.048365954131
 50      -0.109762278683
 51      -0.043582225820
 52       0.058794689615
 53       0.023632750907
 54       0.059801590416
 55       0.020358974964
 56      -0.106190990604
 57      -0.043793563982
 58       0.041752343000
 59       0.018970691121
 60       0.108645325317
 61       0.044592581685
 Sym=     1a
 Ene= -7.15606058857646E-01
 Spin= Alpha
 Occup= 2.000000
  1       0.040150659026
  2      -0.080746217424
  3      -0.057949727852
  4      -0.198824789742
  5       0.012866319811
  6      -0.081680506185
  7      -0.017038761296
  8      -0.066211064084
  9       0.007782533972
 10      -0.080884050974
 11      -0.045081702006
 12       0.023112037860
 13      -0.041572804390
 14       0.011934554548
 15      -0.108148067416
 16       0.104897888230
 17      -0.066482358257
 18       0.006494117096
 19      -0.038558233085
 20       0.037307959554
 21      -0.073522124667
 22       0.149683317945
 23       0.168218204298
 24       0.006580593629
 25       0.079942796755
 26       0.152578476354
 27       0.073048925618
 28      -0.002972668213
 29       0.038601829929
 30       0.077490844456
 31      -0.158623903912
 32       0.030144784958
 33       0.028883912286
 34      -0.026214802761
 35      -0.151573234877
 36       0.031848729120
 37       0.034813888922
 38      -0.017455802905
 39      -0.069733335997
 40       0.142023866271
 41      -0.137330974869
 42      -0.030153748541
 43      -0.120712902849
 44       0.140541644778
 45      -0.055089788629
 46      -0.042668183573
 47      -0.033621546655
 48      -0.042472907730
 49      -0.020366888722
 50      -0.142098145279
 51      -0.087126764976
 52      -0.053113039497
 53      -0.029675520198
 54      -0.006790350983
 55      -0.000362508392
 56       0.152136967749
 57       0.076951773656
 58      -0.100497737525
 59      -0.040919571009
 60       0.143442577517
 61       0.068782190206
 Sym=     1a
 Ene= -6.66195870707600E-01
 Spin= Alpha
 Occup= 2.000000
  1       0.021367736604
  2      -0.042394665406
  3       0.133580817880
  4      -0.090717420748
  5       0.142703675081
  6      -0.061129407570
  7       0.056542033355
  8      -0.022861615928
  9       0.051586623849
 10       0.016401864616
 11       0.010188560755
 12       0.015614631624
 13      -0.027997339999
 14      -0.136477398391
 15      -0.065349502693
 16      -0.009999552379
 17      -0.048667600265
 18      -0.061481170977
 19      -0.022533766938
 20      -0.011616793087
 21      -0.024265883059
 22       0.051157235684
 23      -0.104091577592
 24       0.085016298312
 25      -0.133699197808
 26       0.037000728152
 27      -0.023648694736
 28       0.037093533896
 29      -0.044914651796
 30       0.019762317091
 31      -0.038110835857
 32       0.091206962608
 33       0.231228166969
 34      -0.155299392336
 35      -0.048155994401
 36       0.040082562654
 37       0.097020353180
 38      -0.062331939424
 39      -0.025762753334
 40       0.055509377193
 41       0.124896011544
 42       0.144493410677
 43       0.027331729423
 44       0.047507603323
 45       0.040808637311
 46       0.045330981707
 47       0.006448348575
 48      -0.139935820831
 49      -0.087698887453
 50       0.001183521311
 51      -0.004277080978
 52      -0.030151884735
 53      -0.017129955440
 54      -0.091031586221
 55      -0.055427273061
 56      -0.081521630470
 57      -0.058089796359
 58      -0.187221383387
 59      -0.114378164045
 60      -0.081324926273
 61      -0.060049897896
 Sym=     1a
 Ene= -6.05570732861506E-01
 Spin= Alpha
 Occup= 2.000000
  1      -0.006658113922
  2       0.014559407643
  3       0.180166194552
  4       0.104152350100
  5       0.173319105483
  6       0.027931693456
  7       0.079889165105
  8       0.046778896131
  9       0.081469014696
 10      -0.108980670032
 11      -0.072959866469
 12       0.009849431748
 13      -0.018457827633
 14       0.102843306448
 15      -0.030912803301
 16       0.146584067440
 17      -0.031432276957
 18       0.041533995763
 19      -0.013754262953
 20       0.068578511820
 21       0.003467752311
 22      -0.009845331475
 23       0.238959096355
 24       0.037375019793
 25       0.133503543220
 26       0.002018638106
 27       0.093801813997
 28       0.008803435583
 29       0.061861216423
 30       0.009832819728
 31      -0.021676353741
 32      -0.229038546565
 33      -0.041015000813
 34      -0.047765768857
 35       0.007136376434
 36      -0.067575942927
 37       0.001600169719
 38      -0.014018920201
 39      -0.013296418901
 40       0.030756762850
 41       0.127977180809
 42       0.057326040049
 43       0.148787486487
 44       0.022459322872
 45       0.038587931127
 46       0.012553982034
 47       0.058700221360
 48      -0.133585344722
 49      -0.092462108859
 50       0.141307008701
 51       0.091449237225
 52      -0.003884907261
 53       0.001760645069
 54       0.060269251296
 55       0.049475515592
 56       0.130488683415
 57       0.091607493217
 58       0.033713105327
 59       0.030850319122
 60      -0.086618358636
 61      -0.068533646092
 Sym=     1a
 Ene= -5.85136692338019E-01
 Spin= Alpha
 Occup= 2.000000
  1      -0.007259348126
  2       0.019448192208
  3       0.048853130179
  4      -0.284340027455
  5       0.157855396285
  6      -0.016635683693
  7       0.013477258847
  8      -0.101423367450
  9       0.055825217473
 10       0.017848837509
 11       0.010240724234
 12      -0.005843661798
 13       0.005957880975
 14       0.120256190123
 15       0.179056513633
 16      -0.058904647245
 17       0.036269385874
 18       0.051354424095
 19       0.075235810307
 20      -0.021741337015
 21       0.024945090452
 22      -0.051060276967
 23      -0.107551238182
 24      -0.142257300482
 25       0.122319392299
 26      -0.085870830333
 27      -0.040358896288
 28      -0.056437486871
 29       0.055481981380
 30      -0.009054139168
 31       0.017560305280
 32       0.102352080468
 33      -0.043672615124
 34       0.168196236376
 35       0.018095910638
 36       0.037375565733
 37      -0.017281225564
 38       0.072891757665
 39      -0.008212009448
 40       0.019391904110
 41      -0.039573559133
 42       0.308367919013
 43      -0.119695491269
 44      -0.003300167781
 45      -0.006304374775
 46       0.111218822652
 47      -0.031639819285
 48      -0.115790519263
 49      -0.091134544033
 50      -0.091092962901
 51      -0.066900965066
 52       0.071856468813
 53       0.053889002919
 54       0.073283838875
 55       0.054316351898
 56       0.025053190379
 57       0.021077523442
 58       0.073740735122
 59       0.051654885037
 60      -0.097355671075
 61      -0.072865559137
 Sym=     1a
 Ene= -5.66969935564802E-01
 Spin= Alpha
 Occup= 2.000000
  1       0.005438237195
  2      -0.011233485998
  3      -0.031110243615
  4       0.020572155647
  5      -0.011203358814
  6      -0.014780389371
  7      -0.016154522977
  8       0.003740504513
  9       0.002830488100
 10      -0.129897684594
 11      -0.100588424690
 12       0.000435756752
 13      -0.001769197954
 14      -0.196980052981
 15       0.258736278144
 16       0.261010380485
 17      -0.000379474273
 18      -0.096975190830
 19       0.132314447100
 20       0.132941680437
 21      -0.005549684448
 22       0.009080394373
 23      -0.060061038923
 24       0.099128977479
 25       0.063719812869
 26       0.031888828681
 27      -0.038602894026
 28       0.046377276903
 29       0.029222526401
 30       0.002936669877
 31      -0.003542518250
 32      -0.014167367609
 33       0.047862345206
 34       0.049329337627
 35      -0.024143988747
 36      -0.023016646531
 37       0.021842994142
 38       0.033352583494
 39      -0.000427772820
 40       0.000989924529
 41      -0.049281560750
 42      -0.036632630248
 43       0.007379020181
 44       0.002046372164
 45      -0.023217514055
 46      -0.015788593092
 47       0.004032738849
 48       0.014528215534
 49       0.013471883650
 50      -0.000280412543
 51       0.009811460582
 52       0.255086176539
 53       0.198813406694
 54      -0.139989681903
 55      -0.109606977390
 56      -0.012863647016
 57      -0.011205420830
 58      -0.005559082712
 59      -0.007890898496
 60       0.037747681922
 61       0.028578373296
 Sym=     1a
 Ene= -5.39225837636388E-01
 Spin= Alpha
 Occup= 2.000000
  1       0.009581050650
  2      -0.021488799654
  3       0.149835168388
  4       0.077643641297
  5       0.105805754412
  6      -0.006303288694
  7       0.094114652390
  8       0.036629385560
  9       0.063526566838
 10       0.188781291244
 11       0.147947960176
 12       0.005235162970
 13      -0.013175243674
 14      -0.221491804052
 15       0.057145407462
 16      -0.221640127462
 17       0.004014101519
 18      -0.133613441606
 19       0.026028228977
 20      -0.120289645034
 21      -0.007758583793
 22       0.015094146537
 23       0.069079885055
 24      -0.086563213457
 25       0.099772789048
 26       0.017640524664
 27       0.042321589303
 28      -0.055762727888
 29       0.064178757952
 30       0.035551408575
 31      -0.079604249560
 32       0.008775788860
 33      -0.102569207500
 34       0.074477925343
 35      -0.073203189419
 36       0.011479957171
 37      -0.023731880121
 38       0.013597741000
 39      -0.007896331585
 40       0.014291048026
 41      -0.106333240381
 42      -0.085322919626
 43      -0.076142919924
 44       0.017142848775
 45      -0.069601605674
 46      -0.063179063187
 47      -0.046519379373
 48      -0.128111193355
 49      -0.092208722819
 50       0.120832050415
 51       0.092155660906
 52       0.009975140399
 53       0.010888546948
 54      -0.169244766482
 55      -0.131315347330
 56       0.111274601967
 57       0.077097732599
 58       0.036342422913
 59       0.045789644378
 60       0.116221139693
 61       0.079232454458
 Sym=     1a
 Ene= -5.06782364337473E-01
 Spin= Alpha
 Occup= 2.000000
  1       0.011968711582
  2      -0.027220545621