[Molden Format]
[Title]
 Molden file created by orca_2mkl for BaseName=h-shift_012

[Atoms] AU
C    1   6         -0.0142409761         0.0200670018        -0.3309420687 
H    2   1          1.9145533559         0.0319760559        -1.0154689045 
C    3   6          4.8791481559         0.0139915323         2.8975208606 
C    4   6          3.8820511688        -2.2412000770         3.3840837661 
C    5   6          1.2344390305        -3.0389045008         3.1080665875 
C    6   6         -0.4452534922        -2.1327184586         1.4664690539 
H    7   1         -1.2721485155        -0.0695060169        -1.9385736648 
H    8   1         -0.3340865729         1.8212178924         0.6037410436 
H    9   1          3.7704307153         1.6217346222         2.3678551917 
H   10   1          6.8784047062         0.3208641592         3.0236052780 
H   11   1          5.1378837889        -3.7155247225         4.0099138185 
H   12   1          0.6734284743        -4.6038188376         4.2818302914 
H   13   1         -2.2752793981        -3.0175732722         1.3862690768 
[GTO]
  1 0
s   6 1.0 
     3047.5249000000         0.5363343823
      457.3695100000         0.9894506076
      103.9486900000         1.5972822308
       29.2101550000         2.0791870615
        9.2866630000         1.7741742532
        3.1639270000         0.6125798260
s   3 1.0 
        7.8682724000        -0.3995563516
        1.8812885000        -0.1841552393
        0.5442493000         0.5163903794
p   3 1.0 
        7.8682724000         1.2960827175
        1.8812885000         0.9937536282
        0.5442493000         0.4959527138
s   1 1.0 
        0.1687144000         0.1876178721
p   1 1.0 
        0.1687144000         0.1541275509

  2 0
s   3 1.0 
       18.7311370000         0.2149354183
        2.8253937000         0.3645711272
        0.6401217000         0.4150514277
s   1 1.0 
        0.1612778000         0.1813806839

  3 0
s   6 1.0 
     3047.5249000000         0.5363343823
      457.3695100000         0.9894506076
      103.9486900000         1.5972822308
       29.2101550000         2.0791870615
        9.2866630000         1.7741742532
        3.1639270000         0.6125798260
s   3 1.0 
        7.8682724000        -0.3995563516
        1.8812885000        -0.1841552393
        0.5442493000         0.5163903794
p   3 1.0 
        7.8682724000         1.2960827175
        1.8812885000         0.9937536282
        0.5442493000         0.4959527138
s   1 1.0 
        0.1687144000         0.1876178721
p   1 1.0 
        0.1687144000         0.1541275509

  4 0
s   6 1.0 
     3047.5249000000         0.5363343823
      457.3695100000         0.9894506076
      103.9486900000         1.5972822308
       29.2101550000         2.0791870615
        9.2866630000         1.7741742532
        3.1639270000         0.6125798260
s   3 1.0 
        7.8682724000        -0.3995563516
        1.8812885000        -0.1841552393
        0.5442493000         0.5163903794
p   3 1.0 
        7.8682724000         1.2960827175
        1.8812885000         0.9937536282
        0.5442493000         0.4959527138
s   1 1.0 
        0.1687144000         0.1876178721
p   1 1.0 
        0.1687144000         0.1541275509

  5 0
s   6 1.0 
     3047.5249000000         0.5363343823
      457.3695100000         0.9894506076
      103.9486900000         1.5972822308
       29.2101550000         2.0791870615
        9.2866630000         1.7741742532
        3.1639270000         0.6125798260
s   3 1.0 
        7.8682724000        -0.3995563516
        1.8812885000        -0.1841552393
        0.5442493000         0.5163903794
p   3 1.0 
        7.8682724000         1.2960827175
        1.8812885000         0.9937536282
        0.5442493000         0.4959527138
s   1 1.0 
        0.1687144000         0.1876178721
p   1 1.0 
        0.1687144000         0.1541275509

  6 0
s   6 1.0 
     3047.5249000000         0.5363343823
      457.3695100000         0.9894506076
      103.9486900000         1.5972822308
       29.2101550000         2.0791870615
        9.2866630000         1.7741742532
        3.1639270000         0.6125798260
s   3 1.0 
        7.8682724000        -0.3995563516
        1.8812885000        -0.1841552393
        0.5442493000         0.5163903794
p   3 1.0 
        7.8682724000         1.2960827175
        1.8812885000         0.9937536282
        0.5442493000         0.4959527138
s   1 1.0 
        0.1687144000         0.1876178721
p   1 1.0 
        0.1687144000         0.1541275509

  7 0
s   3 1.0 
       18.7311370000         0.2149354183
        2.8253937000         0.3645711272
        0.6401217000         0.4150514277
s   1 1.0 
        0.1612778000         0.1813806839

  8 0
s   3 1.0 
       18.7311370000         0.2149354183
        2.8253937000         0.3645711272
        0.6401217000         0.4150514277
s   1 1.0 
        0.1612778000         0.1813806839

  9 0
s   3 1.0 
       18.7311370000         0.2149354183
        2.8253937000         0.3645711272
        0.6401217000         0.4150514277
s   1 1.0 
        0.1612778000         0.1813806839

 10 0
s   3 1.0 
       18.7311370000         0.2149354183
        2.8253937000         0.3645711272
        0.6401217000         0.4150514277
s   1 1.0 
        0.1612778000         0.1813806839

 11 0
s   3 1.0 
       18.7311370000         0.2149354183
        2.8253937000         0.3645711272
        0.6401217000         0.4150514277
s   1 1.0 
        0.1612778000         0.1813806839

 12 0
s   3 1.0 
       18.7311370000         0.2149354183
        2.8253937000         0.3645711272
        0.6401217000         0.4150514277
s   1 1.0 
        0.1612778000         0.1813806839

 13 0
s   3 1.0 
       18.7311370000         0.2149354183
        2.8253937000         0.3645711272
        0.6401217000         0.4150514277
s   1 1.0 
        0.1612778000         0.1813806839

[5D]
[7F]
[9G]
[MO]
 Sym=     1a
 Ene= -1.12360795873442E+01
 Spin= Alpha
 Occup= 2.000000
  1      -0.000424803127
  2       0.000019087291
  3       0.000009421323
  4      -0.000048258472
  5       0.000053696594
  6      -0.000078494575
  7       0.000341250903
  8       0.000237340894
  9      -0.000280663892
 10       0.000103151850
 11      -0.000553337473
 12      -0.057677597519
 13      -0.000593427703
 14      -0.000090101219
 15      -0.000174957514
 16       0.000073231658
 17      -0.005521952304
 18       0.001973444114
 19       0.001989657571
 20      -0.000352276968
 21      -0.992553201414
 22      -0.024843410915
 23       0.000065443618
 24      -0.000153614398
 25       0.000085756408
 26       0.017321811225
 27      -0.001384408245
 28       0.001740131937
 29      -0.000810688600
 30      -0.047160599751
 31      -0.000504987100
 32       0.000178405342
 33       0.000070052195
 34       0.000028370296
 35      -0.003939695736
 36      -0.002316143849
 37      -0.001392502503
 38      -0.000074663151
 39      -0.039474968571
 40      -0.000729960443
 41       0.000195208960
 42      -0.000040051635
 43       0.000063501048
 44       0.000698201088
 45      -0.000481394915
 46       0.000397951585
 47      -0.000265881248
 48       0.000001588928
 49       0.000001375566
 50      -0.000002677005
 51       0.000006680894
 52       0.000275672098
 53       0.000309514190
 54       0.000080959079
 55      -0.000494179599
 56       0.000265306418
 57      -0.002072543926
 58       0.000083894139
 59      -0.000439984767
 60      -0.000039897120
 61      -0.000491871870
 Sym=     1a
 Ene= -1.12354032907205E+01
 Spin= Alpha
 Occup= 2.000000
  1       0.016141181900
  2      -0.000006320283
  3       0.000025682297
  4       0.000159691662
  5      -0.000034819455
  6       0.003668627093
  7       0.000128494578
  8      -0.002181427137
  9       0.001433065028
 10      -0.000199690437
 11       0.000114090269
 12      -0.003083452196
 13      -0.000070247940
 14       0.000037793224
 15      -0.000031046837
 16       0.000001280161
 17       0.000159478778
 18      -0.000217733847
 19       0.000180383587
 20      -0.000046134241
 21      -0.044085767357
 22      -0.001266268894
 23       0.000181776323
 24       0.000035412335
 25       0.000050912218
 26       0.000064093339
 27       0.000254353184
 28      -0.000217557291
 29       0.000188579963
 30       0.101736475949
 31       0.001552540415
 32       0.000137022263
 33      -0.000127528057
 34       0.000177482919
 35       0.005226710629
 36      -0.000992355399
 37       0.001988955382
 38      -0.002355918222
 39       0.989801978677
 40       0.024720434739
 41       0.000164878403
 42       0.000029611366
 43       0.000063625924
 44      -0.017239311690
 45      -0.002269686002
 46      -0.000908497885
 47      -0.000094864681
 48      -0.000090979846
 49       0.000190855152
 50      -0.000201030439
 51       0.000903352471
 52       0.000001793166
 53      -0.000363523435
 54       0.000011099928
 55       0.000089798269
 56       0.000005991194
 57      -0.000094607000
 58      -0.000047629902
 59       0.000794626527
 60      -0.000267366848
 61       0.002060496449
 Sym=     1a
 Ene= -1.12274279857371E+01
 Spin= Alpha
 Occup= 2.000000
  1       0.003657493436
  2       0.000075864003
  3      -0.000009662067
  4      -0.000112688045
  5       0.000141067855
  6       0.001787437364
  7       0.000283468195
  8      -0.000653586222
  9       0.000425231920
 10      -0.000062889718
 11      -0.000177580911
 12       0.007810837383
 13       0.000349826836
 14      -0.000158751337
 15      -0.000129312859
 16       0.000050096770
 17       0.000803487355
 18      -0.000017385603
 19       0.000111610455
 20      -0.000261753962
 21       0.042679693858
 22       0.001720120198
 23      -0.000163087637
 24      -0.000035688346
 25      -0.000033382098
 26      -0.006059632415
 27       0.002919687407
 28      -0.000058094930
 29       0.000981446474
 30      -0.989823218608
 31      -0.025134316383
 32      -0.000077387430
 33      -0.000170558198
 34       0.000220030210
 35       0.019572802666
 36       0.000874941630
 37       0.002692200884
 38      -0.002425340791
 39       0.104205562679
 40       0.003647136841
 41       0.000209440332
 42      -0.000031380862
 43       0.000125448226
 44      -0.009465889296
 45      -0.003548767412
 46      -0.000206093417
 47      -0.001353889487
 48      -0.000059527951
 49      -0.000126887902
 50      -0.000035507402
 51       0.000148577842
 52       0.000037625176
 53      -0.000315881708
 54      -0.000044987973
 55      -0.000323621628
 56       0.000066533842
 57      -0.000350966628
 58       0.000298571712
 59      -0.001690024956
 60      -0.000001239091
 61      -0.000346469705
 Sym=     1a
 Ene= -1.12217029865775E+01
 Spin= Alpha
 Occup= 2.000000
  1       0.000390262136
  2       0.000041662792
  3       0.000004857036
  4       0.000009566061
  5       0.000108659496
  6      -0.000027717353
  7       0.000368533082
  8       0.000066250343
  9      -0.000698414486
 10       0.000156697159
 11      -0.001017490746
 12      -0.994428395495
 13      -0.024794891816
 14       0.000087312497
 15       0.000200634595
 16       0.000017082030
 17       0.016544145086
 18      -0.000906095285
 19      -0.001671977757
 20       0.000177061663
 21       0.058624117052
 22       0.002304185431
 23       0.000122142863
 24       0.000295559615
 25      -0.000046628938
 26      -0.006834484062
 27      -0.001182574516
 28      -0.002831029004
 29       0.000630739887
 30      -0.005338916863
 31      -0.000028415436
 32       0.000107987670
 33       0.000080862613
 34       0.000002010911
 35       0.000490217848
 36      -0.000407996265
 37       0.000019856040
 38      -0.000132550991
 39       0.000023809035
 40      -0.000024589263
 41       0.000039105361
 42       0.000019109654
 43       0.000017157950
 44       0.000081142080
 45      -0.000098085775
 46       0.000400967458
 47      -0.000358291063
 48      -0.000013654078
 49      -0.000226318216
 50      -0.000025119959
 51       0.000494232787
 52       0.000144278988
 53      -0.002737240687
 54       0.000211081677
 55      -0.002653556747
 56       0.000114164602
 57       0.000004613186
 58      -0.000035714131
 59      -0.000203159729
 60       0.000006072226
 61       0.000014947871
 Sym=     1a
 Ene= -1.12156978094336E+01
 Spin= Alpha
 Occup= 2.000000
  1       0.996067593589
  2       0.026124058143
  3      -0.000015479426
  4       0.000010659956
  5       0.000094401976
  6      -0.019219329961
  7       0.000113621888
  8       0.000721130729
  9      -0.000880202401
 10       0.000075497508
 11       0.003208134092
 12       0.000385656280
 13      -0.000023796267
 14       0.000134583803
 15      -0.000003671326
 16       0.000012034847
 17       0.000272864604
 18      -0.000738597403
 19      -0.000312379297
 20       0.000039854474
 21       0.000121123301
 22       0.000021622152
 23       0.000044044496
 24      -0.000039209068
 25       0.000035769755
 26      -0.000458039669
 27      -0.000068707745
 28      -0.000439938460
 29       0.000179375836
 30       0.001963291344
 31      -0.000143006701
 32       0.000053973901
 33      -0.000096827509
 34       0.000120501494
 35       0.000602645331
 36      -0.000556074460
 37       0.000388612978
 38      -0.000594129831
 39      -0.016603966715
 40      -0.000848720275
 41      -0.000013652420
 42      -0.000113662043
 43       0.000115101312
 44       0.004064355564
 45       0.000086768226
 46       0.002256843936
 47      -0.002062817071
 48       0.000041405401
 49       0.003118600593
 50       0.000071565307
 51       0.003311598401
 52      -0.000048940254
 53      -0.000018713201
 54       0.000050521122
 55       0.000470703335
 56      -0.000027998178
 57      -0.000025216490
 58       0.000030185268
 59       0.000429203984
 60      -0.000127868524
 61       0.000074209302
 Sym=     1a
 Ene= -1.09969314513328E+00
 Spin= Alpha
 Occup= 2.000000
  1      -0.068080719396
  2       0.126543694916
  3       0.001497184629
  4      -0.031601382727
  5       0.030026634719
  6       0.119854264382
  7       0.006461800876
  8      -0.003612879355
  9       0.010065719614
 10       0.038056598583
 11       0.001785376261
 12      -0.075454105790
 13       0.147474694509
 14      -0.033901451817
 15      -0.056881792583
 16       0.009265386330
 17       0.100286675315
 18       0.000777056844
 19      -0.003145687023
 20      -0.000746879939
 21      -0.110649230482
 22       0.219623790173
 23      -0.031659342103
 24       0.030161518275
 25      -0.018941031977
 26       0.139069962194
 27      -0.006021748735
 28      -0.000206008953
 29      -0.002274786763
 30      -0.126138341946
 31       0.248919647848
 32      -0.002416712565
 33       0.041790541662
 34      -0.044819652748
 35       0.163891142977
 36       0.004168804308
 37       0.004047285849
 38      -0.002755435831
 39      -0.113733208451
 40       0.225858205076
 41       0.059750437652
 42      -0.005888708309
 43       0.033226059576
 44       0.137370562871
 45      -0.003919322461
 46      -0.004414115526
 47       0.002455762940
 48       0.031840051929
 49       0.004903852201
 50       0.034587595704
 51       0.000270715367
 52       0.039634610456
 53       0.007179829144
 54       0.033164118712
 55       0.001832148888
 56       0.053207014355
 57       0.008262790697
 58       0.059366046509
 59       0.008566387486
 60       0.053190621171
 61       0.004321691247
 Sym=     1a
 Ene= -1.02167947108000E+00
 Spin= Alpha
 Occup= 2.000000
  1       0.100501522987
  2      -0.191019840039
  3       0.009736039069
  4       0.030085610038
  5      -0.024580466274
  6      -0.179017367859
  7       0.003004143899
  8       0.000884502432
  9      -0.001615579368
 10      -0.054243171495
 11      -0.005442933855
 12      -0.121267463046
 13       0.238032819966
 14      -0.026462538120
 15      -0.078669195330
 16       0.019246573334
 17       0.183330340462
 18      -0.004308322043
 19      -0.002959122144
 20       0.000711558180
 21      -0.115654599631
 22       0.230973878715
 23       0.054131120008
 24       0.076962817066
 25      -0.010637279933
 26       0.159624036191
 27       0.011886500123
 28      -0.004263882779
 29       0.004888647531
 30       0.020793767078
 31      -0.041381453136
 32       0.098652245288
 33      -0.006971692585
 34       0.052221893152
 35      -0.026133938535
 36       0.015089959784
 37       0.011554094933
 38      -0.001130167375
 39       0.101846705204
 40      -0.202161632386
 41      -0.012242588270
 42      -0.020901002716
 43       0.014267979018
 44      -0.147785852273
 45      -0.002798001505
 46      -0.006020108824
 47       0.004168599014
 48      -0.059693077608
 49      -0.008739412663
 50      -0.058268173232
 51      -0.005573277294
 52       0.061487656861
 53       0.005987569319
 54       0.069146606835
 55       0.015809181974
 56       0.068284353796
 57       0.011358896419
 58      -0.010162592992
 59       0.003840568413
 60      -0.062696437422
 61      -0.016530339541
 Sym=     1a
 Ene= -9.41071146300861E-01
 Spin= Alpha
 Occup= 2.000000
  1      -0.139035824631
  2       0.261815987877
  3      -0.001430332019
  4       0.020199324357
  5      -0.016566330832
  6       0.293539427650
  7       0.001480486618
  8       0.002165679900
  9       0.003234672142
 10       0.098556684861
 11       0.022715847066
 12      -0.079416226146
 13       0.155672061653
 14      -0.001439703299
 15      -0.013670911801
 16       0.001613958348
 17       0.135699665851
 18      -0.002775157663
 19       0.001965285609
 20      -0.003562277337
 21      -0.004815164644
 22       0.008447848167
 23       0.096417795992
 24       0.088462434211
 25      -0.009360988427
 26       0.005113640686
 27       0.019960776362
 28       0.005976497905
 29       0.002460758840
 30       0.118436339126
 31      -0.235626930123
 32       0.039245199957
 33       0.011337347054
 34       0.015705335092
 35      -0.183254693504
 36       0.002539175480
 37       0.015336292035
 38      -0.008855513961
 39       0.029837848256
 40      -0.056107822763
 41      -0.050282565249
 42       0.114616916948
 43      -0.128366100677
 44      -0.074513665486
 45      -0.011399726115
 46       0.010014705753
 47      -0.015608341150
 48       0.101616485232
 49       0.028019378004
 50       0.099790819609
 51       0.024542590079
 52       0.058800135904
 53       0.016809225223
 54       0.057923427510
 55       0.018662793041
 56      -0.000492308766
 57      -0.004169596422
 58      -0.091143396195
 59      -0.025286684334
 60      -0.020597839656
 61      -0.007341683833
 Sym=     1a
 Ene= -8.14389524865529E-01
 Spin= Alpha
 Occup= 2.000000
  1       0.059211732243
  2      -0.112107706546
  3      -0.014823619657
  4      -0.063324116432
  5       0.053312160675
  6      -0.145127331011
  7       0.002859984092
  8      -0.014560069452
  9       0.017292368335
 10      -0.059461599053
 11      -0.023201890214
 12      -0.102250723128
 13       0.203624592342
 14       0.040880305903
 15       0.080445507729
 16      -0.016968147162
 17       0.189993065325
 18       0.015314809764
 19       0.032059046058
 20      -0.006788310104
 21       0.086255716881
 22      -0.176208463415
 23       0.080926766314
 24       0.151807533199
 25      -0.032917300191
 26      -0.162443598234
 27       0.019501109900
 28       0.050470703080
 29      -0.012350742423
 30       0.030911470421
 31      -0.064551138649
 32      -0.194225566341
 33       0.030480050147
 34      -0.098466153739
 35      -0.053620246076
 36      -0.046232873452
 37       0.007946350436
 38      -0.024020975182
 39      -0.091612177468
 40       0.183262186611
 41      -0.036883192586
 42      -0.064811542423
 43       0.049134566127
 44       0.177684672750
 45      -0.023634216578
 46      -0.009226367179
 47       0.000577389020
 48      -0.061006713364
 49      -0.020632772378
 50      -0.059209492062
 51      -0.023755633884
 52       0.109361294690
 53       0.042832602313
 54       0.113329201910
 55       0.048415018167
 56      -0.108532322509
 57      -0.044696748793
 58      -0.040959909535
 59      -0.018538739348
 60       0.106727711274
 61       0.043649264027
 Sym=     1a
 Ene= -7.16576245780701E-01
 Spin= Alpha
 Occup= 2.000000
  1       0.022075550530
  2      -0.039204178982
  3      -0.093025309021
  4      -0.109285423088
  5       0.047543410562
  6      -0.064110162843
  7      -0.035287264367
  8      -0.039231996300
  9       0.014535711113
 10      -0.080147319888
 11      -0.044453313638
 12       0.039664331666
 13      -0.079649773859
 14       0.025149574742
 15      -0.198056832969
 16       0.058653082435
 17      -0.081069748085
 18       0.004861193848
 19      -0.065411115367
 20       0.020462783717
 21      -0.069751962638
 22       0.141928693505
 23       0.178804783941
 24      -0.027959314411
 25       0.035215781143
 26       0.140424309897
 27       0.059800729499
 28      -0.041186666063
 29       0.023115025849
 30       0.077621605153
 31      -0.158841995934
 32       0.003715395209
 33       0.028968450585
 34      -0.039803101468
 35      -0.152611956207
 36      -0.004183826351
 37       0.034750923209
 38      -0.035667625507
 39      -0.073552216877
 40       0.149703238421
 41      -0.162694297053
 42       0.004528707676
 43      -0.091772489282
 44       0.153370480466
 45      -0.073061754087
 46      -0.004488979156
 47      -0.036711587980
 48      -0.004908810904
 49       0.000352232384
 50      -0.053471220443
 51      -0.029588114849
 52      -0.142456881468
 53      -0.087557383232
 54      -0.041650699524
 55      -0.020133324925
 56       0.142429593786
 57       0.068346866590
 58      -0.100771412103
 59      -0.040868394066
 60       0.152075254634
 61       0.076840594271
 Sym=     1a
 Ene= -6.66898943106520E-01
 Spin= Alpha
 Occup= 2.000000
  1      -0.016236101281
  2       0.029480667514
  3      -0.089208561457
  4       0.066744688691
  5      -0.105870843422
  6       0.049565008248
  7      -0.046008618213
  8       0.023078305923
  9      -0.044114201069
 10      -0.015936778650
 11      -0.009992109155
 12      -0.021526380188
 13       0.042732177833
 14       0.193046848741
 15       0.089553419842
 16       0.013070220855
 17       0.061148673384
 18       0.074578747334
 19       0.022468685147
 20       0.011377977994
 21       0.025538418177
 22      -0.054847559962
 23       0.097332211839
 24      -0.141939032488
 25       0.083872487229
 26      -0.047284263398
 27       0.030023228111
 28      -0.044586107749
 29       0.028919017972
 30      -0.020343978478
 31       0.039242924050
 32      -0.067422201786
 33      -0.231530615721
 34       0.167061009035
 35       0.050693300537
 36      -0.025137622976
 37      -0.097168680785
 38       0.069504470257
 39       0.023949267454
 40      -0.050345845503
 41      -0.168900432997
 42      -0.087438096975
 43      -0.007993487619
 44      -0.036001186408
 45      -0.050510558516
 46      -0.037230938500
 47       0.006238025113
 48       0.093599060200
 49       0.056610404273
 50       0.028617381138
 51       0.016354318742
 52      -0.000122177107
 53       0.005231184093
 54       0.138573890130
 55       0.086820172483
 56       0.080709266145
 57       0.059492841126
 58       0.187575205821
 59       0.114229208744
 60       0.082022167510
 61       0.058183722484
 Sym=     1a
 Ene= -6.04226264523911E-01
 Spin= Alpha
 Occup= 2.000000
  1       0.010331948162
  2      -0.019503303172
  3      -0.172631962297
  4      -0.031397560636
  5      -0.002510566597
  6      -0.031953597591
  7      -0.076200357744
  8      -0.014485889183
  9       0.004842632295
 10      -0.103721484234
 11      -0.069611918722
 12      -0.007149421626
 13       0.015636652449
 14      -0.252274316959
 15       0.103376251806
 16      -0.033579586361
 17       0.029484745049
 18      -0.115810603512
 19       0.047021880442
 20      -0.012250351346
 21      -0.014051178977
 22       0.032506511945
 23      -0.195488065238
 24       0.060839372580
 25      -0.011095162015
 26       0.023349137924
 27      -0.069763748935
 28       0.013575086367
 29       0.005934379463
 30       0.009871682085
 31      -0.021969321698
 32       0.173862814447
 33      -0.038777645547
 34       0.155071719329
 35       0.008776596514
 36       0.051565534400
 37       0.003406558111
 38       0.044630424402
 39       0.003320602148
 40      -0.009410450673
 41      -0.248932817984
 42       0.029852428184
 43      -0.116901092511
 44       0.000748245750
 45      -0.107157270869
 46       0.005167665924
 47      -0.040862120781
 48       0.059882334577
 49       0.049733486036
 50      -0.007708825990
 51      -0.000602331080
 52       0.142292928765
 53       0.091969819801
 54      -0.136636413769
 55      -0.094854118137
 56      -0.087571392206
 57      -0.069650915583
 58       0.033620398553
 59       0.031487899790
 60       0.132583889115
 61       0.092797949700
 Sym=     1a
 Ene= -5.84919244927112E-01
 Spin= Alpha
 Occup= 2.000000
  1      -0.006138732654
  2       0.006657019080
  3      -0.022161310760
  4       0.178549891983
  5      -0.130739578237
  6       0.036558859811
  7      -0.012079685217
  8       0.074805383918
  9      -0.054016743110
 10       0.018177192322
 11       0.010510126779
 12      -0.007316269490
 13       0.019535824073
 14      -0.154931611111
 15      -0.283077101498
 16       0.067183233483
 17      -0.016374398380
 18      -0.052497092707
 19      -0.101175166280
 20       0.026819975756
 21      -0.008123517605
 22       0.019233275494
 23       0.120735525972
 24       0.308052250922
 25      -0.047917744672
 26      -0.003457967867
 27       0.029416499688
 28       0.111116030937
 29      -0.016516207114
 30      -0.009643344663
 31       0.018887411373
 32      -0.197902924528
 33      -0.046374838326
 34       0.014726899702
 35       0.020002509773
 36      -0.081559825349
 37      -0.018788249837
 38       0.011969006657
 39       0.024788285237
 40      -0.050607144506
 41      -0.029986902133
 42      -0.143397107455
 43       0.158152667952
 44      -0.085774325585
 45      -0.018881693620
 46      -0.056587404068
 47       0.064478953823
 48       0.075787341826
 49       0.056034346442
 50       0.068696312637
 51       0.051766714990
 52      -0.092068191412
 53      -0.067469196835
 54      -0.115305982421
 55      -0.090679076294
 56      -0.096819415253
 57      -0.072424436061
 58       0.073900430080
 59       0.051617050623
 60       0.021770693628
 61       0.018711956006
 Sym=     1a
 Ene= -5.67313926263538E-01
 Spin= Alpha
 Occup= 2.000000
  1       0.000456098007
  2      -0.001899404235
  3      -0.103420313950
  4       0.250099800805
  5       0.316292121223
  6      -0.000449529563
  7      -0.053899407631
  8       0.128041886739
  9       0.158388641513
 10      -0.136918079392
 11      -0.106767636900
 12       0.005058808198
 13      -0.010221248146
 14       0.024568516491
 15       0.019180232855
 16       0.019691072548
 17      -0.014193825875
 18       0.006105876717
 19       0.003440016817
 20       0.016135336087
 21      -0.000720020057
 22       0.001782296421
 23       0.025177589422
 24      -0.031712526198
 25       0.046268414578
 26       0.002866722858
 27       0.011081654312
 28      -0.014563773895
 29       0.022828084609
 30       0.002964100923
 31      -0.003659690221
 32      -0.033497824685
 33       0.046119362215
 34       0.044139835158
 35      -0.023198136889
 36      -0.015359185045
 37       0.021508447058
 38       0.039557769037
 39      -0.005308421652
 40       0.008576945915
 41      -0.020389344741
 42       0.100129231935
 43       0.085977540512
 44       0.030196428942
 45      -0.003214664835
 46       0.047301797866
 47       0.048104000446
 48      -0.133032246059
 49      -0.103632553350
 50       0.254423777212
 51       0.198281645534
 52       0.000394535923
 53       0.010539796811
 54       0.012491858499
 55       0.011965244384
 56       0.036858450683
 57       0.027549869863
 58      -0.003338893884
 59      -0.006227967784
 60      -0.013155630600
 61      -0.011164775568
 Sym=     1a
 Ene= -5.40719056036329E-01
 Spin= Alpha
 Occup= 2.000000
  1      -0.005656459276
  2       0.014488854893
  3      -0.309166496535
  4      -0.060891574653
  5      -0.053283941726
  6      -0.005542354163
  7      -0.175696152696
  8      -0.027654980703
  9      -0.040500260577
 10      -0.186475115246
 11      -0.145523623948
 12      -0.010857552059
 13       0.024138384747
 14       0.171700319597
 15      -0.074219849831
 16       0.051051629878
 17       0.009765378162
 18       0.106016173330
 19      -0.034440497646
 20       0.034029440650
 21       0.007977408809
 22      -0.014588740712
 23      -0.129170793969
 24       0.085929284661
 25      -0.040347305196
 26      -0.016329332594
 27      -0.081218709324
 28       0.063377682786
 29      -0.027855241055
 30      -0.035396063195
 31       0.079097463144
 32       0.066533048718
 33       0.102821502356
 34      -0.033713822225
 35       0.072567464291
 36       0.017345838514
 37       0.023671698940
 38       0.002484627442
 39       0.007908851924
 40      -0.015552978672
 41       0.116934290960
 42       0.092366649522
 43      -0.003124063216
 44      -0.017111619943
 45       0.075563053250
 46       0.059953272199
 47      -0.003252096554
 48       0.171772427982
 49       0.132562716985
 50      -0.016893961077
 51      -0.015682310367
 52      -0.116856017928
 53      -0.089697434585
 54       0.127076647872
 55       0.090996938851
 56      -0.118634934998
 57      -0.080886045566
 58      -0.035085177668
 59      -0.044505709409
 60      -0.110442832363
 61      -0.075239869004
 Sym=     1a
 Ene= -5.06760335245056E-01
 Spin= Alpha
 Occup= 2.000000
  1       0.016554398511
  2      -0.037128913462