[Molden Format]
[Title]
 Molden file created by orca_2mkl for BaseName=h-shift_035

[Atoms] AU
C    1   6          0.1080828862         0.0280643228        -0.1843560124 
H    2   1          2.0926808310        -0.0172966633        -0.6860707421 
C    3   6          4.7425719790         0.0528972139         2.7425500895 
C    4   6          3.7447096529        -2.1418212694         3.4776157611 
C    5   6          1.1183815000        -3.0120023595         3.2595092399 
C    6   6         -0.4613350616        -2.1970201697         1.4674309245 
H    7   1         -0.9949181328         0.0805968196        -1.8961795487 
H    8   1         -0.1867899797         1.7902150454         0.8274146980 
H    9   1          3.6543372800         1.7119879424         2.3618572009 
H   10   1          6.7323024199         0.2232427968         2.3969494153 
H   11   1          5.0323841583        -3.6106109070         4.0358673172 
H   12   1          0.6080439500        -4.6496239094         4.3565651805 
H   13   1         -2.1611191526        -3.2480253742         1.0852168064 
[GTO]
  1 0
s   6 1.0 
     3047.5249000000         0.5363343823
      457.3695100000         0.9894506076
      103.9486900000         1.5972822308
       29.2101550000         2.0791870615
        9.2866630000         1.7741742532
        3.1639270000         0.6125798260
s   3 1.0 
        7.8682724000        -0.3995563516
        1.8812885000        -0.1841552393
        0.5442493000         0.5163903794
p   3 1.0 
        7.8682724000         1.2960827175
        1.8812885000         0.9937536282
        0.5442493000         0.4959527138
s   1 1.0 
        0.1687144000         0.1876178721
p   1 1.0 
        0.1687144000         0.1541275509

  2 0
s   3 1.0 
       18.7311370000         0.2149354183
        2.8253937000         0.3645711272
        0.6401217000         0.4150514277
s   1 1.0 
        0.1612778000         0.1813806839

  3 0
s   6 1.0 
     3047.5249000000         0.5363343823
      457.3695100000         0.9894506076
      103.9486900000         1.5972822308
       29.2101550000         2.0791870615
        9.2866630000         1.7741742532
        3.1639270000         0.6125798260
s   3 1.0 
        7.8682724000        -0.3995563516
        1.8812885000        -0.1841552393
        0.5442493000         0.5163903794
p   3 1.0 
        7.8682724000         1.2960827175
        1.8812885000         0.9937536282
        0.5442493000         0.4959527138
s   1 1.0 
        0.1687144000         0.1876178721
p   1 1.0 
        0.1687144000         0.1541275509

  4 0
s   6 1.0 
     3047.5249000000         0.5363343823
      457.3695100000         0.9894506076
      103.9486900000         1.5972822308
       29.2101550000         2.0791870615
        9.2866630000         1.7741742532
        3.1639270000         0.6125798260
s   3 1.0 
        7.8682724000        -0.3995563516
        1.8812885000        -0.1841552393
        0.5442493000         0.5163903794
p   3 1.0 
        7.8682724000         1.2960827175
        1.8812885000         0.9937536282
        0.5442493000         0.4959527138
s   1 1.0 
        0.1687144000         0.1876178721
p   1 1.0 
        0.1687144000         0.1541275509

  5 0
s   6 1.0 
     3047.5249000000         0.5363343823
      457.3695100000         0.9894506076
      103.9486900000         1.5972822308
       29.2101550000         2.0791870615
        9.2866630000         1.7741742532
        3.1639270000         0.6125798260
s   3 1.0 
        7.8682724000        -0.3995563516
        1.8812885000        -0.1841552393
        0.5442493000         0.5163903794
p   3 1.0 
        7.8682724000         1.2960827175
        1.8812885000         0.9937536282
        0.5442493000         0.4959527138
s   1 1.0 
        0.1687144000         0.1876178721
p   1 1.0 
        0.1687144000         0.1541275509

  6 0
s   6 1.0 
     3047.5249000000         0.5363343823
      457.3695100000         0.9894506076
      103.9486900000         1.5972822308
       29.2101550000         2.0791870615
        9.2866630000         1.7741742532
        3.1639270000         0.6125798260
s   3 1.0 
        7.8682724000        -0.3995563516
        1.8812885000        -0.1841552393
        0.5442493000         0.5163903794
p   3 1.0 
        7.8682724000         1.2960827175
        1.8812885000         0.9937536282
        0.5442493000         0.4959527138
s   1 1.0 
        0.1687144000         0.1876178721
p   1 1.0 
        0.1687144000         0.1541275509

  7 0
s   3 1.0 
       18.7311370000         0.2149354183
        2.8253937000         0.3645711272
        0.6401217000         0.4150514277
s   1 1.0 
        0.1612778000         0.1813806839

  8 0
s   3 1.0 
       18.7311370000         0.2149354183
        2.8253937000         0.3645711272
        0.6401217000         0.4150514277
s   1 1.0 
        0.1612778000         0.1813806839

  9 0
s   3 1.0 
       18.7311370000         0.2149354183
        2.8253937000         0.3645711272
        0.6401217000         0.4150514277
s   1 1.0 
        0.1612778000         0.1813806839

 10 0
s   3 1.0 
       18.7311370000         0.2149354183
        2.8253937000         0.3645711272
        0.6401217000         0.4150514277
s   1 1.0 
        0.1612778000         0.1813806839

 11 0
s   3 1.0 
       18.7311370000         0.2149354183
        2.8253937000         0.3645711272
        0.6401217000         0.4150514277
s   1 1.0 
        0.1612778000         0.1813806839

 12 0
s   3 1.0 
       18.7311370000         0.2149354183
        2.8253937000         0.3645711272
        0.6401217000         0.4150514277
s   1 1.0 
        0.1612778000         0.1813806839

 13 0
s   3 1.0 
       18.7311370000         0.2149354183
        2.8253937000         0.3645711272
        0.6401217000         0.4150514277
s   1 1.0 
        0.1612778000         0.1813806839

[5D]
[7F]
[9G]
[MO]
 Sym=     1a
 Ene= -1.12368146087521E+01
 Spin= Alpha
 Occup= 2.000000
  1      -0.013363297192
  2       0.000045473964
  3      -0.000040499454
  4      -0.000160836688
  5       0.000041682641
  6      -0.003591569788
  7       0.000195250032
  8       0.002217511289
  9      -0.001403583678
 10       0.000200922397
 11      -0.000388209589
 12      -0.002178772727
 13      -0.000024395154
 14      -0.000030448865
 15       0.000006537299
 16       0.000014616914
 17      -0.000489747221
 18       0.000235289977
 19      -0.000067234560
 20      -0.000118724504
 21      -0.049414447848
 22      -0.000994245544
 23      -0.000157773750
 24      -0.000078190680
 25      -0.000037099886
 26       0.001072055078
 27      -0.000228108175
 28       0.000380558022
 29      -0.000126327792
 30      -0.099723128159
 31      -0.001505465354
 32      -0.000117716862
 33       0.000127373505
 34      -0.000158383732
 35      -0.005367181966
 36       0.000920104648
 37      -0.001937190203
 38       0.002352710274
 39      -0.989800810410
 40      -0.024701771181
 41      -0.000185712171
 42      -0.000046648343
 43      -0.000059706457
 44       0.017247675154
 45       0.002218073422
 46       0.001057830720
 47       0.000337835440
 48       0.000084419855
 49      -0.000163892724
 50       0.000203686677
 51      -0.000864488186
 52      -0.000006988954
 53       0.000406061578
 54      -0.000004489794
 55      -0.000087304672
 56       0.000029008484
 57      -0.000071572328
 58       0.000065040470
 59      -0.000763376438
 60       0.000257686712
 61      -0.002070111220
 Sym=     1a
 Ene= -1.12362390646318E+01
 Spin= Alpha
 Occup= 2.000000
  1       0.000961674653
  2       0.000027050832
  3      -0.000001498755
  4      -0.000051529003
  5       0.000054724020
  6       0.000389124081
  7       0.000409486412
  8       0.000046980553
  9      -0.000069013713
 10       0.000095015004
 11      -0.000616605202
 12      -0.052434363764
 13      -0.000537254665
 14      -0.000088771836
 15      -0.000188342358
 16       0.000124145901
 17      -0.005169198314
 18       0.001790397092
 19       0.002036344859
 20      -0.000735533394
 21      -0.992346413224
 22      -0.024849216101
 23       0.000056799005
 24      -0.000092965924
 25       0.000182109925
 26       0.017075955160
 27      -0.001045220227
 28       0.001378575168
 29      -0.001031594013
 30      -0.043157104334
 31      -0.000530845491
 32       0.000180354558
 33       0.000055105041
 34       0.000039113050
 35      -0.002937135021
 36      -0.002270524819
 37      -0.001025264758
 38      -0.000365226088
 39       0.054072707906
 40       0.001677280883
 41       0.000186354868
 42      -0.000027577545
 43       0.000080718507
 44      -0.001299545154
 45      -0.000848128729
 46       0.000206385688
 47      -0.000436269271
 48      -0.000007237072
 49       0.000024952254
 50      -0.000033370762
 51       0.000107448958
 52       0.000264047908
 53       0.000052919839
 54       0.000085936592
 55      -0.000504325269
 56       0.000237577701
 57      -0.002236835115
 58       0.000078022924
 59      -0.000270287053
 60      -0.000066250301
 61      -0.000300418018
 Sym=     1a
 Ene= -1.12284714297869E+01
 Spin= Alpha
 Occup= 2.000000
  1      -0.002559500657
  2      -0.000074451358
  3       0.000023366640
  4       0.000096551087
  5      -0.000142026126
  6      -0.001619659398
  7      -0.000176465536
  8       0.000630694381
  9      -0.000209997612
 10       0.000030133350
 11       0.000187264317
 12      -0.006247384100
 13      -0.000271886014
 14       0.000142399955
 15       0.000110151569
 16      -0.000069626757
 17      -0.000924350979
 18       0.000090737468
 19       0.000057539277
 20       0.000254506010
 21      -0.048258270194
 22      -0.001849169250
 23       0.000169584376
 24       0.000045850625
 25       0.000041139925
 26       0.006248214098
 27      -0.002831412125
 28      -0.000038137476
 29      -0.000965007874
 30       0.990224113083
 31       0.025150762602
 32       0.000132762887
 33       0.000139651585
 34      -0.000312273672
 35      -0.019569961033
 36      -0.000929534021
 37      -0.002452662673
 38       0.002750580994
 39      -0.097906865635
 40      -0.003433621785
 41      -0.000183013127
 42       0.000023046660
 43      -0.000145680601
 44       0.009286219133
 45       0.003251311982
 46       0.000115226295
 47       0.001722731837
 48       0.000065699744
 49       0.000223354818
 50      -0.000009376915
 51      -0.000137358281
 52      -0.000025575278
 53       0.000224983117
 54       0.000053054188
 55       0.000280423621
 56      -0.000086371181
 57       0.000342287094
 58      -0.000278788808
 59       0.001716076986
 60      -0.000036213831
 61       0.000270849107
 Sym=     1a
 Ene= -1.12207636955454E+01
 Spin= Alpha
 Occup= 2.000000
  1       0.000389257147
  2       0.000077723752
  3       0.000031435990
  4       0.000013186004
  5       0.000156026031
  6       0.000109664941
  7       0.000415305561
  8       0.000089975974
  9      -0.001178385134
 10       0.000141316372
 11      -0.001636969726
 12      -0.994748855703
 13      -0.025027236503
 14       0.000124184104
 15       0.000215704071
 16       0.000091817709
 17       0.017030256443
 18      -0.001105921165
 19      -0.001692332239
 20       0.000042071509
 21       0.053282979409
 22       0.002144700907
 23       0.000128791489
 24       0.000268399674
 25      -0.000056080661
 26      -0.006882437855
 27      -0.001170288631
 28      -0.002733510258
 29       0.000976133449
 30      -0.003716586071
 31      -0.000008779203
 32       0.000115933373
 33       0.000082595747
 34       0.000001629018
 35       0.000325850366
 36      -0.000323688422
 37      -0.000111247992
 38      -0.000078776514
 39      -0.000090674972
 40      -0.000071242586
 41       0.000044392286
 42       0.000018162606
 43       0.000007819155
 44       0.000499064354
 45       0.000109004752
 46       0.000545651985
 47      -0.000239372270
 48      -0.000076439177
 49      -0.000456946992
 50       0.000022931709
 51       0.000630020285
 52       0.000073420346
 53      -0.002748965890
 54       0.000192481104
 55      -0.002698555627
 56       0.000118807767
 57       0.000005922237
 58      -0.000039183190
 59      -0.000261235568
 60       0.000014436108
 61       0.000082433209
 Sym=     1a
 Ene= -1.12124202017104E+01
 Spin= Alpha
 Occup= 2.000000
  1      -0.996108551426
  2      -0.026214410576
  3      -0.000025010811
  4       0.000024348888
  5      -0.000123738769
  6       0.019317051998
  7       0.000082552701
  8      -0.000765470298
  9       0.000874643416
 10      -0.000071006905
 11      -0.003417777750
 12      -0.000388229397
 13       0.000067564172
 14      -0.000154291530
 15       0.000023296117
 16       0.000013204498
 17      -0.000358732734
 18       0.000956951571
 19       0.000184893865
 20      -0.000249821709
 21      -0.000159418511
 22      -0.000004659607
 23      -0.000054527918
 24       0.000044396122
 25      -0.000046843221
 26       0.000679325820
 27      -0.000064291198
 28       0.000401775090
 29      -0.000153889251
 30      -0.001233215348
 31       0.000185960613
 32      -0.000047862362
 33       0.000086800971
 34      -0.000105393472
 35      -0.000738955813
 36       0.000347872232
 37      -0.000499427431
 38       0.000623147555
 39       0.013745128811
 40       0.000768627616
 41       0.000004787342
 42       0.000101484559
 43      -0.000103456210
 44      -0.004088229805
 45      -0.000107975615
 46      -0.002147252244
 47       0.001913250970
 48      -0.000026650537
 49      -0.003061776499
 50      -0.000071946064
 51      -0.003337440571
 52       0.000030907501
 53       0.000235142053
 54      -0.000097658422
 55      -0.000529227202
 56       0.000020122888
 57       0.000005857295
 58      -0.000040363040
 59      -0.000481702988
 60       0.000154279841
 61       0.000014545765
 Sym=     1a
 Ene= -1.10458043650171E+00
 Spin= Alpha
 Occup= 2.000000
  1       0.071555024231
  2      -0.131871823557
  3      -0.002551572413
  4       0.033896913870
  5      -0.030436400571
  6      -0.126993217121
  7      -0.009679759829
  8       0.004216462590
  9      -0.012520039819
 10      -0.042587821472
 11      -0.000051908662
 12       0.074013174105
 13      -0.143815127412
 14       0.034200510382
 15       0.053708579050
 16      -0.012765895432
 17      -0.099258036387
 18      -0.000529718962
 19       0.002836697985
 20       0.002732132921
 21       0.108998952179
 22      -0.215712638932
 23       0.032515698460
 24      -0.024767780829
 25       0.026135453747
 26      -0.137622085571
 27       0.006408455123
 28      -0.000231802797
 29       0.003763734655
 30       0.124424103918
 31      -0.245297660094
 32      -0.002363140466
 33      -0.040271457750
 34       0.054338632034
 35      -0.162055187857
 36      -0.003990560430
 37      -0.002970580703
 38       0.004395686320
 39       0.113999473129
 40      -0.226335057116
 41      -0.061525313715
 42       0.000507909574
 43      -0.035843723699
 44      -0.135077583962
 45       0.002969226195
 46       0.004151408985
 47      -0.000629786191
 48      -0.032407889834
 49      -0.006172302757
 50      -0.036355417344
 51      -0.000070120682
 52      -0.039434298764
 53      -0.006378343046
 54      -0.032260264955
 55      -0.001016431817
 56      -0.052348308777
 57      -0.008188023721
 58      -0.056708240992
 59      -0.007119603417
 60      -0.051877232655
 61      -0.003982173475
 Sym=     1a
 Ene= -1.01833091318932E+00
 Spin= Alpha
 Occup= 2.000000
  1      -0.098151551665
  2       0.187101426771
  3      -0.011595261011
  4      -0.032426954632
  5       0.022944749638
  6       0.173888668091
  7      -0.002950699107
  8      -0.001451353487
  9       0.001826514614
 10       0.050405846205
 11       0.005183306006
 12       0.123295810433
 13      -0.241564029737
 14       0.025348106269
 15       0.078172800075
 16      -0.024953342709
 17      -0.188922163021
 18       0.004542994163
 19       0.003517815390
 20      -0.000915914102
 21       0.117591213212
 22      -0.234800891541
 23      -0.056873649292
 24      -0.073598462609
 25       0.023149141714
 26      -0.164651565976
 27      -0.011073683461
 28       0.005206010920
 29      -0.002614638342
 30      -0.020118803285
 31       0.039785272323
 32      -0.095612237519
 33       0.003024984750
 34      -0.055317036618
 35       0.024942261551
 36      -0.012283899406
 37      -0.011149198395
 38       0.000676135130
 39      -0.101080263929
 40       0.200959079786
 41       0.014911845773
 42       0.022535568496
 43      -0.012740507732
 44       0.149544899798
 45       0.004140060977
 46       0.005039284560
 47      -0.002570311773
 48       0.058278420827
 49       0.009041497513
 50       0.056323663053
 51       0.005458123916
 52      -0.062188849552
 53      -0.005862079582
 54      -0.071073779650
 55      -0.016456214680
 56      -0.070695851217
 57      -0.012395524476
 58       0.009803344705
 59      -0.003344656400
 60       0.061940215559
 61       0.016475328702
 Sym=     1a
 Ene= -9.42497626392404E-01
 Spin= Alpha
 Occup= 2.000000
  1      -0.137925474293
  2       0.258630776468
  3       0.006183678175
  4       0.020996942416
  5      -0.014903357991
  6       0.293949347946
  7       0.005923123900
  8       0.001503515295
  9       0.004573073895
 10       0.100740981895
 11       0.020953306307
 12      -0.078989257795
 13       0.153573230539
 14      -0.003554370261
 15      -0.007060713930
 16      -0.002170974731
 17       0.139091778250
 18      -0.004671029764
 19       0.001853583284
 20      -0.005587095392
 21       0.001753244401
 22      -0.004492296473
 23       0.094603237761
 24       0.089497380333
 25      -0.019138131262
 26      -0.007070687448
 27       0.019632521567
 28       0.005456283545
 29       0.000885278973
 30       0.119752326888
 31      -0.238140688434
 32       0.028936120974
 33       0.015436648469
 34       0.021295508442
 35      -0.187377271543
 36       0.000946881213
 37       0.016163076178
 38      -0.006811407617
 39       0.029453868502
 40      -0.055547657933
 41      -0.041985122290
 42       0.113290819577
 43      -0.126904576317
 44      -0.073653966993
 45      -0.010594570791
 46       0.008398992539
 47      -0.015582651394
 48       0.099676553036
 49       0.027957227544
 50       0.098979011390
 51       0.023933780295
 52       0.062663931678
 53       0.019091596047
 54       0.057037241036
 55       0.018126266016
 56      -0.006281442096
 57      -0.006260570286
 58      -0.091203973587
 59      -0.025089899759
 60      -0.020631341332
 61      -0.007508274730
 Sym=     1a
 Ene= -8.12076805825346E-01
 Spin= Alpha
 Occup= 2.000000
  1      -0.062494088698
  2       0.118941168282
  3       0.016299221543
  4       0.066114553150
  5      -0.049105591440
  6       0.149577161142
  7      -0.002918263691
  8       0.015560366254
  9      -0.018305020283
 10       0.056408165064
 11       0.022496305136
 12       0.101663932282
 13      -0.202027843342
 14      -0.041307473214
 15      -0.077770368596
 16       0.027786632880
 17      -0.191503217496
 18      -0.015043265553
 19      -0.031429717496
 20       0.012012619498
 21      -0.085557469381
 22       0.174609424823
 23      -0.075135103646
 24      -0.149945314717
 25       0.041237196129
 26       0.163578733890
 27      -0.019943092974
 28      -0.049747227212
 29       0.013940087693
 30      -0.027687448134
 31       0.057448709300
 32       0.190388445311
 33      -0.020426341479
 34       0.103265462878
 35       0.046883088578
 36       0.043558928044
 37      -0.006231300340
 38       0.025150305953
 39       0.092415089941
 40      -0.185524717944
 41       0.038397636952
 42       0.073024881267
 43      -0.045042737940
 44      -0.181015626544
 45       0.024589345462
 46       0.014813372852
 47       0.001043831924
 48       0.066185250625
 49       0.022333640209
 50       0.062452815532
 51       0.025171727417
 52      -0.108643975908
 53      -0.041346090424
 54      -0.113094331649
 55      -0.048220737340
 56       0.109174502527
 57       0.045734449246
 58       0.036954099873
 59       0.016633727816
 60      -0.109093476224
 61      -0.043674656715
 Sym=     1a
 Ene= -7.20740006544222E-01
 Spin= Alpha
 Occup= 2.000000
  1       0.018283348167
  2      -0.030255005819
  3      -0.099296746632
  4      -0.112605077741
  5       0.025833921215
  6      -0.056791757694
  7      -0.040869790703
  8      -0.040728191897
  9       0.004444783303
 10      -0.077240329231
 11      -0.041078865140
 12       0.036982903109
 13      -0.073070294577
 14       0.026545550348
 15      -0.195555764869
 16       0.068984317829
 17      -0.080160103705
 18       0.008791129333
 19      -0.062479301815
 20       0.027242876813
 21      -0.070069189572
 22       0.141831105372
 23       0.177881996959
 24      -0.021977479917
 25       0.021963102330
 26       0.142847092376
 27       0.057785331129
 28      -0.035932603511
 29       0.016147063463
 30       0.079149273759
 31      -0.161564852248
 32       0.007293494549
 33       0.032954745729
 34      -0.040363076481
 35      -0.161457864953
 36      -0.001136437074
 37       0.035139693849
 38      -0.032506182338
 39      -0.074116083128
 40       0.150718700915
 41      -0.147878761682
 42      -0.003276291925
 43      -0.115537248802
 44       0.158807024697
 45      -0.063083912097
 46      -0.010121503946
 47      -0.043955013029
 48       0.001224949718
 49       0.002475392385
 50      -0.055997478416
 51      -0.029854359202
 52      -0.141421654698
 53      -0.086109221261
 54      -0.038447980214
 55      -0.018813783109
 56       0.138287304775
 57       0.066665853547
 58      -0.104234958250
 59      -0.042609287891
 60       0.151317897769
 61       0.076234864561
 Sym=     1a
 Ene= -6.69349163550944E-01
 Spin= Alpha
 Occup= 2.000000
  1      -0.018477819231
  2       0.034955181916
  3      -0.083031871669
  4       0.069974811181
  5      -0.119576934144
  6       0.053278057943
  7      -0.042902168718
  8       0.024414971550
  9      -0.053136063653
 10      -0.016052920708
 11      -0.010939508127
 12      -0.022128163248
 13       0.043991664181
 14       0.184841338554
 15       0.079089468037
 16      -0.023898717980
 17       0.061785305219
 18       0.070479410713
 19       0.019262325296
 20      -0.002706689991
 21       0.023962272228
 22      -0.050510669050
 23       0.100800442737
 24      -0.136318026987
 25       0.079669410836
 26      -0.046449073466
 27       0.033565854349
 28      -0.043413434921
 29       0.028897636908
 30      -0.021498348352
 31       0.041012208423
 32      -0.060151399259
 33      -0.236466852883
 34       0.163913268708
 35       0.060737791187
 36      -0.022015257250
 37      -0.098158701596
 38       0.065305567369
 39       0.021993736948
 40      -0.045605317394
 41      -0.165866926729
 42      -0.098132146831
 43      -0.033120673402
 44      -0.032200454063
 45      -0.053541643125
 46      -0.038759458788
 47      -0.003312954288
 48       0.102357698457
 49       0.060543377722
 50       0.024543668893
 51       0.014875420590
 52       0.004746938596
 53       0.008667443357
 54       0.131886361140
 55       0.083155340029
 56       0.080179665774
 57       0.058016891486
 58       0.187665943739
 59       0.113549877856
 60       0.086043337083
 61       0.059301195854
 Sym=     1a
 Ene= -6.00066736868024E-01
 Spin= Alpha
 Occup= 2.000000
  1      -0.011295236901
  2       0.022437640852
  3       0.139224845206
  4       0.022929464228
  5       0.041011089092
  6       0.028571938740
  7       0.058274815554
  8       0.012995009683
  9       0.008457765717
 10       0.078908114515
 11       0.054188623165
 12       0.008450390281
 13      -0.018926842467
 14       0.276745583216
 15      -0.101198124159
 16      -0.024191190681
 17      -0.032371599682
 18       0.127625515845
 19      -0.049136369123
 20      -0.012859195743
 21       0.017887968335
 22      -0.041519649699
 23       0.183208184665
 24      -0.089462517200
 25      -0.004386731261
 26      -0.026320726175
 27       0.062679779047
 28      -0.022632873900
 29      -0.015859418777
 30      -0.009433677824
 31       0.022034785488
 32      -0.152964583287
 33       0.034103217863
 34      -0.155164033484
 35      -0.017653076427
 36      -0.047670236404
 37      -0.010422337501
 38      -0.040866410041
 39      -0.003328991195
 40       0.008587640108
 41       0.234053920557
 42       0.008781174044
 43       0.136672883064
 44       0.007850110617
 45       0.109648381945
 46       0.014896854887
 47       0.052573889359
 48      -0.058396562951
 49      -0.051046994867
 50       0.018114647679
 51       0.007082297718
 52      -0.144032864955
 53      -0.092905240777
 54       0.156037729030
 55       0.109571135400
 56       0.090949568050
 57       0.074110534722
 58      -0.035007359922
 59      -0.035521023146
 60      -0.139352395815
 61      -0.095377621399
 Sym=     1a
 Ene= -5.84207413177829E-01
 Spin= Alpha
 Occup= 2.000000
  1       0.007971658028
  2      -0.010736023834
  3       0.016162219409
  4      -0.192044086548
  5       0.106063138193
  6      -0.039395645471
  7       0.010879328853
  8      -0.080605409283
  9       0.043176054559
 10      -0.006803314944
 11      -0.002748695827
 12       0.007012090736
 13      -0.018995728947
 14       0.132836715511
 15       0.278308590505
 16      -0.111828670343
 17       0.017485828005
 18       0.043320110189
 19       0.101359588025
 20      -0.043746851768
 21       0.007105898389
 22      -0.017355999766
 23      -0.135207838380
 24      -0.300514007893
 25       0.066662209611
 26       0.005450925884
 27      -0.035367362653
 28      -0.109358170066
 29       0.021673141804
 30       0.012356207527
 31      -0.025267230531
 32       0.212363889433
 33       0.050674574606
 34       0.007477833279
 35      -0.025368733628
 36       0.086497718618
 37       0.022800702305
 38      -0.004890726823
 39      -0.023107227600
 40       0.046784718945
 41       0.013792059488
 42       0.135419649657
 43      -0.167353381826
 44       0.080685616538
 45       0.010365405606
 46       0.051320946157
 47      -0.067827308428
 48      -0.073863007578
 49      -0.053726304060
 50      -0.079346845208
 51      -0.060063673792
 52       0.103316554055
 53       0.074164498354
 54       0.103285767570
 55       0.081163233419
 56       0.089010850810
 57       0.066018412635
 58      -0.071848466069
 59      -0.049135426614
 60      -0.002138492152
 61      -0.005211090413
 Sym=     1a
 Ene= -5.68116699755015E-01
 Spin= Alpha
 Occup= 2.000000
  1       0.000472769929
  2      -0.001663874440
  3      -0.155077871005
  4       0.216586317284
  5       0.312012844859
  6      -0.001333222853
  7      -0.075869058204
  8       0.112315832306
  9       0.157294840013
 10      -0.158491651819
 11      -0.126796300822
 12       0.003517849190
 13      -0.006504853580
 14       0.023169049292
 15       0.044668214156
 16       0.020953984348
 17      -0.007387398902
 18       0.003345814396
 19       0.014236395660
 20       0.020120839729
 21      -0.002214996129
 22       0.005883665566
 23       0.022324786428
 24      -0.042551117439
 25       0.061564489239
 26       0.006629924239
 27       0.013367731368
 28      -0.022681167216
 29       0.034192739004
 30       0.004021327169
 31      -0.006488482740
 32      -0.027805005754
 33       0.046789997179
 34       0.050873130259
 35      -0.016591154451
 36      -0.017432961079
 37       0.027028026664
 38       0.037390604124
 39      -0.008728660578
 40       0.016566785145
 41      -0.043527186949
 42       0.110017552408
 43       0.071318478528
 44       0.033315335614
 45      -0.019513577421
 46       0.051864890765
 47       0.039425470405
 48      -0.115841274178
 49      -0.087194963711
 50       0.243563729574
 51       0.190094307230
 52       0.017797205603
 53       0.024045996396
 54       0.011336754847
 55       0.012619097014
 56       0.044917226676
 57       0.031348329222
 58      -0.006123859374
 59      -0.005659853799
 60      -0.010989874642
 61      -0.009808062758
 Sym=     1a
 Ene= -5.44477502659521E-01
 Spin= Alpha
 Occup= 2.000000
  1      -0.006653008708
  2       0.018134883796
  3      -0.303804207168
  4      -0.072539063792
  5      -0.090428516725
  6      -0.013402968229
  7      -0.170772084077
  8      -0.032452565382
  9      -0.064993191688
 10      -0.180943640782
 11      -0.139887527827
 12      -0.016124955337
 13       0.035460278815
 14       0.158725865908
 15      -0.064414765115
 16       0.017069719010
 17       0.023507927606
 18       0.101639267476
 19      -0.029406045537
 20       0.014861840213
 21       0.007477340230
 22      -0.014051966328
 23      -0.150635706148
 24       0.088308596312
 25      -0.039302883484
 26      -0.010116565098
 27      -0.092079542028
 28       0.065535403060
 29      -0.023989641852
 30      -0.034739373091
 31       0.077154558537
 32       0.077867863458
 33       0.105968582847
 34      -0.011224399260
 35       0.070381298281
 36       0.017657737977
 37       0.024178852107
 38       0.010092561891
 39       0.007751727483
 40      -0.016066300676
 41       0.091136880059
 42       0.116199201621
 43      -0.000123118535
 44      -0.011090989588
 45       0.066248303561
 46       0.077718770525
 47       0.002800892575
 48       0.176066844661
 49       0.133971764748
 50      -0.038345569739
 51      -0.028970963304
 52      -0.097751537801
 53      -0.075984372146
 54       0.124026546058
 55       0.087285575035
 56      -0.128145687106
 57      -0.087382044494
 58      -0.030745094341
 59      -0.039905661102
 60      -0.103138332444
 61      -0.065112071394
 Sym=     1a
 Ene= -5.07990657933138E-01
 Spin= Alpha
 Occup= 2.000000
  1       0.017359613911
  2      -0.038241507685