
                                 *****************
                                 * O   R   C   A *
                                 *****************

                                            #,                                       
                                            ###                                      
                                            ####                                     
                                            #####                                    
                                            ######                                   
                                           ########,                                 
                                     ,,################,,,,,                         
                               ,,#################################,,                 
                          ,,##########################################,,             
                       ,#########################################, ''#####,          
                    ,#############################################,,   '####,        
                  ,##################################################,,,,####,       
                ,###########''''           ''''###############################       
              ,#####''   ,,,,##########,,,,          '''####'''          '####       
            ,##' ,,,,###########################,,,                        '##       
           ' ,,###''''                  '''############,,,                           
         ,,##''                                '''############,,,,        ,,,,,,###''
      ,#''                                            '''#######################'''  
     '                                                          ''''####''''         
             ,#######,   #######,   ,#######,      ##                                
            ,#'     '#,  ##    ##  ,#'     '#,    #''#        ,####,    ,#,          
            ##       ##  ##   ,#'  ##            #'  '#       #'       ,# #          
            ##       ##  #######   ##           ,######,      #####,      #          
            '#,     ,#'  ##    ##  '#,     ,#' ,#      #,     #,   #      #          
             '#######'   ##     ##  '#######'  #'      '#     '####' #    #          



                #########################################################
                #                        -***-                          #
                #          Department of theory and spectroscopy        #
                #                                                       #
                #                      Frank Neese                      #
                #                                                       #
                #     Directorship, Architecture, Infrastructure        #
                #                    SHARK, DRIVERS                     #
                #        Core code/Algorithms in most modules           #
                #                                                       #
                #        Max Planck Institute fuer Kohlenforschung      #
                #                Kaiser Wilhelm Platz 1                 #
                #                 D-45470 Muelheim/Ruhr                 #
                #                      Germany                          #
                #                                                       #
                #                  All rights reserved                  #
                #                        -***-                          #
                #########################################################


                         Program Version 6.1.0  -  RELEASE   -
                                (GIT: $679e74b$)
                          ($2025-06-10 18:02:51 +0200$)


 With contributions from (in alphabetic order):
[Max-Planck-Institut fuer Kohlenforschung]                               
  Daniel Aravena         : Magnetic Suceptibility                        
  Michael Atanasov       : Ab Initio Ligand Field Theory (pilot matlab implementation)
  Alexander A. Auer      : GIAO ZORA, VPT2 properties, NMR spectrum      
  Ute Becker             : All parallelization in ORCA, NUMFREQ, NUMCALC 
  Giovanni Bistoni       : ED, misc. LED, open-shell LED, HFLD           
  Dmytro Bykov           : pre 5.0 version of the SCF Hessian            
  Marcos Casanova-Páez   : Triplet and SCS-CIS(D). UHF-(DLPNO)-IP/EA/STEOM-CCSD. UHF-CVS-IP/STEOM-CCSD   
  Vijay G. Chilkuri      : MRCI spin determinant printing, contributions to CSF-ICE 
  Pauline Colinet        : FMM embedding                                 
  Dipayan Datta          : RHF DLPNO-CCSD density                        
  Achintya Kumar Dutta   : EOM-CC, STEOM-CC                              
  Nicolas Foglia         : Exact transition moments, OPA infrastructure, MCD improvements    
  Dmitry Ganyushin       : Spin-Orbit,Spin-Spin,Magnetic field MRCI      
  Miquel Garcia-Rates    : C-PCM and meta-GGA Hessian, CCSD/C-PCM, Gaussian charge scheme 
  Tiago L. C. Gouveia    : GS-ROHF, GS-ROCIS                             
  Yang Guo               : DLPNO-NEVPT2, F12-NEVPT2, CIM, IAO-localization        
  Andreas Hansen         : Spin unrestricted coupled pair/coupled cluster methods 
  Ingolf Harden          : AUTO-CI MPn and infrastructure                
  Benjamin Helmich-Paris : MC-RPA, TRAH-(SCF,CASSCF), AVAS, COSX integrals, SCF dyn. polar., MC-PDFT, srDFT 
  Lee Huntington         : MR-EOM, pCC                                   
  Robert Izsak           : Overlap fitted RIJCOSX, COSX-SCS-MP3, EOM     
  Riya Kayal             : Wick's Theorem for AUTO-CI, AUTO-CI UHF-CCSDT 
  Emily Kempfer          : AUTO-CI RHF CISDT and CCSDT, approximate NEVPT4
  Christian Kollmar      : KDIIS, OOCD, Brueckner-CCSD(T), CCSD density, CASPT2, CASPT2-K, improved NEVPT2 
  Axel Koslowski         : Symmetry handling                             
  Simone Kossmann        : meta-GGA functionals, TD-DFT gradient, OOMP2, (MP2 Hessian; deprecated post 5.0) 
  Lucas Lang             : DCDCAS, Hyperfine gauge corrections, ICE-SOC+SSC
  Marvin Lechner         : AUTO-CI (C++ implementation), FIC-MRCC        
  Spencer Leger          : CASSCF response                               
  Dagmar Lenk            : GEPOL surface, SMD, ORCA-2-JSON               
  Dimitrios Liakos       : Extrapolation schemes; Compound Job, Property file
  Dimitrios Manganas     : Further ROCIS development; embedding schemes. LFT, Crystal Embedding 
  Dimitrios Pantazis     : SARC Basis sets                               
  Anastasios Papadopoulos: AUTO-CI, single reference methods and gradients 
  Taras Petrenko         : pre 6.0 DFT Hessian and TD-DFT gradient,  ECA, NRVS 
  Petra Pikulova         : Analytic Raman intensities                    
  Peter Pinski           : DLPNO-MP2, DLPNO-MP2 Gradient                 
  Shashank Vittal Rao    : ES-AILFT, MagRelax                            
  Christoph Reimann      : Effective Core Potentials                     
  Marius Retegan         : Local ZFS, SOC                                
  Christoph Riplinger    : Optimizer, TS searches, QM/MM, DLPNO-CCSD(T), (RO)-DLPNO pert. Triples 
  Michael Roemelt        : Original ROCIS implementation, recursive CI coupling coefficients
  Masaaki Saitow         : Open-shell DLPNO-CCSD energy and density      
  Barbara Sandhoefer     : DKH picture change effects                    
  Yorick L. A. Schmerwitz: GMF and freeze-and-release deltaSCF, NEB S-IDPP initial path                    
  Kantharuban Sivalingam : CASSCF convergence/infrastructure, NEVPT2, NEVPT3, NEVPT4(SD), FIC-MRCI and CEPA variants
  Bernardo de Souza      : ESD, SOC TD-DFT                               
  Georgi L. Stoychev     : AutoAux, RI-MP2 NMR, DLPNO-MP2 response, X2C  
  Van Anh Tran           : RI-MP2 g-tensors                              
  Willem Van den Heuvel  : Paramagnetic NMR                              
  Zikuan Wang            : NOTCH, Electric field optimization            
  Frank Wennmohs         : Technical directorship and infrastructure     
  Hang Xu                : AUTO-CI-Response properties                   
                                                                         
[FACCTs GmbH]                                                            
  Markus Bursch, Nicolas Foglia, Miquel Garcia-Rates, Ingolf Harden, Hagen Neugebauer, Anastasios Papadopoulos, 
  Christoph Riplinger, Bernardo de Souza, Georgi L. Stoychev                                                    
                                                                 
  APM, various basis sets, CI-OPT, improved COSX, DLPNO-Multilevel,           
  DOCKER, DRACO, updates on ESD, Fragmentator, GOAT, IRC, LR-CPCM, L-BFGS, MBIS, meta-GGA TD-DFT gradient, ML-optimized integration grids, 
  MM, NACMEs, nearIR, NEB, NEB-TS, NL-DFT gradient (VV10), 2- and 3-layer-ONIOM, interface openCOSMO-RS, QMMM,   
  Crystal-QMMM, RESP, rigid body optimization, SF, symmetry and pop. for TD-DFT, various functionals, SOLVATOR                                   
                                                                         
[Other institutions]                                                     
  V. Asgeirsson          : NEB                                           
  Christoph Bannwarth    : sTDA-DFT, sTD-DFT, PBEh-3c, B97-3c, D3        
  Giovanni Bistoni       : ETS/NOCV, ADLD/ADEX, COVALED                  
  Martin Brehm           : Molecular dynamics                            
  Ronald Cardenas        : ETS/NOCV                                      
  Martina Colucci        : COVALED                                       
  Sebastian Ehlert       : rSCAN, r2SCAN, r2SCAN-3c, D4, dhf basis sets  
  Marvin Friede          : D4 for Fr, Ra, Ac-Lr                          
  Lars Goerigk           : TD-DFT with DH, B97 family of functionals     
  Stefan Grimme          : VdW corrections, initial TS optimization, DFT functionals, gCP, sTDA/sTD-DF 
  Waldemar Hujo          : DFT-NL                                        
  H. Jonsson             : NEB                                           
  Holger Kruse           : gCP                                           
  Marcel Mueller         : wB97X-3c, vDZP basis set                      
  Hagen Neugebauer       : wr2SCAN, Native XTB                           
  Gianluca Regni         : ADLD/ADEX                                     
  Tobias Risthaus        : pre 6.0 range-separated hybrid DFT and stability analysis
  Lukas Wittmann         : regularized MP2, r2SCAN double-hybrids, wr2SCAN        
                                                                         
We gratefully acknowledge several colleagues who have allowed us to      
interface, adapt or use parts of their codes:                            
  Ed Valeev, F. Pavosevic, A. Kumar             : LibInt (2-el integral package), F12 methods 
  Garnet Chan, S. Sharma, J. Yang, R. Olivares  : DMRG                   
  Ulf Ekstrom                                   : XCFun DFT Library      
  Mihaly Kallay                                 : mrcc  (arbitrary order and MRCC methods)
  Frank Weinhold                                : gennbo (NPA and NBO analysis)           
  Simon Mueller                                 : openCOSMO-RS                            
  Christopher J. Cramer and Donald G. Truhlar   : smd solvation model                     
  S Lehtola, MJT Oliveira, MAL Marques          : LibXC Library                           
  Liviu Ungur et al                             : ANISO software                          


 Your calculation uses the libint2 library for the computation of 2-el integrals
 For citations please refer to: http://libint.valeyev.net

 Your ORCA version has been built with support for libXC version: 7.0.0
 For citations please refer to: https://libxc.gitlab.io

 This ORCA versions uses:
   CBLAS   interface :  Fast vector & matrix operations
   LAPACKE interface :  Fast linear algebra routines
   SCALAPACK package :  Parallel linear algebra routines
   Shared memory     :  Shared parallel matrices
   BLAS/LAPACK       :  OpenBLAS 0.3.29  USE64BITINT DYNAMIC_ARCH NO_AFFINITY Zen SINGLE_THREADED
        Core in use  :  Zen
   Copyright (c) 2011-2014, The OpenBLAS Project


  ***********************************
  * Starting time: Sun Apr  5 13:02:46 2026
  * Host name:     QC1
  * Process ID:    12749
  * Working dir.:  /home/user/QC/h-shift/split_2
  ***********************************

NOTE: MaxCore=1200 MB was set to SCF,MP2,MDCI,CIPSI,MRCI,RASCI and CIS
      => If you want to overwrite this, your respective input block should be placed after the MaxCore statement
================================================================================

----- Orbital basis set information -----
Your calculation utilizes the basis: 6-31G
   H-He, Li-Ne : W. J. Hehre, R. Ditchfield and J.A. Pople, J. Chem. Phys. 56, 2257 (1972).
                 Note: He and Ne are unpublished basis sets taken from the Gaussian program.
                 Note: Li and B from J. D. Dill and J. A. Pople, J. Chem. Phys. 62, 2921 (1975).
   Na - Ar     : M. M. Francl, W. J. Pietro, W. J. Hehre, J. S. Binkley, M. S. Gordon, 
                 D. J. DeFrees and J. A. Pople, J. Chem. Phys. 77, 3654 (1982).
   K - Zn      : V. A. Rassolov, J. A. Pople, M. A. Ratner, and T. L. Windus, J. Chem. Phys. 109, 1223 (1998).

================================================================================
                                        WARNINGS
                       Please study these warnings very carefully!
================================================================================


================================================================================
                                       INPUT FILE
================================================================================
NAME = h-shift_071.inp
|  1> ! HF 6-31G
|  2> %maxcore 1200
|  3> %pal nprocs 8 end
|  4> * xyz 0 1
|  5> C   -0.40336200   0.01448700   0.03159500
|  6> H    2.07845200   0.00869600   0.03555900
|  7> C    2.44085400   0.01056500   1.05599700
|  8> C    1.86050600  -1.14236600   1.82143700
|  9> C    0.61898000  -1.60419700   1.67080600
| 10> C   -0.32670700  -1.17106500   0.63170000
| 11> H   -1.02568800   0.15774200  -0.82967900
| 12> H    0.14854700   0.87281600   0.35358600
| 13> H    2.13209400   0.95463400   1.49727900
| 14> H    3.52073600  -0.00699800   1.03785800
| 15> H    2.51125800  -1.63615300   2.52197200
| 16> H    0.30450100  -2.43806900   2.27504700
| 17> H   -0.97822500  -1.95196500   0.27971100
| 18> *
| 19> 
| 20>                          ****END OF INPUT****
================================================================================

                       ****************************
                       * Single Point Calculation *
                       ****************************

---------------------------------
CARTESIAN COORDINATES (ANGSTROEM)
---------------------------------
  C     -0.403362    0.014487    0.031595
  H      2.078452    0.008696    0.035559
  C      2.440854    0.010565    1.055997
  C      1.860506   -1.142366    1.821437
  C      0.618980   -1.604197    1.670806
  C     -0.326707   -1.171065    0.631700
  H     -1.025688    0.157742   -0.829679
  H      0.148547    0.872816    0.353586
  H      2.132094    0.954634    1.497279
  H      3.520736   -0.006998    1.037858
  H      2.511258   -1.636153    2.521972
  H      0.304501   -2.438069    2.275047
  H     -0.978225   -1.951965    0.279711

----------------------------
CARTESIAN COORDINATES (A.U.)
----------------------------
  NO LB      ZA    FRAG     MASS         X           Y           Z
   0 C     6.0000    0    12.011   -0.762244    0.027376    0.059706
   1 H     1.0000    0     1.008    3.927705    0.016433    0.067197
   2 C     6.0000    0    12.011    4.612546    0.019965    1.995545
   3 C     6.0000    0    12.011    3.515847   -2.158759    3.442017
   4 C     6.0000    0    12.011    1.169703   -3.031493    3.157366
   5 C     6.0000    0    12.011   -0.617387   -2.212992    1.193740
   6 H     1.0000    0     1.008   -1.938269    0.298089   -1.567866
   7 H     1.0000    0     1.008    0.280713    1.649383    0.668181
   8 H     1.0000    0     1.008    4.029074    1.803997    2.829447
   9 H     1.0000    0     1.008    6.653227   -0.013224    1.961267
  10 H     1.0000    0     1.008    4.745590   -3.091881    4.765836
  11 H     1.0000    0     1.008    0.575423   -4.607283    4.299216
  12 H     1.0000    0     1.008   -1.848577   -3.688679    0.528577

--------------------------------
INTERNAL COORDINATES (ANGSTROEM)
--------------------------------
 C      0   0   0     0.000000000000     0.00000000     0.00000000
 H      1   0   0     2.481823921952     0.00000000     0.00000000
 C      2   1   0     1.082881533045   109.64335026     0.00000000
 C      3   2   1     1.500650554081   110.48169151    55.34008619
 C      4   3   2     1.333178299928   124.65671284   323.28467354
 C      1   2   3     1.330990437514    86.53775811   296.69383788
 H      1   2   3     1.072196133353   125.59233848   170.48740819
 H      1   2   3     1.070051597169    59.04365633    69.36412638
 H      3   2   1     1.086889515031   106.79937168   295.11053764
 H      3   2   1     1.080177122612   108.58557659   179.16109367
 H      4   3   2     1.076128734445   116.78959262   141.81688155
 H      5   4   3     1.076729650333   118.48074629   180.12526193
 H      6   1   2     1.076186215506   117.64527337   224.35443107

---------------------------
INTERNAL COORDINATES (A.U.)
---------------------------
 C      0   0   0     0.000000000000     0.00000000     0.00000000
 H      1   0   0     4.689967525104     0.00000000     0.00000000
 C      2   1   0     2.046349532935   109.64335026     0.00000000
 C      3   2   1     2.835818569931   110.48169151    55.34008619
 C      4   3   2     2.519341874550   124.65671284   323.28467354
 C      1   2   3     2.515207413770    86.53775811   296.69383788
 H      1   2   3     2.026157053886   125.59233848   170.48740819
 H      1   2   3     2.022104467814    59.04365633    69.36412638
 H      3   2   1     2.053923521240   106.79937168   295.11053764
 H      3   2   1     2.041238937863   108.58557659   179.16109367
 H      4   3   2     2.033588592944   116.78959262   141.81688155
 H      5   4   3     2.034724159402   118.48074629   180.12526193
 H      6   1   2     2.033697216407   117.64527337   224.35443107

---------------------
BASIS SET INFORMATION
---------------------
There are 2 groups of distinct atoms

 Group   1 Type C   : 10s4p contracted to 3s2p pattern {631/31}
 Group   2 Type H   : 4s contracted to 2s pattern {31}

Atom   0C    basis set group =>   1
Atom   1H    basis set group =>   2
Atom   2C    basis set group =>   1
Atom   3C    basis set group =>   1
Atom   4C    basis set group =>   1
Atom   5C    basis set group =>   1
Atom   6H    basis set group =>   2
Atom   7H    basis set group =>   2
Atom   8H    basis set group =>   2
Atom   9H    basis set group =>   2
Atom  10H    basis set group =>   2
Atom  11H    basis set group =>   2
Atom  12H    basis set group =>   2


           ************************************************************
           *        Program running with 8 parallel MPI-processes     *
           *              working on a common directory               *
           ************************************************************
------------------------------------------------------------------------------
                             ORCA STARTUP CALCULATIONS
------------------------------------------------------------------------------
------------------------------------------------------------------------------
                   ___                                                        
                  /   \      - P O W E R E D   B Y -                         
                 /     \                                                     
                 |  |  |   _    _      __       _____    __    __             
                 |  |  |  | |  | |    /  \     |  _  \  |  |  /  |          
                  \  \/   | |  | |   /    \    | | | |  |  | /  /          
                 / \  \   | |__| |  /  /\  \   | |_| |  |  |/  /          
                |  |  |   |  __  | /  /__\  \  |    /   |      \           
                |  |  |   | |  | | |   __   |  |    \   |  |\   \          
                \     /   | |  | | |  |  |  |  | |\  \  |  | \   \       
                 \___/    |_|  |_| |__|  |__|  |_| \__\ |__|  \__/        
                                                                              
                      - O R C A' S   B I G   F R I E N D -                    
                                      &                                       
                       - I N T E G R A L  F E E D E R -                       
                                                                              
 v1 FN, 2020, v2 2021, v3 2022-2024                                           
------------------------------------------------------------------------------


----------------------
SHARK INTEGRAL PACKAGE
----------------------

Number of atoms                             ...     13
Number of basis functions                   ...     61
Number of shells                            ...     41
Maximum angular momentum                    ...      1
Integral batch strategy                     ... SHARK/LIBINT Hybrid
RI-J (if used) integral strategy            ... SPLIT-RIJ (Revised 2003 algorithm where possible)
Printlevel                                  ...      1
Contraction scheme used                     ... SEGMENTED contraction
Prescreening option                         ... SCHWARTZ
   Thresh                                   ... 1.000e-10
   Tcut                                     ... 1.000e-11
   Tpresel                                  ... 1.000e-11 
Coulomb Range Separation                    ... NOT USED
Exchange Range Separation                   ... NOT USED
Multipole approximations                    ... NOT USED
Finite Nucleus Model                        ... NOT USED
CABS basis                                  ... NOT available
Auxiliary Coulomb fitting basis             ... NOT available
Auxiliary J/K fitting basis                 ... NOT available
Auxiliary Correlation fitting basis         ... NOT available
Auxiliary 'external' fitting basis          ... NOT available

Checking pre-screening integrals            ... done (  0.0 sec) Dimension = 41
   => SHARK Basis and OBASIS are compatible. Storing Pre-screening
Shell pair information
Shell pair cut-off parameter TPreSel        ...   1.0e-11
Total number of shell pairs                 ...       861
Shell pairs after pre-screening             ...       846
Total number of primitive shell pairs       ...      5382
Primitive shell pairs kept                  ...      3734
          la=0 lb=0:    481 shell pairs
          la=1 lb=0:    310 shell pairs
          la=1 lb=1:     55 shell pairs

Checking whether 4 symmetric matrices of dimension 61 fit in memory
:Max Core in MB      =   1200.00
 MB in use           =      2.04
 MB left             =   1197.96
 MB needed           =      0.06
 Data fit in memory  = YES
Calculating Nuclear repulsion               ... done (  0.0 sec) ENN=    161.133799340709 Eh

Diagonalization of the overlap matrix:
Smallest eigenvalue                        ... 3.384e-03
Time for diagonalization                   ...    0.001 sec
Threshold for overlap eigenvalues          ... 1.000e-07
Number of eigenvalues below threshold      ... 0
Time for construction of square roots      ...    0.000 sec
Total time needed                          ...    0.001 sec

-------------------
DFT GRID GENERATION
-------------------

General Integration Accuracy     IntAcc      ... 4.388
Radial Grid Type                 RadialGrid  ... OptM3 with GC (2021)
Angular Grid (max. ang.)         AngularGrid ... 4 (Lebedev-302)
Angular grid pruning method      GridPruning ... 4 (adaptive)
Weight generation scheme         WeightScheme... mBecke (2022)
Basis function cutoff            BFCut       ... 1.0000e-10
Integration weight cutoff        WCut        ... 1.0000e-14
Partially contracted basis set               ... off
Rotationally invariant grid construction     ... off
Angular grids for H and He will be reduced by one unit

Total number of grid points                  ...    56050
Total number of batches                      ...      883
Average number of points per batch           ...       63
Average number of grid points per atom       ...     4312
Grids setup in   0.2 sec
Initializing property integral containers    ... done (  0.0 sec)

SHARK setup successfully completed in   0.3 seconds

Maximum memory used throughout the entire STARTUP-calculation: 11.8 MB


           ************************************************************
           *        Program running with 8 parallel MPI-processes     *
           *              working on a common directory               *
           ************************************************************
-------------------------------------------------------------------------------
                                 ORCA GUESS
                   Start orbitals & Density for SCF / CASSCF
-------------------------------------------------------------------------------

------------
SCF SETTINGS
------------
Hamiltonian:
 Ab initio Hamiltonian  Method          .... Hartree-Fock(GTOs)


General Settings:
 Integral files         IntName         .... h-shift_071
 Hartree-Fock type      HFTyp           .... RHF
 Total Charge           Charge          ....    0
 Multiplicity           Mult            ....    1
 Number of Electrons    NEL             ....   38
 Basis Dimension        Dim             ....   61
 Nuclear Repulsion      ENuc            ....    161.1337993407 Eh

Convergence Acceleration:
 AO-DIIS                CNVDIIS         .... on
   Start iteration      DIISMaxIt       ....    12
   Startup error        DIISStart       ....  0.200000
   # of expansion vecs  DIISMaxEq       ....     5
   Bias factor          DIISBfac        ....   1.050
   Max. coefficient     DIISMaxC        ....  10.000
 MO-DIIS                CNVKDIIS        .... off
 Trust-Rad. Augm. Hess. CNVTRAH         .... auto
   Auto Start mean grad. ratio tolernc. ....  1.125000
   Auto Start start iteration           ....    50
   Auto Start num. interpolation iter.  ....    10
   Max. Number of Micro iterations      ....    24
   Max. Number of Macro iterations      .... Maxiter - #DIIS iter
   Number of Davidson start vectors     ....     2
   Converg. threshold    (grad. norm)   ....   5.000e-05
   Grad. Scal. Fac. for Micro threshold ....   0.100
   Minimum threshold for Micro iter.    ....   1.000e-02
   NR start threshold (gradient norm)   ....   1.000e-04
   Initial trust radius                 ....   0.400
   Minimum AH scaling param. (alpha)    ....   1.000
   Maximum AH scaling param. (alpha)    .... 1000.000
   Quad. conv. algorithm                .... NR
   White noise on init. David. guess    .... on
   Maximum white noise                  ....   0.010
   Pseudo random numbers                .... off
   Inactive MOs                         .... canonical
   Orbital update algorithm             .... Taylor
   Preconditioner                       .... Diag
   Full preconditioner red. dimension   ....   250
 SOSCF                 CNVSOSCF           .... on
   Start iteration     SOSCFMaxIt         ....   150
   Startup grad/error  SOSCFStart         ....  0.003300
   Hessian update      SOSCFHessUp        .... L-BFGS
   Autom. constraints  SOSCFAutoConstrain .... off
 Level Shifting         CNVShift        .... on
   Level shift para.    LevelShift      ....    0.2500
   Turn off err/grad.   ShiftErr        ....    0.0010
 Zerner damping         CNVZerner       .... off
 Static damping         CNVDamp         .... on
   Fraction old density DampFac         ....    0.7000
   Max. Damping (<1)    DampMax         ....    0.9800
   Min. Damping (>=0)   DampMin         ....    0.0000
   Turn off err/grad.   DampErr         ....    0.1000

SCF Procedure:
 Maximum # iterations   MaxIter         ....   125
 SCF integral mode      SCFMode         .... Direct
   Integral package                     .... SHARK and LIBINT hybrid scheme
 Reset frequency        DirectResetFreq ....    20
 Integral Threshold     Thresh          ....  1.000e-10 Eh
 Primitive CutOff       TCut            ....  1.000e-11 Eh

Convergence Tolerance:
 Convergence Check Mode ConvCheckMode   .... Total+1el-Energy
 Convergence forced     ConvForced      .... 0
 Energy Change          TolE            ....  1.000e-06 Eh
 1-El. energy change                    ....  1.000e-03 Eh
 Orbital Gradient       TolG            ....  5.000e-05
 Orbital Rotation angle TolX            ....  5.000e-05
 DIIS Error             TolErr          ....  1.000e-06

------------------------------
INITIAL GUESS: MODEL POTENTIAL
------------------------------
Loading Hartree-Fock densities                     ... done
Calculating cut-offs                               ... done
Initializing the effective Hamiltonian             ... done
Setting up the integral package (SHARK)            ... done
Starting the Coulomb interaction                   ... done (   0.0 sec)
Making the grid                                    ... done (   0.1 sec)
Mapping shells                                     ... done
Starting the XC term evaluation                    ... done (   0.0 sec)
Transforming the Hamiltonian                       ... done (   0.0 sec)
Diagonalizing the Hamiltonian                      ... done (   0.0 sec)
Back transforming the eigenvectors                 ... done (   0.0 sec)
Now organizing SCF variables                       ... done
                      ------------------
                      INITIAL GUESS DONE (   0.1 sec)
                      ------------------
             **** ENERGY FILE WAS UPDATED (h-shift_071.en.tmp) ****
Finished Guess after   0.3 sec
Maximum memory used throughout the entire GUESS-calculation: 4.2 MB


           ************************************************************
           *        Program running with 8 parallel MPI-processes     *
           *              working on a common directory               *
           ************************************************************

-------------------------------------------------------------------------------------------
                                      ORCA LEAN-SCF
                              memory conserving SCF solver
-------------------------------------------------------------------------------------------

----------------------------------------D-I-I-S--------------------------------------------
Iteration    Energy (Eh)           Delta-E    RMSDP     MaxDP     DIISErr   Damp  Time(sec)
-------------------------------------------------------------------------------------------
               ***  Starting incremental Fock matrix formation  ***
    1    -193.6442548593240076     0.00e+00  1.57e-02  5.26e-02  1.83e-01  0.700   0.0
    2    -193.7251691702198286    -8.09e-02  1.25e-02  3.98e-02  1.20e-01  0.700   0.1
                               ***Turning on AO-DIIS***
    3    -193.7751859304926825    -5.00e-02  7.69e-03  2.01e-02  7.20e-02  0.700   0.1
    4    -193.8067903181846532    -3.16e-02  1.83e-02  4.39e-02  4.88e-02  0.000   0.1
                              *** Initializing SOSCF ***
---------------------------------------S-O-S-C-F--------------------------------------
Iteration    Energy (Eh)           Delta-E    RMSDP     MaxDP     MaxGrad    Time(sec)
--------------------------------------------------------------------------------------
    5    -193.8751594726454073    -6.84e-02  1.70e-03  2.74e-03  2.17e-03     0.1
               *** Restarting incremental Fock matrix formation ***
    6    -193.8752806551723324    -1.21e-04  8.73e-04  1.46e-03  1.35e-03     0.1
    7    -193.8753165740075133    -3.59e-05  5.47e-04  1.12e-03  5.57e-04     0.0
    8    -193.8753236037317720    -7.03e-06  7.24e-05  2.14e-04  1.35e-04     0.0
    9    -193.8753238247591071    -2.21e-07  3.26e-05  9.78e-05  2.91e-05     0.0
                 **** Energy Check signals convergence ****

               *****************************************************
               *                     SUCCESS                       *
               *           SCF CONVERGED AFTER   9 CYCLES          *
               *****************************************************

             **** ENERGY FILE WAS UPDATED (h-shift_071.en.tmp) ****

----------------
TOTAL SCF ENERGY
----------------

Total Energy       :       -193.87532388252845 Eh           -5275.61577 eV

Components:
Nuclear Repulsion  :        161.13379934070889 Eh            4384.67359 eV
Electronic Energy  :       -355.00912322323734 Eh           -9660.28936 eV
One Electron Energy:       -579.22494156880441 Eh          -15761.51196 eV
Two Electron Energy:        224.21581834556707 Eh            6101.22260 eV

Virial components:
Potential Energy   :       -388.04994877450190 Eh          -10559.37593 eV
Kinetic Energy     :        194.17462489197348 Eh            5283.76016 eV
Virial Ratio       :          1.99845859875042

---------------
SCF CONVERGENCE
---------------

  Last Energy change         ...    2.2103e-07  Tolerance :   1.0000e-06
  Last MAX-Density change    ...    9.7803e-05  Tolerance :   1.0000e-05
  Last RMS-Density change    ...    3.2613e-05  Tolerance :   1.0000e-06
  Last DIIS Error            ...    2.1707e-03  Tolerance :   1.0000e-06
  Last Orbital Gradient      ...    2.9129e-05  Tolerance :   5.0000e-05
  Last Orbital Rotation      ...    3.1487e-05  Tolerance :   5.0000e-05


----------------
ORBITAL ENERGIES
----------------

  NO   OCC          E(Eh)            E(eV) 
   0   2.0000     -11.236001      -305.7471 
   1   2.0000     -11.235786      -305.7413 
   2   2.0000     -11.227563      -305.5175 
   3   2.0000     -11.221184      -305.3439 
   4   2.0000     -11.214507      -305.1622 
   5   2.0000      -1.101288       -29.9676 
   6   2.0000      -1.020377       -27.7659 
   7   2.0000      -0.941325       -25.6148 
   8   2.0000      -0.813395       -22.1336 
   9   2.0000      -0.718170       -19.5424 
  10   2.0000      -0.667802       -18.1718 
  11   2.0000      -0.602699       -16.4003 
  12   2.0000      -0.584611       -15.9081 
  13   2.0000      -0.567492       -15.4423 
  14   2.0000      -0.542307       -14.7569 
  15   2.0000      -0.507408       -13.8073 
  16   2.0000      -0.469265       -12.7694 
  17   2.0000      -0.410116       -11.1598 
  18   2.0000      -0.315355        -8.5813 
  19   0.0000       0.133006         3.6193 
  20   0.0000       0.230790         6.2801 
  21   0.0000       0.252447         6.8694 
  22   0.0000       0.266956         7.2642 
  23   0.0000       0.291719         7.9381 
  24   0.0000       0.321393         8.7455 
  25   0.0000       0.336141         9.1469 
  26   0.0000       0.347728         9.4622 
  27   0.0000       0.360398         9.8069 
  28   0.0000       0.368487        10.0270 
  29   0.0000       0.430498        11.7144 
*Only the first 10 virtual orbitals were printed.

                    ********************************
                    * MULLIKEN POPULATION ANALYSIS *
                    ********************************

-----------------------
MULLIKEN ATOMIC CHARGES
-----------------------
   0 C :   -0.363808
   1 H :    0.183005
   2 C :   -0.511299
   3 C :   -0.147358
   4 C :   -0.197243
   5 C :   -0.152351
   6 H :    0.161823
   7 H :    0.172569
   8 H :    0.171148
   9 H :    0.158956
  10 H :    0.175699
  11 H :    0.175731
  12 H :    0.173128
Sum of atomic charges:   -0.0000000

--------------------------------
MULLIKEN REDUCED ORBITAL CHARGES
--------------------------------
  0 C s       :     3.267190  s :     3.267190
      pz      :     1.045939  p :     3.096618
      px      :     1.053809
      py      :     0.996870

  1 H s       :     0.816995  s :     0.816995

  2 C s       :     3.366817  s :     3.366817
      pz      :     1.063427  p :     3.144482
      px      :     1.085271
      py      :     0.995784

  3 C s       :     3.211088  s :     3.211088
      pz      :     0.990504  p :     2.936270
      px      :     0.983552
      py      :     0.962215

  4 C s       :     3.194722  s :     3.194722
      pz      :     1.002996  p :     3.002521
      px      :     0.935633
      py      :     1.063892

  5 C s       :     3.195222  s :     3.195222
      pz      :     0.938869  p :     2.957129
      px      :     1.022412
      py      :     0.995848

  6 H s       :     0.838177  s :     0.838177

  7 H s       :     0.827431  s :     0.827431

  8 H s       :     0.828852  s :     0.828852

  9 H s       :     0.841044  s :     0.841044

 10 H s       :     0.824301  s :     0.824301

 11 H s       :     0.824269  s :     0.824269

 12 H s       :     0.826872  s :     0.826872



                     *******************************
                     * LOEWDIN POPULATION ANALYSIS *
                     *******************************

----------------------
LOEWDIN ATOMIC CHARGES
----------------------
   0 C :   -0.247883
   1 H :    0.125726
   2 C :   -0.319991
   3 C :   -0.106329
   4 C :   -0.150079
   5 C :   -0.113884
   6 H :    0.116112
   7 H :    0.117802
   8 H :    0.117143
   9 H :    0.110480
  10 H :    0.116893
  11 H :    0.117389
  12 H :    0.116623

-------------------------------
LOEWDIN REDUCED ORBITAL CHARGES
-------------------------------
  0 C s       :     2.988505  s :     2.988505
      pz      :     1.080115  p :     3.259378
      px      :     1.072340
      py      :     1.106923

  1 H s       :     0.874274  s :     0.874274

  2 C s       :     2.976274  s :     2.976274
      pz      :     1.127733  p :     3.343717
      px      :     1.124020
      py      :     1.091963

  3 C s       :     2.952142  s :     2.952142
      pz      :     1.028001  p :     3.154188
      px      :     1.092674
      py      :     1.033513

  4 C s       :     2.941005  s :     2.941005
      pz      :     1.053808  p :     3.209074
      px      :     1.084742
      py      :     1.070525

  5 C s       :     2.945012  s :     2.945012
      pz      :     1.025889  p :     3.168873
      px      :     1.033580
      py      :     1.109404

  6 H s       :     0.883888  s :     0.883888

  7 H s       :     0.882198  s :     0.882198

  8 H s       :     0.882857  s :     0.882857

  9 H s       :     0.889520  s :     0.889520

 10 H s       :     0.883107  s :     0.883107

 11 H s       :     0.882611  s :     0.882611

 12 H s       :     0.883377  s :     0.883377



                      *****************************
                      * MAYER POPULATION ANALYSIS *
                      *****************************

  NA   - Mulliken gross atomic population
  ZA   - Total nuclear charge
  QA   - Mulliken gross atomic charge
  VA   - Mayer's total valence
  BVA  - Mayer's bonded valence
  FA   - Mayer's free valence

  ATOM       NA         ZA         QA         VA         BVA        FA
  0 C      6.3638     6.0000    -0.3638     3.8443     3.8443     0.0000
  1 H      0.8170     1.0000     0.1830     0.9299     0.9299     0.0000
  2 C      6.5113     6.0000    -0.5113     3.7711     3.7711     0.0000
  3 C      6.1474     6.0000    -0.1474     3.7646     3.7646    -0.0000
  4 C      6.1972     6.0000    -0.1972     3.8219     3.8219    -0.0000
  5 C      6.1524     6.0000    -0.1524     3.8080     3.8080    -0.0000
  6 H      0.8382     1.0000     0.1618     0.9437     0.9437     0.0000
  7 H      0.8274     1.0000     0.1726     0.9385     0.9385     0.0000
  8 H      0.8289     1.0000     0.1711     0.9219     0.9219    -0.0000
  9 H      0.8410     1.0000     0.1590     0.9329     0.9329     0.0000
 10 H      0.8243     1.0000     0.1757     0.9386     0.9386     0.0000
 11 H      0.8243     1.0000     0.1757     0.9386     0.9386    -0.0000
 12 H      0.8269     1.0000     0.1731     0.9371     0.9371    -0.0000

  Mayer bond orders larger than 0.100000
B(  0-C ,  5-C ) :   1.8766 B(  0-C ,  6-H ) :   0.9628 B(  0-C ,  7-H ) :   0.9613 
B(  1-H ,  2-C ) :   0.9408 B(  2-C ,  3-C ) :   0.9601 B(  2-C ,  8-H ) :   0.9453 
B(  2-C ,  9-H ) :   0.9599 B(  3-C ,  4-C ) :   1.8781 B(  3-C , 10-H ) :   0.9572 
B(  4-C ,  5-C ) :   1.0482 B(  4-C , 11-H ) :   0.9563 B(  5-C , 12-H ) :   0.9576 


-------
TIMINGS
-------

Total SCF time: 0 days 0 hours 0 min 0 sec 

Total time                  ....       0.735 sec
Sum of individual times     ....       0.691 sec  ( 94.0%)

SCF preparation             ....       0.252 sec  ( 34.3%)
Fock matrix formation       ....       0.382 sec  ( 52.0%)
  Startup                   ....       0.001 sec  (  0.4% of F)
  Coulomb+Exchange Fock     ....       0.402 sec  (105.2% of F)
Diagonalization             ....       0.000 sec  (  0.0%)
Density matrix formation    ....       0.008 sec  (  1.1%)
Total Energy calculation    ....       0.005 sec  (  0.7%)
Population analysis         ....       0.005 sec  (  0.6%)
Orbital Transformation      ....       0.005 sec  (  0.6%)
Orbital Orthonormalization  ....       0.000 sec  (  0.0%)
DIIS solution               ....       0.021 sec  (  2.8%)
SOSCF solution              ....       0.014 sec  (  1.9%)
Finished LeanSCF after   0.7 sec

Maximum memory used throughout the entire LEANSCF-calculation: 6.4 MB

-------------------------   --------------------
FINAL SINGLE POINT ENERGY      -193.875323882528
-------------------------   --------------------



           ************************************************************
           *        Program running with 8 parallel MPI-processes     *
           *              working on a common directory               *
           ************************************************************

------------------------------------------------------------------------------
                              ORCA PROPERTY CALCULATIONS
------------------------------------------------------------------------------

GBWName                                 ... h-shift_071.gbw
Number of atoms                         ...     13
Number of basis functions               ...     61
Max core memory                         ...   1200 MB

Electric properties:
Dipole moment                           ... YES
Quadrupole moment                       ...  NO
Static polarizability (Dipole/Dipole)   ...  NO
Static polarizability (Dipole/Quad.)    ...  NO
Static polarizability (Quad./Quad.)     ...  NO
Static polarizability (Velocity)        ...  NO
Static hyperpolarizability              ...  NO

Atomic electric properties:
Dipole moment                           ...  NO
Quadrupole moment                       ...  NO
Static polarizability                   ...  NO

Choice of electric origin               ... Center of mass
Position of electric origin             ...     1.639263    -1.409973     1.937038

General magnetic properties:
Magnetizability                         ...  NO

EPR properties:
g-Tensor (aka g-matrix)                 ...  NO
Zero-Field splitting spin-orbit         ...  NO
Zero-field splitting spin-spin          ...  NO
Hyperfine couplings                     ...  NO (   0 nuclei)
Quadrupole couplings                    ...  NO (   0 nuclei)
Contact density                         ...  NO (   0 nuclei)

NMR properties:
Chemical shifts                         ...  NO (   0 nuclei)
Spin-rotation constants                 ...  NO (   0 nuclei)
Spin-spin couplings                     ...  NO (   0 nuclei,    0 pairs)

Choice of magnetic origin               ... GIAO
Position of magnetic origin             ...     0.000000     0.000000     0.000000

Properties with geometric perturbations:
SCF Hessian                             ...  NO
IR spectrum                             ...  NO
VCD spectrum                            ...  NO
X-ray spectroscopy properties:
SCF XES/XAS/RIXS spectra                ...  NO

SCF SOC stabilization energy            ...  NO
Diagonal Born-Oppenheimer correction    ...  NO

-------------
DIPOLE MOMENT
-------------

Method             : SCF
Type of density    : Electron Density
Multiplicity       :   1
Irrep              :   0
Energy             :  -193.8753238825284484 Eh
Basis              : AO
                                X                 Y                 Z
Electronic contribution:     -1.508753312      -1.809335955       0.927642753
Nuclear contribution   :      1.643675362       1.810407667      -0.965343878
                        -----------------------------------------
Total Dipole Moment    :      0.134922050       0.001071712      -0.037701125
                        -----------------------------------------
Magnitude (a.u.)       :      0.140094550
Magnitude (Debye)      :      0.356092046



--------------------
Rotational spectrum 
--------------------
 
Rotational constants in cm-1:             0.283953             0.142208             0.098071 
Rotational constants in MHz :          8512.696912          4263.283025          2940.085708 

Dipole components along the rotational axes: 
x,y,z [a.u.] :     0.107964     0.050717     0.073472 
x,y,z [Debye]:     0.274422     0.128913     0.186750 

 

Dipole moment calculation done in   0.0 sec 

Maximum memory used throughout the entire PROP-calculation: 2.2 MB

--------------------------------
SUGGESTED CITATIONS FOR THIS RUN
--------------------------------

Below you find a list of papers that are relevant to this ORCA run
We neither can nor want to force you to cite these papers, but we appreciate if you do
You receive ORCA, which is the product of decades of hard work by many enthusiastic individuals, for free
The only thing we kindly ask in return is that you cite our papers,
We deeply appreciate it, if you show your appreciation for ORCA by not just citing the generic ORCA reference.

Please note that relegating all ORCA citations to the supporting information does *not* help us.
SI sections are not indexed - citations you put there will not count into any citation statistics
But we need these citations in order to attract the funding resources that allow us to do what we are doing

Therefore, if you are a happy ORCA user, please consider citing a few of the papers listed below in the main body of your paper

In addition to the list printed below, the program has created the file h-shift_071.bibtex that contains the list in bibtex format
You can import this file easily into all common literature databanks and citation aid programs


List of essential papers. We consider these as the minimum necessary citations

  1. Neese, F.
     Software update: the ORCA program system, version 6.0
     WIRES Comput. Molec. Sci. 2025 15(1), e70019
     doi.org/10.1002/wcms.7019

List of papers to cite with high priority. The work reported in these papers was absolutely
necessary for this run to complete.
Our perspective: the developers of density functionals and basis sets usually get cited in chemistry papers
Good! But without the algorithms to do something with them, the functionals or basis sets would not do anything.
Hence, in our opinion, the algorithm design and method developments papers are equally worthy of getting cited

  1. Neese, F.
     The SHARK Integral Generation and Digestion System
     J. Comp. Chem. 2022 44(3), 381
     doi.org/10.1002/jcc.26942

List of suggested additional citations. These are papers that are important in the 'surrounding' of 
of this run, or papers that preceded the highly important papers. If you like your results we are grateful for a citation.

  1. Neese, F.
     The ORCA program system
     WIRES Comput. Molec. Sci. 2012 2(1), 73-78
     doi.org/10.1002/wcms.81
  2. Neese, F.
     Software update: the ORCA program system, version 4.0
     WIRES Comput. Molec. Sci. 2018 8(1), 1-6
     doi.org/10.1002/wcms.1327
  3. Neese, F.; Wennmohs, F.; Becker, U.; Riplinger, C.
     The ORCA quantum chemistry program package
     J. Chem. Phys. 2020 152(22), 224108
     doi.org/10.1063/5.0004608
  4. Neese, F.
     Software update: The ORCA program system—Version 5.0
     WIRES Comput. Molec. Sci. 2022 12(1), e1606
     doi.org/10.1002/wcms.1606

List of optional additional citations

  1. Neese, F.
     Approximate second-order SCF convergence for spin unrestricted wavefunctions
     Chem. Phys. Lett. 2000 325(1-3), 93-98
     doi.org/10.1016/s0009-2614(00)00662-x

Timings for individual modules:

Sum of individual times          ...        2.361 sec (=   0.039 min)
Startup calculation              ...        0.652 sec (=   0.011 min)  27.6 %
SCF iterations                   ...        1.331 sec (=   0.022 min)  56.4 %
Property calculations            ...        0.379 sec (=   0.006 min)  16.0 %
                             ****ORCA TERMINATED NORMALLY****
TOTAL RUN TIME: 0 days 0 hours 0 minutes 2 seconds 833 msec
