[Molden Format]
[Title]
 Molden file created by orca_2mkl for BaseName=h-shift_042

[Atoms] AU
C    1   6          0.1882488483         0.0324787231        -0.0804702080 
H    2   1          2.2744252419        -0.0864870960        -0.2264269854 
C    3   6          4.5874443606         0.0361806966         2.4656258424 
C    4   6          3.6271819154        -2.0976791566         3.4733260828 
C    5   6          1.0446009226        -2.9987799458         3.3271652149 
C    6   6         -0.4977292972        -2.1926870277         1.4748462098 
H    7   1         -0.8751397315         0.1266910195        -1.8239787823 
H    8   1          0.0044200694         1.8291358449         0.8911211454 
H    9   1          3.6188746793         1.8080068170         2.4834667468 
H   10   1          6.5177202380         0.1263962222         1.8935074759 
H   11   1          4.9443493767        -3.4663057502         4.1766462450 
H   12   1          0.6003225290        -4.7025570281         4.3280151981 
H   13   1         -2.0053906014        -3.4037898302         0.8615204753 
[GTO]
  1 0
s   6 1.0 
     3047.5249000000         0.5363343823
      457.3695100000         0.9894506076
      103.9486900000         1.5972822308
       29.2101550000         2.0791870615
        9.2866630000         1.7741742532
        3.1639270000         0.6125798260
s   3 1.0 
        7.8682724000        -0.3995563516
        1.8812885000        -0.1841552393
        0.5442493000         0.5163903794
p   3 1.0 
        7.8682724000         1.2960827175
        1.8812885000         0.9937536282
        0.5442493000         0.4959527138
s   1 1.0 
        0.1687144000         0.1876178721
p   1 1.0 
        0.1687144000         0.1541275509

  2 0
s   3 1.0 
       18.7311370000         0.2149354183
        2.8253937000         0.3645711272
        0.6401217000         0.4150514277
s   1 1.0 
        0.1612778000         0.1813806839

  3 0
s   6 1.0 
     3047.5249000000         0.5363343823
      457.3695100000         0.9894506076
      103.9486900000         1.5972822308
       29.2101550000         2.0791870615
        9.2866630000         1.7741742532
        3.1639270000         0.6125798260
s   3 1.0 
        7.8682724000        -0.3995563516
        1.8812885000        -0.1841552393
        0.5442493000         0.5163903794
p   3 1.0 
        7.8682724000         1.2960827175
        1.8812885000         0.9937536282
        0.5442493000         0.4959527138
s   1 1.0 
        0.1687144000         0.1876178721
p   1 1.0 
        0.1687144000         0.1541275509

  4 0
s   6 1.0 
     3047.5249000000         0.5363343823
      457.3695100000         0.9894506076
      103.9486900000         1.5972822308
       29.2101550000         2.0791870615
        9.2866630000         1.7741742532
        3.1639270000         0.6125798260
s   3 1.0 
        7.8682724000        -0.3995563516
        1.8812885000        -0.1841552393
        0.5442493000         0.5163903794
p   3 1.0 
        7.8682724000         1.2960827175
        1.8812885000         0.9937536282
        0.5442493000         0.4959527138
s   1 1.0 
        0.1687144000         0.1876178721
p   1 1.0 
        0.1687144000         0.1541275509

  5 0
s   6 1.0 
     3047.5249000000         0.5363343823
      457.3695100000         0.9894506076
      103.9486900000         1.5972822308
       29.2101550000         2.0791870615
        9.2866630000         1.7741742532
        3.1639270000         0.6125798260
s   3 1.0 
        7.8682724000        -0.3995563516
        1.8812885000        -0.1841552393
        0.5442493000         0.5163903794
p   3 1.0 
        7.8682724000         1.2960827175
        1.8812885000         0.9937536282
        0.5442493000         0.4959527138
s   1 1.0 
        0.1687144000         0.1876178721
p   1 1.0 
        0.1687144000         0.1541275509

  6 0
s   6 1.0 
     3047.5249000000         0.5363343823
      457.3695100000         0.9894506076
      103.9486900000         1.5972822308
       29.2101550000         2.0791870615
        9.2866630000         1.7741742532
        3.1639270000         0.6125798260
s   3 1.0 
        7.8682724000        -0.3995563516
        1.8812885000        -0.1841552393
        0.5442493000         0.5163903794
p   3 1.0 
        7.8682724000         1.2960827175
        1.8812885000         0.9937536282
        0.5442493000         0.4959527138
s   1 1.0 
        0.1687144000         0.1876178721
p   1 1.0 
        0.1687144000         0.1541275509

  7 0
s   3 1.0 
       18.7311370000         0.2149354183
        2.8253937000         0.3645711272
        0.6401217000         0.4150514277
s   1 1.0 
        0.1612778000         0.1813806839

  8 0
s   3 1.0 
       18.7311370000         0.2149354183
        2.8253937000         0.3645711272
        0.6401217000         0.4150514277
s   1 1.0 
        0.1612778000         0.1813806839

  9 0
s   3 1.0 
       18.7311370000         0.2149354183
        2.8253937000         0.3645711272
        0.6401217000         0.4150514277
s   1 1.0 
        0.1612778000         0.1813806839

 10 0
s   3 1.0 
       18.7311370000         0.2149354183
        2.8253937000         0.3645711272
        0.6401217000         0.4150514277
s   1 1.0 
        0.1612778000         0.1813806839

 11 0
s   3 1.0 
       18.7311370000         0.2149354183
        2.8253937000         0.3645711272
        0.6401217000         0.4150514277
s   1 1.0 
        0.1612778000         0.1813806839

 12 0
s   3 1.0 
       18.7311370000         0.2149354183
        2.8253937000         0.3645711272
        0.6401217000         0.4150514277
s   1 1.0 
        0.1612778000         0.1813806839

 13 0
s   3 1.0 
       18.7311370000         0.2149354183
        2.8253937000         0.3645711272
        0.6401217000         0.4150514277
s   1 1.0 
        0.1612778000         0.1813806839

[5D]
[7F]
[9G]
[MO]
 Sym=     1a
 Ene= -1.12379411619643E+01
 Spin= Alpha
 Occup= 2.000000
  1       0.000153241387
  2       0.000008510446
  3       0.000024677174
  4       0.000065332052
  5      -0.000038235318
  6      -0.000259001731
  7      -0.000556810597
  8      -0.000229105041
  9       0.000085678000
 10      -0.000103380167
 11       0.000867186254
 12       0.047667633515
 13       0.000553909776
 14       0.000073921487
 15       0.000215678584
 16      -0.000148590379
 17       0.004728187595
 18      -0.001488898709
 19      -0.002240785414
 20       0.001158441826
 21       0.993625336398
 22       0.024877614348
 23      -0.000046207947
 24       0.000058092613
 25      -0.000260942741
 26      -0.017226237485
 27       0.000901928217
 28      -0.001243699032
 29       0.001268966615
 30       0.043246914024
 31       0.000405559213
 32      -0.000186238088
 33      -0.000078227150
 34      -0.000002584385
 35       0.003640929554
 36       0.002129501111
 37       0.001215232353
 38      -0.000016317724
 39       0.029192673652
 40       0.000392744364
 41      -0.000121129847
 42       0.000041870368
 43      -0.000084647421
 44      -0.000171814236
 45       0.000506009432
 46      -0.000263924280
 47       0.000397524912
 48      -0.000000985760
 49      -0.000037296487
 50       0.000042973613
 51      -0.000072972448
 52      -0.000241811495
 53       0.000350307826
 54      -0.000088694484
 55       0.000494834281
 56      -0.000216141153
 57       0.002293986810
 58      -0.000071558219
 59       0.000307531388
 60       0.000035924352
 61       0.000345171989
 Sym=     1a
 Ene= -1.12371198200680E+01
 Spin= Alpha
 Occup= 2.000000
  1       0.012797987265
  2      -0.000072502063
  3       0.000052894739
  4       0.000168137699
  5      -0.000035263532
  6       0.003648347901
  7      -0.000442571881
  8      -0.002216434431
  9       0.001305683531
 10      -0.000155888229
 11       0.000538797064
 12      -0.002101506109
 13       0.000011188158
 14       0.000021527338
 15      -0.000001326172
 16      -0.000005793733
 17      -0.000237584836
 18       0.000141389459
 19       0.000205291886
 20       0.000152134604
 21      -0.032663974500
 22      -0.001110135456
 23       0.000153416400
 24       0.000074364986
 25       0.000045782401
 26       0.000708881428
 27      -0.000140023193
 28      -0.000152743951
 29      -0.000126129083
 30       0.080953044240
 31       0.001165898726
 32       0.000142333850
 33      -0.000111460798
 34       0.000147796940
 35       0.004876072233
 36      -0.001280273624
 37       0.001520066663
 38      -0.002243760556
 39       0.992231934715
 40       0.024840631116
 41       0.000288168342
 42      -0.000035898486
 43       0.000018765466
 44      -0.017366894412
 45      -0.002273621851
 46      -0.000826796855
 47      -0.000343761458
 48      -0.000088428005
 49       0.000107174300
 50      -0.000202534273
 51       0.000794805298
 52       0.000050915910
 53      -0.000283192239
 54       0.000017778907
 55      -0.000013415645
 56       0.000009133441
 57      -0.000009569873
 58      -0.000080506362
 59       0.000552011478
 60      -0.000236576402
 61       0.002171614998
 Sym=     1a
 Ene= -1.12277294237101E+01
 Spin= Alpha
 Occup= 2.000000
  1       0.002069471662
  2       0.000068310478
  3      -0.000030450719
  4      -0.000078761330
  5       0.000135322289
  6       0.001503361998
  7       0.000099135831
  8      -0.000571071168
  9       0.000051698536
 10       0.000025461288
 11      -0.000296797882
 12       0.007123873564
 13       0.000271104076
 14      -0.000118176649
 15      -0.000090303604
 16       0.000087245155
 17       0.000936386103
 18      -0.000088785637
 19      -0.000277796348
 20      -0.000220002579
 21       0.040663566989
 22       0.001716980902
 23      -0.000184586380
 24      -0.000073419304
 25      -0.000046547055
 26      -0.006513509282
 27       0.002694770301
 28       0.000207354261
 29       0.000938519273
 30      -0.991920872522
 31      -0.025248545467
 32      -0.000180437272
 33      -0.000125848972
 34       0.000348245276
 35       0.019568495532
 36       0.000966395327
 37       0.002174906934
 38      -0.002830479375
 39       0.082792128028
 40       0.003002734650
 41       0.000166818830
 42      -0.000037725505
 43       0.000150866207
 44      -0.008852306278
 45      -0.002934438931
 46       0.000118844699
 47      -0.001827463765
 48      -0.000076922223
 49      -0.000295652589
 50       0.000031137549
 51       0.000099938510
 52       0.000030277643
 53      -0.000019753988
 54      -0.000063185869
 55      -0.000254882037
 56       0.000105000690
 57      -0.000230644320
 58       0.000249868294
 59      -0.001870338517
 60       0.000087998854
 61      -0.000183387932
 Sym=     1a
 Ene= -1.12222380760153E+01
 Spin= Alpha
 Occup= 2.000000
  1      -0.000216630175
  2      -0.000054642022
  3      -0.000060941010
  4      -0.000029147559
  5      -0.000161107107
  6      -0.000629264867
  7      -0.000527957437
  8       0.000114416644
  9       0.001367867583
 10       0.000074728088
 11       0.002631073019
 12       0.995024589615
 13       0.025526582701
 14      -0.000194786970
 15      -0.000133854044
 16      -0.000051960441
 17      -0.018440429947
 18       0.001703990102
 19       0.001408894475
 20      -0.000176514719
 21      -0.048465263856
 22      -0.001982863387
 23      -0.000115941578
 24      -0.000234058660
 25       0.000073171600
 26       0.007109603763
 27       0.000872433030
 28       0.002828647302
 29      -0.001337061356
 30       0.005196311828
 31       0.000064780595
 32      -0.000119469833
 33      -0.000081969025
 34      -0.000001730118
 35      -0.000498008901
 36       0.000178298871
 37       0.000034059505
 38       0.000115901547
 39       0.000129536454
 40       0.000059231547
 41      -0.000056171633
 42      -0.000020649940
 43      -0.000000706663
 44      -0.000427875379
 45      -0.000106508431
 46      -0.000488127045
 47       0.000082435326
 48       0.000130584318
 49       0.000617781418
 50      -0.000035829866
 51      -0.000755801491
 52       0.000036352614
 53       0.003168666859
 54      -0.000147536691
 55       0.002684825180
 56      -0.000105143215
 57       0.000106652349
 58       0.000033034293
 59       0.000262933225
 60      -0.000020758504
 61      -0.000088196620
 Sym=     1a
 Ene= -1.12093001509207E+01
 Spin= Alpha
 Occup= 2.000000
  1      -0.996128616170
  2      -0.026302984112
  3      -0.000014111993
  4       0.000036542654
  5      -0.000262538691
  6       0.019792043715
  7       0.000425623604
  8      -0.000782353830
  9       0.001415056966
 10      -0.000024469702
 11      -0.003910475424
 12      -0.000217527739
 13       0.000082135319
 14      -0.000163124192
 15       0.000053445984
 16       0.000053389399
 17      -0.000248258390
 18       0.001191827944
 19      -0.000102850530
 20      -0.000658004589
 21      -0.000186905968
 22      -0.000028081468
 23      -0.000042623152
 24       0.000043167629
 25      -0.000051556550
 26       0.000825913171
 27      -0.000265024638
 28       0.000403679213
 29      -0.000093942603
 30      -0.000994785449
 31       0.000172971206
 32      -0.000064090712
 33       0.000079813558
 34      -0.000085680782
 35      -0.000447985001
 36       0.000133988826
 37      -0.000462602257
 38       0.000395965847
 39       0.013106079277
 40       0.000815047841
 41       0.000025409205
 42       0.000108960115
 43      -0.000084037925
 44      -0.004735968733
 45      -0.000479559952
 46      -0.002234740244
 47       0.001564880591
 48       0.000005424082
 49      -0.002821906189
 50      -0.000094526518
 51      -0.003513606500
 52       0.000048165228
 53       0.000604020000
 54      -0.000165934862
 55      -0.000668142271
 56       0.000025409626
 57       0.000023601832
 58      -0.000045697770
 59      -0.000459237231
 60       0.000143431652
 61      -0.000052991320
 Sym=     1a
 Ene= -1.11426357499554E+00
 Spin= Alpha
 Occup= 2.000000
  1       0.074060772106
  2      -0.135288495765
  3      -0.005009202164
  4       0.036018057725
  5      -0.033891183322
  6      -0.132390721779
  7      -0.013583275684
  8       0.004315424511
  9      -0.017155481442
 10      -0.050252492880
 11       0.002320412928
 12       0.074534071164
 13      -0.142801148809
 14       0.034562239589
 15       0.048961952547
 16      -0.019168318743
 17      -0.104997683016
 18       0.003156852440
 19       0.002433425708
 20       0.004037818752
 21       0.108800082344
 22      -0.214644193875
 23       0.037643658349
 24      -0.020895019217
 25       0.030633703095
 26      -0.135607825042
 27       0.007091064931
 28      -0.001122766743
 29       0.004860852873
 30       0.122050486138
 31      -0.240324817123
 32      -0.010204274174
 33      -0.040841683555
 34       0.058049922371
 35      -0.157304685529
 36      -0.003637530226
 37      -0.002290239098
 38       0.005611648485
 39       0.111833256381
 40      -0.221625699544
 41      -0.064597457458
 42      -0.002547003063
 43      -0.032645483152
 44      -0.129113440845
 45       0.000828044105
 46       0.004872728123
 47       0.001503712233
 48      -0.031902818509
 49      -0.007969753584
 50      -0.036837472247
 51       0.001168160170
 52      -0.039827903614
 53      -0.004421844731
 54      -0.032113057475
 55      -0.000959236184
 56      -0.051003299368
 57      -0.008464430979
 58      -0.054312674855
 59      -0.005794119371
 60      -0.049877978581
 61      -0.003415958584
 Sym=     1a
 Ene= -1.01436636980657E+00
 Spin= Alpha
 Occup= 2.000000
  1      -0.095465717502
  2       0.182348807227
  3      -0.017944522827
  4      -0.037413858023
  5       0.026841237619
  6       0.169876142633
  7      -0.002437407133
  8      -0.001976113530
  9       0.006714094767
 10       0.038676023660
 11       0.004317678974
 12       0.123687536390
 13      -0.240145943909
 14       0.019722465087
 15       0.071066067958
 16      -0.038284141824
 17      -0.199264566200
 18       0.007439350430
 19       0.003581626528
 20      -0.003244857837
 21       0.117210137205
 22      -0.234657402270
 23      -0.055323259201
 24      -0.068331246956
 25       0.030026155158
 26      -0.165099931125
 27      -0.010475191932
 28       0.005590496716
 29      -0.002416395874
 30      -0.020215490146
 31       0.039259154790
 32      -0.096863901071
 33       0.001164186715
 34      -0.057565685007
 35       0.028633754167
 36      -0.010940422891
 37      -0.007518043818
 38      -0.002008883001
 39      -0.104408137294
 40       0.208537475324
 41       0.019314672957
 42       0.021990563996
 43      -0.014673557694
 44       0.152312212771
 45       0.001884911674
 46       0.001034477774
 47      -0.004269384636
 48       0.056642910666
 49       0.010899925122
 50       0.053191644562
 51       0.003920901398
 52      -0.063644284596
 53      -0.005383237007
 54      -0.073156147598
 55      -0.017179894586
 56      -0.072450941882
 57      -0.013257934130
 58       0.010228761865
 59      -0.001425113072
 60       0.064387814874
 61       0.015284762354
 Sym=     1a
 Ene= -9.45614190321428E-01
 Spin= Alpha
 Occup= 2.000000
  1      -0.133519649155
  2       0.249350255351
  3       0.011473201206
  4       0.018974884216
  5      -0.002805012203
  6       0.288629527258
  7       0.012527275799
  8       0.000288704059
  9       0.013528003606
 10       0.100681058077
 11       0.017255708902
 12      -0.081235257543
 13       0.155987312662
 14      -0.004684671526
 15       0.005732219523
 16      -0.003210860714
 17       0.153257625922
 18      -0.010255223335
 19       0.003581175467
 20      -0.006639359125
 21       0.013914821822
 22      -0.028768896780
 23       0.094683264856
 24       0.092729086712
 25      -0.029068752587
 26      -0.030882158012
 27       0.021258042428
 28       0.004286434098
 29       0.000007112956
 30       0.122438018093
 31      -0.243856363248
 32       0.012578639890
 33       0.018088315684
 34       0.019461166271
 35      -0.187396134739
 36      -0.001000694513
 37       0.019546163992
 38      -0.007152528464
 39       0.024983876322
 40      -0.046641556875
 41      -0.035458073679
 42       0.113813726859
 43      -0.121429040301
 44      -0.070334315282
 45      -0.014906842816
 46       0.004505541529
 47      -0.017924819082
 48       0.092205341380
 49       0.028754501921
 50       0.097629521247
 51       0.022614332306
 52       0.068390407309
 53       0.019513648394
 54       0.058697044990
 55       0.019181366070
 56      -0.015750528882
 57      -0.010221056914
 58      -0.093705835165
 59      -0.024595819158
 60      -0.019473879978
 61      -0.010193035494
 Sym=     1a
 Ene= -8.11066892626659E-01
 Spin= Alpha
 Occup= 2.000000
  1       0.071036414194
  2      -0.135818750617
  3      -0.009563180700
  4      -0.068454610013
  5       0.037691267473
  6      -0.166995988291
  7       0.004437682273
  8      -0.015352251465
  9       0.013089940518
 10      -0.046105750042
 11      -0.020483859525
 12      -0.100324811232
 13       0.197359924433
 14       0.047218597053
 15       0.079785919232
 16      -0.022903168559
 17       0.199055521217
 18       0.014776582423
 19       0.029564166124
 20      -0.011596998243
 21       0.084938588579
 22      -0.173231190314
 23       0.067819431879
 24       0.140687129510
 25      -0.052246159382
 26      -0.165822166549
 27       0.016060839091
 28       0.044988799418
 29      -0.017220521900
 30       0.018936114986
 31      -0.039208377760
 32      -0.191652440507
 33       0.010886428544
 34      -0.103376567814
 35      -0.031551555913
 36      -0.043536348560
 37       0.001623372665
 38      -0.023234295761
 39      -0.091336978977
 40       0.183828716687
 41      -0.032695851976
 42      -0.092867553769
 43       0.048572801276
 44       0.183976427690
 45      -0.020662358046
 46      -0.020417992342
 47      -0.000052801065
 48      -0.072479157571
 49      -0.026127588372
 50      -0.074257049804
 51      -0.029880985775
 52       0.107068170919
 53       0.040671029915
 54       0.113983269853
 55       0.047641210165
 56      -0.107719353353
 57      -0.045025627630
 58      -0.026364589996
 59      -0.013205836690
 60       0.110645148726
 61       0.044597462336
 Sym=     1a
 Ene= -7.26747826892492E-01
 Spin= Alpha
 Occup= 2.000000
  1       0.014648197098
  2      -0.021344699854
  3      -0.112267204740
  4      -0.116289623476
  5      -0.002381284692
  6      -0.054396577635
  7      -0.051219635344
  8      -0.040084480047
  9      -0.011644732411
 10      -0.081492521786
 11      -0.039334950589
 12       0.029881624946
 13      -0.055953188553
 14       0.034640577709
 15      -0.187972090580
 16       0.067720225881
 17      -0.074394879376
 18       0.019806261890
 19      -0.060708492440
 20       0.029571404828
 21      -0.070302404514
 22       0.142149118821
 23       0.182229035557
 24      -0.013948782327
 25       0.019287892725
 26       0.149684864668
 27       0.055840805213
 28      -0.028359815639
 29       0.015297607908
 30       0.079769461132
 31      -0.162631207417
 32       0.006433194540
 33       0.031570066179
 34      -0.035898878794
 35      -0.169123828232
 36      -0.001823709175
 37       0.031414919253
 38      -0.027402914377
 39      -0.074404608647
 40       0.150567486948
 41      -0.136532538414
 42      -0.011853387743
 43      -0.132910781127
 44       0.165072007463
 45      -0.050734274279
 46      -0.010687653658
 47      -0.046985897101
 48       0.016776625190
 49       0.007344180368
 50      -0.064042952766
 51      -0.033416447328
 52      -0.130985870273
 53      -0.075218650413
 54      -0.026484989005
 55      -0.013651768291
 56       0.137921360681
 57       0.066887791233
 58      -0.102741874679
 59      -0.041505144434
 60       0.151770768771
 61       0.078628858832
 Sym=     1a
 Ene= -6.76071014558692E-01
 Spin= Alpha
 Occup= 2.000000
  1      -0.024039111241
  2       0.046671386200
  3      -0.086200573172
  4       0.080084543619
  5      -0.121823420258
  6       0.066067510411
  7      -0.043544880649
  8       0.028388351918
  9      -0.055205905286
 10      -0.026779280352
 11      -0.017283683944
 12      -0.023714361618
 13       0.047524938332
 14       0.173655801902
 15       0.088134969885
 16      -0.044387026312
 17       0.067332610197
 18       0.064508364904
 19       0.024546707080
 20      -0.010937569512
 21       0.023975589948
 22      -0.048835590938
 23       0.094840674316
 24      -0.131715304120
 25       0.089258323159
 26      -0.049107333890
 27       0.037374762866
 28      -0.045268510772
 29       0.035463074438
 30      -0.025594358082
 31       0.048833249967
 32      -0.049447252938
 33      -0.239172320763
 34       0.161167447394
 35       0.079069305700
 36      -0.017283391163
 37      -0.094684902959
 38       0.060610493397
 39       0.022843954447
 40      -0.046411208968
 41      -0.152093196698
 42      -0.093452079289
 43      -0.046653439380
 44      -0.038417185364
 45      -0.052551023094
 46      -0.036014096978
 47      -0.010212892830
 48       0.109447899826
 49       0.062617309409
 50       0.034855095824
 51       0.023081389600
 52       0.020213516818
 53       0.017118948044
 54       0.127510891875
 55       0.079180966385
 56       0.077538387825
 57       0.051758433673
 58       0.189568781202
 59       0.113151209749
 60       0.077610172547
 61       0.052208168596
 Sym=     1a
 Ene= -5.97857241839995E-01
 Spin= Alpha
 Occup= 2.000000
  1       0.013334373907
  2      -0.026525276043
  3      -0.108182724328
  4      -0.027831092682
  5      -0.075751664225
  6      -0.033325311111
  7      -0.044272086174
  8      -0.014857349505
  9      -0.024939613018
 10      -0.055883971337
 11      -0.043377051003
 12      -0.009017704536
 13       0.018427834730
 14      -0.278800631200
 15       0.129323254761
 16       0.080861972584
 17       0.039325635781
 18      -0.135677552502
 19       0.061892507103
 20       0.037581839032
 21      -0.019039143612
 22       0.044607642014
 23      -0.175703648226
 24       0.090698698219
 25       0.012354074075
 26       0.025202499443
 27      -0.055371113347
 28       0.022296634478
 29       0.021916784648
 30       0.009346654638
 31      -0.021816427037
 32       0.146493904496
 33      -0.024270780983
 34       0.134179345705
 35       0.017762063716
 36       0.046579354772
 37       0.015440082371
 38       0.033701482765
 39       0.002265143223
 40      -0.006393657853
 41      -0.205711274147
 42      -0.037856280548
 43      -0.147666368389
 44      -0.007609264666
 45      -0.099625150396
 46      -0.027602779494
 47      -0.062395751878
 48       0.061502633394
 49       0.052043652463
 50      -0.036369209895
 51      -0.018441380217
 52       0.159853401394
 53       0.104292615162
 54      -0.167194494251
 55      -0.114997930631
 56      -0.085290048828
 57      -0.072268648821
 58       0.023560526108
 59       0.027325946483
 60       0.137840295773
 61       0.093335903180
 Sym=     1a
 Ene= -5.82490971631527E-01
 Spin= Alpha
 Occup= 2.000000
  1       0.008121190956
  2      -0.010573274298
  3       0.020209704994
  4      -0.226111848083
  5       0.069956748893
  6      -0.043418154620
  7       0.014594517868
  8      -0.093412551991
  9       0.022384011246
 10       0.014398766522
 11       0.012057106719
 12       0.005801824960
 13      -0.017066888533
 14       0.135527790519
 15       0.257984280791
 16      -0.129620191049
 17       0.016087753238
 18       0.049796997321
 19       0.096591780244
 20      -0.050828815892
 21       0.008236471719
 22      -0.020534604022
 23      -0.144716215445
 24      -0.276476424052
 25       0.092002575180
 26       0.001428469631
 27      -0.044686235109
 28      -0.098950804183
 29       0.026864811596
 30       0.010063610684
 31      -0.020068966934
 32       0.216452736392
 33       0.058159476491
 34       0.013214591687
 35      -0.027668449592
 36       0.086410020100
 37       0.023020619201
 38      -0.000820286832
 39      -0.020521278777
 40       0.041176037576
 41       0.031465081828
 42       0.136510456607
 43      -0.170207580295
 44       0.076214552493
 45       0.020412960632
 46       0.053892920428
 47      -0.068975306371
 48      -0.060088441961
 49      -0.044522380833
 50      -0.112736521770
 51      -0.085685937619
 52       0.091167891251
 53       0.064091464863
 54       0.107915643898
 55       0.081775974816
 56       0.071002734623
 57       0.054803807523
 58      -0.069898000113
 59      -0.048968960506
 60      -0.007565897276
 61      -0.008151433625
 Sym=     1a
 Ene= -5.59842709576321E-01
 Spin= Alpha
 Occup= 2.000000
  1       0.009912540778
  2      -0.024611340518
  3       0.046437288017
  4       0.181449522309
  5       0.287263060806
  6       0.006014012826
  7       0.037442814305
  8       0.089706577732
  9       0.163433435161
 10      -0.018373580120
 11      -0.036370550318
 12       0.017001575510
 13      -0.037756383144
 14      -0.067139252286
 15       0.134369054654
 16       0.029249982692
 17      -0.019325316937
 18      -0.064630775277
 19       0.057679508132
 20       0.023017245145
 21      -0.008972938171
 22       0.019997016315
 23       0.112202917848
 24      -0.118584614275
 25       0.122501734618
 26       0.010660175489
 27       0.084088118060
 28      -0.076470385457
 29       0.071497383073
 30       0.027208523161
 31      -0.058857480342
 32      -0.060965049749
 33       0.004114405994
 34       0.028715223796
 35      -0.043742692613
 36      -0.015716550787
 37       0.036348688017
 38       0.009099783383
 39      -0.022755716770
 40       0.049027914307
 41      -0.084533628881
 42       0.013362689502
 43       0.049658096513
 44       0.046434618082
 45      -0.066147737083
 46      -0.013945168287
 47       0.021376947262
 48      -0.189542532457
 49      -0.139359795990
 50       0.189659119972
 51       0.149848243140
 52       0.097410976049
 53       0.079121215974
 54      -0.066743726244
 55      -0.036225710069
 56       0.144037655481
 57       0.091838598666
 58      -0.017757925413
 59       0.001527315990
 60       0.057483292772
 61       0.027852183471
 Sym=     1a
 Ene= -5.52100825395792E-01
 Spin= Alpha
 Occup= 2.000000
  1       0.002345666049
  2      -0.007759029059
  3       0.338556457813
  4      -0.073323915818
  5      -0.062605286187
  6       0.018366846784
  7       0.180625005082
  8      -0.043177127474
  9      -0.014548173012
 10       0.239668280163
 11       0.201403319657
 12       0.014442275537
 13      -0.032095215602
 14      -0.118822023871
 15      -0.027966869286
 16      -0.039659420652
 17      -0.023463098573
 18      -0.070078137850
 19      -0.012243451316
 20      -0.030675765333
 21      -0.000384278538
 22      -0.002084675423
 23       0.113198572387
 24      -0.041369889201
 25      -0.036078259176
 26      -0.007358047279
 27       0.057012542232
 28      -0.036917590812
 29      -0.023847950962
 30       0.024745625630
 31      -0.055543650818
 32      -0.033727022978
 33      -0.154370123386
 34      -0.011215541739
 35      -0.055385889883
 36      -0.000052610741
 37      -0.062736289177
 38      -0.021103488898
 39       0.006446613305
 40      -0.014300654305
 41      -0.031711917620
 42      -0.162463192617
 43      -0.075856035306
 44      -0.023601724068
 45      -0.022268669818
 46      -0.099880268873
 47      -0.042513030983
 48      -0.084210766612
 49      -0.056660697304
 50      -0.091442502464
 51      -0.083698108673
 52       0.014719307896
 53       0.004211473465
 54      -0.091113038986
 55      -0.065944544863
 56       0.061504156822
 57       0.042564992837
 58       0.056779298332
 59       0.052418886749
 60       0.087393792605
 61       0.055973052359
 Sym=     1a
 Ene= -5.07961307006564E-01
 Spin= Alpha
 Occup= 2.000000
  1      -0.014278394109
  2       0.031393743103