
                                 *****************
                                 * O   R   C   A *
                                 *****************

                                            #,                                       
                                            ###                                      
                                            ####                                     
                                            #####                                    
                                            ######                                   
                                           ########,                                 
                                     ,,################,,,,,                         
                               ,,#################################,,                 
                          ,,##########################################,,             
                       ,#########################################, ''#####,          
                    ,#############################################,,   '####,        
                  ,##################################################,,,,####,       
                ,###########''''           ''''###############################       
              ,#####''   ,,,,##########,,,,          '''####'''          '####       
            ,##' ,,,,###########################,,,                        '##       
           ' ,,###''''                  '''############,,,                           
         ,,##''                                '''############,,,,        ,,,,,,###''
      ,#''                                            '''#######################'''  
     '                                                          ''''####''''         
             ,#######,   #######,   ,#######,      ##                                
            ,#'     '#,  ##    ##  ,#'     '#,    #''#        ,####,    ,#,          
            ##       ##  ##   ,#'  ##            #'  '#       #'       ,# #          
            ##       ##  #######   ##           ,######,      #####,      #          
            '#,     ,#'  ##    ##  '#,     ,#' ,#      #,     #,   #      #          
             '#######'   ##     ##  '#######'  #'      '#     '####' #    #          



                #########################################################
                #                        -***-                          #
                #          Department of theory and spectroscopy        #
                #                                                       #
                #                      Frank Neese                      #
                #                                                       #
                #     Directorship, Architecture, Infrastructure        #
                #                    SHARK, DRIVERS                     #
                #        Core code/Algorithms in most modules           #
                #                                                       #
                #        Max Planck Institute fuer Kohlenforschung      #
                #                Kaiser Wilhelm Platz 1                 #
                #                 D-45470 Muelheim/Ruhr                 #
                #                      Germany                          #
                #                                                       #
                #                  All rights reserved                  #
                #                        -***-                          #
                #########################################################


                         Program Version 6.1.0  -  RELEASE   -
                                (GIT: $679e74b$)
                          ($2025-06-10 18:02:51 +0200$)


 With contributions from (in alphabetic order):
[Max-Planck-Institut fuer Kohlenforschung]                               
  Daniel Aravena         : Magnetic Suceptibility                        
  Michael Atanasov       : Ab Initio Ligand Field Theory (pilot matlab implementation)
  Alexander A. Auer      : GIAO ZORA, VPT2 properties, NMR spectrum      
  Ute Becker             : All parallelization in ORCA, NUMFREQ, NUMCALC 
  Giovanni Bistoni       : ED, misc. LED, open-shell LED, HFLD           
  Dmytro Bykov           : pre 5.0 version of the SCF Hessian            
  Marcos Casanova-Páez   : Triplet and SCS-CIS(D). UHF-(DLPNO)-IP/EA/STEOM-CCSD. UHF-CVS-IP/STEOM-CCSD   
  Vijay G. Chilkuri      : MRCI spin determinant printing, contributions to CSF-ICE 
  Pauline Colinet        : FMM embedding                                 
  Dipayan Datta          : RHF DLPNO-CCSD density                        
  Achintya Kumar Dutta   : EOM-CC, STEOM-CC                              
  Nicolas Foglia         : Exact transition moments, OPA infrastructure, MCD improvements    
  Dmitry Ganyushin       : Spin-Orbit,Spin-Spin,Magnetic field MRCI      
  Miquel Garcia-Rates    : C-PCM and meta-GGA Hessian, CCSD/C-PCM, Gaussian charge scheme 
  Tiago L. C. Gouveia    : GS-ROHF, GS-ROCIS                             
  Yang Guo               : DLPNO-NEVPT2, F12-NEVPT2, CIM, IAO-localization        
  Andreas Hansen         : Spin unrestricted coupled pair/coupled cluster methods 
  Ingolf Harden          : AUTO-CI MPn and infrastructure                
  Benjamin Helmich-Paris : MC-RPA, TRAH-(SCF,CASSCF), AVAS, COSX integrals, SCF dyn. polar., MC-PDFT, srDFT 
  Lee Huntington         : MR-EOM, pCC                                   
  Robert Izsak           : Overlap fitted RIJCOSX, COSX-SCS-MP3, EOM     
  Riya Kayal             : Wick's Theorem for AUTO-CI, AUTO-CI UHF-CCSDT 
  Emily Kempfer          : AUTO-CI RHF CISDT and CCSDT, approximate NEVPT4
  Christian Kollmar      : KDIIS, OOCD, Brueckner-CCSD(T), CCSD density, CASPT2, CASPT2-K, improved NEVPT2 
  Axel Koslowski         : Symmetry handling                             
  Simone Kossmann        : meta-GGA functionals, TD-DFT gradient, OOMP2, (MP2 Hessian; deprecated post 5.0) 
  Lucas Lang             : DCDCAS, Hyperfine gauge corrections, ICE-SOC+SSC
  Marvin Lechner         : AUTO-CI (C++ implementation), FIC-MRCC        
  Spencer Leger          : CASSCF response                               
  Dagmar Lenk            : GEPOL surface, SMD, ORCA-2-JSON               
  Dimitrios Liakos       : Extrapolation schemes; Compound Job, Property file
  Dimitrios Manganas     : Further ROCIS development; embedding schemes. LFT, Crystal Embedding 
  Dimitrios Pantazis     : SARC Basis sets                               
  Anastasios Papadopoulos: AUTO-CI, single reference methods and gradients 
  Taras Petrenko         : pre 6.0 DFT Hessian and TD-DFT gradient,  ECA, NRVS 
  Petra Pikulova         : Analytic Raman intensities                    
  Peter Pinski           : DLPNO-MP2, DLPNO-MP2 Gradient                 
  Shashank Vittal Rao    : ES-AILFT, MagRelax                            
  Christoph Reimann      : Effective Core Potentials                     
  Marius Retegan         : Local ZFS, SOC                                
  Christoph Riplinger    : Optimizer, TS searches, QM/MM, DLPNO-CCSD(T), (RO)-DLPNO pert. Triples 
  Michael Roemelt        : Original ROCIS implementation, recursive CI coupling coefficients
  Masaaki Saitow         : Open-shell DLPNO-CCSD energy and density      
  Barbara Sandhoefer     : DKH picture change effects                    
  Yorick L. A. Schmerwitz: GMF and freeze-and-release deltaSCF, NEB S-IDPP initial path                    
  Kantharuban Sivalingam : CASSCF convergence/infrastructure, NEVPT2, NEVPT3, NEVPT4(SD), FIC-MRCI and CEPA variants
  Bernardo de Souza      : ESD, SOC TD-DFT                               
  Georgi L. Stoychev     : AutoAux, RI-MP2 NMR, DLPNO-MP2 response, X2C  
  Van Anh Tran           : RI-MP2 g-tensors                              
  Willem Van den Heuvel  : Paramagnetic NMR                              
  Zikuan Wang            : NOTCH, Electric field optimization            
  Frank Wennmohs         : Technical directorship and infrastructure     
  Hang Xu                : AUTO-CI-Response properties                   
                                                                         
[FACCTs GmbH]                                                            
  Markus Bursch, Nicolas Foglia, Miquel Garcia-Rates, Ingolf Harden, Hagen Neugebauer, Anastasios Papadopoulos, 
  Christoph Riplinger, Bernardo de Souza, Georgi L. Stoychev                                                    
                                                                 
  APM, various basis sets, CI-OPT, improved COSX, DLPNO-Multilevel,           
  DOCKER, DRACO, updates on ESD, Fragmentator, GOAT, IRC, LR-CPCM, L-BFGS, MBIS, meta-GGA TD-DFT gradient, ML-optimized integration grids, 
  MM, NACMEs, nearIR, NEB, NEB-TS, NL-DFT gradient (VV10), 2- and 3-layer-ONIOM, interface openCOSMO-RS, QMMM,   
  Crystal-QMMM, RESP, rigid body optimization, SF, symmetry and pop. for TD-DFT, various functionals, SOLVATOR                                   
                                                                         
[Other institutions]                                                     
  V. Asgeirsson          : NEB                                           
  Christoph Bannwarth    : sTDA-DFT, sTD-DFT, PBEh-3c, B97-3c, D3        
  Giovanni Bistoni       : ETS/NOCV, ADLD/ADEX, COVALED                  
  Martin Brehm           : Molecular dynamics                            
  Ronald Cardenas        : ETS/NOCV                                      
  Martina Colucci        : COVALED                                       
  Sebastian Ehlert       : rSCAN, r2SCAN, r2SCAN-3c, D4, dhf basis sets  
  Marvin Friede          : D4 for Fr, Ra, Ac-Lr                          
  Lars Goerigk           : TD-DFT with DH, B97 family of functionals     
  Stefan Grimme          : VdW corrections, initial TS optimization, DFT functionals, gCP, sTDA/sTD-DF 
  Waldemar Hujo          : DFT-NL                                        
  H. Jonsson             : NEB                                           
  Holger Kruse           : gCP                                           
  Marcel Mueller         : wB97X-3c, vDZP basis set                      
  Hagen Neugebauer       : wr2SCAN, Native XTB                           
  Gianluca Regni         : ADLD/ADEX                                     
  Tobias Risthaus        : pre 6.0 range-separated hybrid DFT and stability analysis
  Lukas Wittmann         : regularized MP2, r2SCAN double-hybrids, wr2SCAN        
                                                                         
We gratefully acknowledge several colleagues who have allowed us to      
interface, adapt or use parts of their codes:                            
  Ed Valeev, F. Pavosevic, A. Kumar             : LibInt (2-el integral package), F12 methods 
  Garnet Chan, S. Sharma, J. Yang, R. Olivares  : DMRG                   
  Ulf Ekstrom                                   : XCFun DFT Library      
  Mihaly Kallay                                 : mrcc  (arbitrary order and MRCC methods)
  Frank Weinhold                                : gennbo (NPA and NBO analysis)           
  Simon Mueller                                 : openCOSMO-RS                            
  Christopher J. Cramer and Donald G. Truhlar   : smd solvation model                     
  S Lehtola, MJT Oliveira, MAL Marques          : LibXC Library                           
  Liviu Ungur et al                             : ANISO software                          


 Your calculation uses the libint2 library for the computation of 2-el integrals
 For citations please refer to: http://libint.valeyev.net

 Your ORCA version has been built with support for libXC version: 7.0.0
 For citations please refer to: https://libxc.gitlab.io

 This ORCA versions uses:
   CBLAS   interface :  Fast vector & matrix operations
   LAPACKE interface :  Fast linear algebra routines
   SCALAPACK package :  Parallel linear algebra routines
   Shared memory     :  Shared parallel matrices
   BLAS/LAPACK       :  OpenBLAS 0.3.29  USE64BITINT DYNAMIC_ARCH NO_AFFINITY Zen SINGLE_THREADED
        Core in use  :  Zen
   Copyright (c) 2011-2014, The OpenBLAS Project


  ***********************************
  * Starting time: Sun Apr  5 13:03:51 2026
  * Host name:     QC1
  * Process ID:    16153
  * Working dir.:  /home/user/QC/h-shift/split_2
  ***********************************

NOTE: MaxCore=1200 MB was set to SCF,MP2,MDCI,CIPSI,MRCI,RASCI and CIS
      => If you want to overwrite this, your respective input block should be placed after the MaxCore statement
================================================================================

----- Orbital basis set information -----
Your calculation utilizes the basis: 6-31G
   H-He, Li-Ne : W. J. Hehre, R. Ditchfield and J.A. Pople, J. Chem. Phys. 56, 2257 (1972).
                 Note: He and Ne are unpublished basis sets taken from the Gaussian program.
                 Note: Li and B from J. D. Dill and J. A. Pople, J. Chem. Phys. 62, 2921 (1975).
   Na - Ar     : M. M. Francl, W. J. Pietro, W. J. Hehre, J. S. Binkley, M. S. Gordon, 
                 D. J. DeFrees and J. A. Pople, J. Chem. Phys. 77, 3654 (1982).
   K - Zn      : V. A. Rassolov, J. A. Pople, M. A. Ratner, and T. L. Windus, J. Chem. Phys. 109, 1223 (1998).

================================================================================
                                        WARNINGS
                       Please study these warnings very carefully!
================================================================================


================================================================================
                                       INPUT FILE
================================================================================
NAME = h-shift_094.inp
|  1> ! HF 6-31G
|  2> %maxcore 1200
|  3> %pal nprocs 8 end
|  4> * xyz 0 1
|  5> C   -0.47939700   0.00146800   0.02883700
|  6> H    2.20284200   0.01931500   0.02606000
|  7> C    2.50911300   0.00996100   1.06448900
|  8> C    1.85342600  -1.11093500   1.81976600
|  9> C    0.63504300  -1.60670100   1.60931200
| 10> C   -0.33365400  -1.19960600   0.57961400
| 11> H   -1.20412600   0.17185000  -0.74358700
| 12> H    0.09830800   0.85260100   0.32763900
| 13> H    2.24276700   0.97478400   1.48866000
| 14> H    3.58785200  -0.07106600   1.10220300
| 15> H    2.44354300  -1.55659600   2.60170800
| 16> H    0.31843100  -2.43046600   2.22586600
| 17> H   -0.99220100  -1.98648300   0.25230400
| 18> *
| 19> 
| 20>                          ****END OF INPUT****
================================================================================

                       ****************************
                       * Single Point Calculation *
                       ****************************

---------------------------------
CARTESIAN COORDINATES (ANGSTROEM)
---------------------------------
  C     -0.479397    0.001468    0.028837
  H      2.202842    0.019315    0.026060
  C      2.509113    0.009961    1.064489
  C      1.853426   -1.110935    1.819766
  C      0.635043   -1.606701    1.609312
  C     -0.333654   -1.199606    0.579614
  H     -1.204126    0.171850   -0.743587
  H      0.098308    0.852601    0.327639
  H      2.242767    0.974784    1.488660
  H      3.587852   -0.071066    1.102203
  H      2.443543   -1.556596    2.601708
  H      0.318431   -2.430466    2.225866
  H     -0.992201   -1.986483    0.252304

----------------------------
CARTESIAN COORDINATES (A.U.)
----------------------------
  NO LB      ZA    FRAG     MASS         X           Y           Z
   0 C     6.0000    0    12.011   -0.905929    0.002774    0.054494
   1 H     1.0000    0     1.008    4.162768    0.036500    0.049246
   2 C     6.0000    0    12.011    4.741536    0.018824    2.011593
   3 C     6.0000    0    12.011    3.502468   -2.099363    3.438859
   4 C     6.0000    0    12.011    1.200057   -3.036225    3.041159
   5 C     6.0000    0    12.011   -0.630515   -2.266927    1.095312
   6 H     1.0000    0     1.008   -2.275468    0.324749   -1.405176
   7 H     1.0000    0     1.008    0.185775    1.611182    0.619148
   8 H     1.0000    0     1.008    4.238215    1.842075    2.813160
   9 H     1.0000    0     1.008    6.780058   -0.134295    2.082862
  10 H     1.0000    0     1.008    4.617627   -2.941540    4.916516
  11 H     1.0000    0     1.008    0.601747   -4.592915    4.206277
  12 H     1.0000    0     1.008   -1.874988   -3.753909    0.476785

--------------------------------
INTERNAL COORDINATES (ANGSTROEM)
--------------------------------
 C      0   0   0     0.000000000000     0.00000000     0.00000000
 H      1   0   0     2.682299811777     0.00000000     0.00000000
 C      2   1   0     1.082693036275   106.36897807     0.00000000
 C      3   2   1     1.502257178886   111.41901197    52.40985832
 C      4   3   2     1.332115590916   126.68833595   326.87944800
 C      1   2   3     1.329351375391    84.07700924   295.25167999
 H      1   2   3     1.072800533716   132.35569987   167.86075545
 H      1   2   3     1.071192366439    57.02343563    71.16608688
 H      3   2   1     1.087080792897   107.29335767   290.66408118
 H      3   2   1     1.082435009895   108.41980926   175.09718490
 H      4   3   2     1.076236540903   115.78093812   146.21356046
 H      5   4   3     1.076555046751   117.59919849   178.61966137
 H      6   1   2     1.077028969173   117.84954972   220.95510768

---------------------------
INTERNAL COORDINATES (A.U.)
---------------------------
 C      0   0   0     0.000000000000     0.00000000     0.00000000
 H      1   0   0     5.068812053327     0.00000000     0.00000000
 C      2   1   0     2.045993325663   106.36897807     0.00000000
 C      3   2   1     2.838854650811   111.41901197    52.40985832
 C      4   3   2     2.517333645558   126.68833595   326.87944800
 C      1   2   3     2.512110035241    84.07700924   295.25167999
 H      1   2   3     2.027299205047   132.35569987   167.86075545
 H      1   2   3     2.024260209317    57.02343563    71.16608688
 H      3   2   1     2.054284984022   107.29335767   290.66408118
 H      3   2   1     2.045505726470   108.41980926   175.09718490
 H      4   3   2     2.033792317625   115.78093812   146.21356046
 H      5   4   3     2.034394206450   117.59919849   178.61966137
 H      6   1   2     2.035289790037   117.84954972   220.95510768

---------------------
BASIS SET INFORMATION
---------------------
There are 2 groups of distinct atoms

 Group   1 Type C   : 10s4p contracted to 3s2p pattern {631/31}
 Group   2 Type H   : 4s contracted to 2s pattern {31}

Atom   0C    basis set group =>   1
Atom   1H    basis set group =>   2
Atom   2C    basis set group =>   1
Atom   3C    basis set group =>   1
Atom   4C    basis set group =>   1
Atom   5C    basis set group =>   1
Atom   6H    basis set group =>   2
Atom   7H    basis set group =>   2
Atom   8H    basis set group =>   2
Atom   9H    basis set group =>   2
Atom  10H    basis set group =>   2
Atom  11H    basis set group =>   2
Atom  12H    basis set group =>   2


           ************************************************************
           *        Program running with 8 parallel MPI-processes     *
           *              working on a common directory               *
           ************************************************************
------------------------------------------------------------------------------
                             ORCA STARTUP CALCULATIONS
------------------------------------------------------------------------------
------------------------------------------------------------------------------
                   ___                                                        
                  /   \      - P O W E R E D   B Y -                         
                 /     \                                                     
                 |  |  |   _    _      __       _____    __    __             
                 |  |  |  | |  | |    /  \     |  _  \  |  |  /  |          
                  \  \/   | |  | |   /    \    | | | |  |  | /  /          
                 / \  \   | |__| |  /  /\  \   | |_| |  |  |/  /          
                |  |  |   |  __  | /  /__\  \  |    /   |      \           
                |  |  |   | |  | | |   __   |  |    \   |  |\   \          
                \     /   | |  | | |  |  |  |  | |\  \  |  | \   \       
                 \___/    |_|  |_| |__|  |__|  |_| \__\ |__|  \__/        
                                                                              
                      - O R C A' S   B I G   F R I E N D -                    
                                      &                                       
                       - I N T E G R A L  F E E D E R -                       
                                                                              
 v1 FN, 2020, v2 2021, v3 2022-2024                                           
------------------------------------------------------------------------------


----------------------
SHARK INTEGRAL PACKAGE
----------------------

Number of atoms                             ...     13
Number of basis functions                   ...     61
Number of shells                            ...     41
Maximum angular momentum                    ...      1
Integral batch strategy                     ... SHARK/LIBINT Hybrid
RI-J (if used) integral strategy            ... SPLIT-RIJ (Revised 2003 algorithm where possible)
Printlevel                                  ...      1
Contraction scheme used                     ... SEGMENTED contraction
Prescreening option                         ... SCHWARTZ
   Thresh                                   ... 1.000e-10
   Tcut                                     ... 1.000e-11
   Tpresel                                  ... 1.000e-11 
Coulomb Range Separation                    ... NOT USED
Exchange Range Separation                   ... NOT USED
Multipole approximations                    ... NOT USED
Finite Nucleus Model                        ... NOT USED
CABS basis                                  ... NOT available
Auxiliary Coulomb fitting basis             ... NOT available
Auxiliary J/K fitting basis                 ... NOT available
Auxiliary Correlation fitting basis         ... NOT available
Auxiliary 'external' fitting basis          ... NOT available

Checking pre-screening integrals            ... done (  0.0 sec) Dimension = 41
   => SHARK Basis and OBASIS are compatible. Storing Pre-screening
Shell pair information
Shell pair cut-off parameter TPreSel        ...   1.0e-11
Total number of shell pairs                 ...       861
Shell pairs after pre-screening             ...       846
Total number of primitive shell pairs       ...      5382
Primitive shell pairs kept                  ...      3722
          la=0 lb=0:    481 shell pairs
          la=1 lb=0:    310 shell pairs
          la=1 lb=1:     55 shell pairs

Checking whether 4 symmetric matrices of dimension 61 fit in memory
:Max Core in MB      =   1200.00
 MB in use           =      2.04
 MB left             =   1197.96
 MB needed           =      0.06
 Data fit in memory  = YES
Calculating Nuclear repulsion               ... done (  0.0 sec) ENN=    159.996529247243 Eh

Diagonalization of the overlap matrix:
Smallest eigenvalue                        ... 3.389e-03
Time for diagonalization                   ...    0.001 sec
Threshold for overlap eigenvalues          ... 1.000e-07
Number of eigenvalues below threshold      ... 0
Time for construction of square roots      ...    0.000 sec
Total time needed                          ...    0.001 sec

-------------------
DFT GRID GENERATION
-------------------

General Integration Accuracy     IntAcc      ... 4.388
Radial Grid Type                 RadialGrid  ... OptM3 with GC (2021)
Angular Grid (max. ang.)         AngularGrid ... 4 (Lebedev-302)
Angular grid pruning method      GridPruning ... 4 (adaptive)
Weight generation scheme         WeightScheme... mBecke (2022)
Basis function cutoff            BFCut       ... 1.0000e-10
Integration weight cutoff        WCut        ... 1.0000e-14
Partially contracted basis set               ... off
Rotationally invariant grid construction     ... off
Angular grids for H and He will be reduced by one unit

Total number of grid points                  ...    56077
Total number of batches                      ...      883
Average number of points per batch           ...       63
Average number of grid points per atom       ...     4314
Grids setup in   0.2 sec
Initializing property integral containers    ... done (  0.0 sec)

SHARK setup successfully completed in   0.3 seconds

Maximum memory used throughout the entire STARTUP-calculation: 11.9 MB


           ************************************************************
           *        Program running with 8 parallel MPI-processes     *
           *              working on a common directory               *
           ************************************************************
-------------------------------------------------------------------------------
                                 ORCA GUESS
                   Start orbitals & Density for SCF / CASSCF
-------------------------------------------------------------------------------

------------
SCF SETTINGS
------------
Hamiltonian:
 Ab initio Hamiltonian  Method          .... Hartree-Fock(GTOs)


General Settings:
 Integral files         IntName         .... h-shift_094
 Hartree-Fock type      HFTyp           .... RHF
 Total Charge           Charge          ....    0
 Multiplicity           Mult            ....    1
 Number of Electrons    NEL             ....   38
 Basis Dimension        Dim             ....   61
 Nuclear Repulsion      ENuc            ....    159.9965292472 Eh

Convergence Acceleration:
 AO-DIIS                CNVDIIS         .... on
   Start iteration      DIISMaxIt       ....    12
   Startup error        DIISStart       ....  0.200000
   # of expansion vecs  DIISMaxEq       ....     5
   Bias factor          DIISBfac        ....   1.050
   Max. coefficient     DIISMaxC        ....  10.000
 MO-DIIS                CNVKDIIS        .... off
 Trust-Rad. Augm. Hess. CNVTRAH         .... auto
   Auto Start mean grad. ratio tolernc. ....  1.125000
   Auto Start start iteration           ....    50
   Auto Start num. interpolation iter.  ....    10
   Max. Number of Micro iterations      ....    24
   Max. Number of Macro iterations      .... Maxiter - #DIIS iter
   Number of Davidson start vectors     ....     2
   Converg. threshold    (grad. norm)   ....   5.000e-05
   Grad. Scal. Fac. for Micro threshold ....   0.100
   Minimum threshold for Micro iter.    ....   1.000e-02
   NR start threshold (gradient norm)   ....   1.000e-04
   Initial trust radius                 ....   0.400
   Minimum AH scaling param. (alpha)    ....   1.000
   Maximum AH scaling param. (alpha)    .... 1000.000
   Quad. conv. algorithm                .... NR
   White noise on init. David. guess    .... on
   Maximum white noise                  ....   0.010
   Pseudo random numbers                .... off
   Inactive MOs                         .... canonical
   Orbital update algorithm             .... Taylor
   Preconditioner                       .... Diag
   Full preconditioner red. dimension   ....   250
 SOSCF                 CNVSOSCF           .... on
   Start iteration     SOSCFMaxIt         ....   150
   Startup grad/error  SOSCFStart         ....  0.003300
   Hessian update      SOSCFHessUp        .... L-BFGS
   Autom. constraints  SOSCFAutoConstrain .... off
 Level Shifting         CNVShift        .... on
   Level shift para.    LevelShift      ....    0.2500
   Turn off err/grad.   ShiftErr        ....    0.0010
 Zerner damping         CNVZerner       .... off
 Static damping         CNVDamp         .... on
   Fraction old density DampFac         ....    0.7000
   Max. Damping (<1)    DampMax         ....    0.9800
   Min. Damping (>=0)   DampMin         ....    0.0000
   Turn off err/grad.   DampErr         ....    0.1000

SCF Procedure:
 Maximum # iterations   MaxIter         ....   125
 SCF integral mode      SCFMode         .... Direct
   Integral package                     .... SHARK and LIBINT hybrid scheme
 Reset frequency        DirectResetFreq ....    20
 Integral Threshold     Thresh          ....  1.000e-10 Eh
 Primitive CutOff       TCut            ....  1.000e-11 Eh

Convergence Tolerance:
 Convergence Check Mode ConvCheckMode   .... Total+1el-Energy
 Convergence forced     ConvForced      .... 0
 Energy Change          TolE            ....  1.000e-06 Eh
 1-El. energy change                    ....  1.000e-03 Eh
 Orbital Gradient       TolG            ....  5.000e-05
 Orbital Rotation angle TolX            ....  5.000e-05
 DIIS Error             TolErr          ....  1.000e-06

------------------------------
INITIAL GUESS: MODEL POTENTIAL
------------------------------
Loading Hartree-Fock densities                     ... done
Calculating cut-offs                               ... done
Initializing the effective Hamiltonian             ... done
Setting up the integral package (SHARK)            ... done
Starting the Coulomb interaction                   ... done (   0.0 sec)
Making the grid                                    ... done (   0.1 sec)
Mapping shells                                     ... done
Starting the XC term evaluation                    ... done (   0.0 sec)
Transforming the Hamiltonian                       ... done (   0.0 sec)
Diagonalizing the Hamiltonian                      ... done (   0.0 sec)
Back transforming the eigenvectors                 ... done (   0.0 sec)
Now organizing SCF variables                       ... done
                      ------------------
                      INITIAL GUESS DONE (   0.1 sec)
                      ------------------
             **** ENERGY FILE WAS UPDATED (h-shift_094.en.tmp) ****
Finished Guess after   0.3 sec
Maximum memory used throughout the entire GUESS-calculation: 4.2 MB


           ************************************************************
           *        Program running with 8 parallel MPI-processes     *
           *              working on a common directory               *
           ************************************************************

-------------------------------------------------------------------------------------------
                                      ORCA LEAN-SCF
                              memory conserving SCF solver
-------------------------------------------------------------------------------------------

----------------------------------------D-I-I-S--------------------------------------------
Iteration    Energy (Eh)           Delta-E    RMSDP     MaxDP     DIISErr   Damp  Time(sec)
-------------------------------------------------------------------------------------------
               ***  Starting incremental Fock matrix formation  ***
    1    -193.6477879876116788     0.00e+00  1.57e-02  5.14e-02  1.81e-01  0.700   0.0
    2    -193.7288929573005873    -8.11e-02  1.25e-02  3.90e-02  1.19e-01  0.700   0.1
                               ***Turning on AO-DIIS***
    3    -193.7790657076324976    -5.02e-02  7.70e-03  2.01e-02  7.11e-02  0.700   0.0
    4    -193.8107753765534937    -3.17e-02  1.83e-02  4.38e-02  4.82e-02  0.000   0.0
                              *** Initializing SOSCF ***
---------------------------------------S-O-S-C-F--------------------------------------
Iteration    Energy (Eh)           Delta-E    RMSDP     MaxDP     MaxGrad    Time(sec)
--------------------------------------------------------------------------------------
    5    -193.8793663397224520    -6.86e-02  1.68e-03  2.61e-03  2.16e-03     0.1
               *** Restarting incremental Fock matrix formation ***
    6    -193.8794857788704746    -1.19e-04  8.55e-04  1.38e-03  1.33e-03     0.0
    7    -193.8795202506343287    -3.45e-05  5.26e-04  1.06e-03  5.31e-04     0.0
    8    -193.8795267021698407    -6.45e-06  6.89e-05  1.90e-04  1.32e-04     0.0
    9    -193.8795269116678526    -2.09e-07  3.13e-05  9.20e-05  3.60e-05     0.0
                 **** Energy Check signals convergence ****

               *****************************************************
               *                     SUCCESS                       *
               *           SCF CONVERGED AFTER   9 CYCLES          *
               *****************************************************

             **** ENERGY FILE WAS UPDATED (h-shift_094.en.tmp) ****

----------------
TOTAL SCF ENERGY
----------------

Total Energy       :       -193.87952696691534 Eh           -5275.73014 eV

Components:
Nuclear Repulsion  :        159.99652924724305 Eh            4353.72690 eV
Electronic Energy  :       -353.87605621415838 Eh           -9629.45704 eV
One Electron Energy:       -576.95729460815903 Eh          -15699.80615 eV
Two Electron Energy:        223.08123839400065 Eh            6070.34911 eV

Virial components:
Potential Energy   :       -388.03086611988408 Eh          -10558.85667 eV
Kinetic Energy     :        194.15133915296875 Eh            5283.12653 eV
Virial Ratio       :          1.99859999839692

---------------
SCF CONVERGENCE
---------------

  Last Energy change         ...    2.0950e-07  Tolerance :   1.0000e-06
  Last MAX-Density change    ...    9.2014e-05  Tolerance :   1.0000e-05
  Last RMS-Density change    ...    3.1301e-05  Tolerance :   1.0000e-06
  Last DIIS Error            ...    2.1562e-03  Tolerance :   1.0000e-06
  Last Orbital Gradient      ...    3.5986e-05  Tolerance :   5.0000e-05
  Last Orbital Rotation      ...    3.6165e-05  Tolerance :   5.0000e-05


----------------
ORBITAL ENERGIES
----------------

  NO   OCC          E(Eh)            E(eV) 
   0   2.0000     -11.236099      -305.7498 
   1   2.0000     -11.235146      -305.7239 
   2   2.0000     -11.227486      -305.5154 
   3   2.0000     -11.222094      -305.3687 
   4   2.0000     -11.216334      -305.2120 
   5   2.0000      -1.098573       -29.8937 
   6   2.0000      -1.022471       -27.8229 
   7   2.0000      -0.940800       -25.6005 
   8   2.0000      -0.814992       -22.1771 
   9   2.0000      -0.715452       -19.4684 
  10   2.0000      -0.666098       -18.1254 
  11   2.0000      -0.605760       -16.4836 
  12   2.0000      -0.585177       -15.9235 
  13   2.0000      -0.566923       -15.4268 
  14   2.0000      -0.539013       -14.6673 
  15   2.0000      -0.506773       -13.7900 
  16   2.0000      -0.468960       -12.7611 
  17   2.0000      -0.413472       -11.2511 
  18   2.0000      -0.315784        -8.5929 
  19   0.0000       0.132468         3.6046 
  20   0.0000       0.234767         6.3883 
  21   0.0000       0.254463         6.9243 
  22   0.0000       0.262497         7.1429 
  23   0.0000       0.291779         7.9397 
  24   0.0000       0.318259         8.6603 
  25   0.0000       0.337669         9.1884 
  26   0.0000       0.345634         9.4052 
  27   0.0000       0.356766         9.7081 
  28   0.0000       0.367248         9.9933 
  29   0.0000       0.426280        11.5997 
*Only the first 10 virtual orbitals were printed.

                    ********************************
                    * MULLIKEN POPULATION ANALYSIS *
                    ********************************

-----------------------
MULLIKEN ATOMIC CHARGES
-----------------------
   0 C :   -0.359741
   1 H :    0.179743
   2 C :   -0.504812
   3 C :   -0.149200
   4 C :   -0.196106
   5 C :   -0.150396
   6 H :    0.162039
   7 H :    0.170525
   8 H :    0.169778
   9 H :    0.159833
  10 H :    0.171385
  11 H :    0.173137
  12 H :    0.173815
Sum of atomic charges:   -0.0000000

--------------------------------
MULLIKEN REDUCED ORBITAL CHARGES
--------------------------------
  0 C s       :     3.265337  s :     3.265337
      pz      :     1.038315  p :     3.094404
      px      :     1.061665
      py      :     0.994424

  1 H s       :     0.820257  s :     0.820257

  2 C s       :     3.365911  s :     3.365911
      pz      :     1.066410  p :     3.138901
      px      :     1.071018
      py      :     1.001473

  3 C s       :     3.209289  s :     3.209289
      pz      :     1.004992  p :     2.939912
      px      :     0.980556
      py      :     0.954363

  4 C s       :     3.192078  s :     3.192078
      pz      :     0.995221  p :     3.004027
      px      :     0.943764
      py      :     1.065042

  5 C s       :     3.193875  s :     3.193875
      pz      :     0.947608  p :     2.956521
      px      :     1.013873
      py      :     0.995040

  6 H s       :     0.837961  s :     0.837961

  7 H s       :     0.829475  s :     0.829475

  8 H s       :     0.830222  s :     0.830222

  9 H s       :     0.840167  s :     0.840167

 10 H s       :     0.828615  s :     0.828615

 11 H s       :     0.826863  s :     0.826863

 12 H s       :     0.826185  s :     0.826185



                     *******************************
                     * LOEWDIN POPULATION ANALYSIS *
                     *******************************

----------------------
LOEWDIN ATOMIC CHARGES
----------------------
   0 C :   -0.243802
   1 H :    0.122996
   2 C :   -0.318212
   3 C :   -0.109515
   4 C :   -0.148917
   5 C :   -0.114366
   6 H :    0.116446
   7 H :    0.117132
   8 H :    0.117136
   9 H :    0.111834
  10 H :    0.115707
  11 H :    0.117063
  12 H :    0.116498

-------------------------------
LOEWDIN REDUCED ORBITAL CHARGES
-------------------------------
  0 C s       :     2.988275  s :     2.988275
      pz      :     1.069441  p :     3.255527
      px      :     1.078168
      py      :     1.107918

  1 H s       :     0.877004  s :     0.877004

  2 C s       :     2.975911  s :     2.975911
      pz      :     1.127714  p :     3.342301
      px      :     1.119505
      py      :     1.095082

  3 C s       :     2.950916  s :     2.950916
      pz      :     1.040618  p :     3.158599
      px      :     1.087409
      py      :     1.030572

  4 C s       :     2.940140  s :     2.940140
      pz      :     1.052417  p :     3.208777
      px      :     1.085685
      py      :     1.070674

  5 C s       :     2.945135  s :     2.945135
      pz      :     1.021784  p :     3.169231
      px      :     1.036024
      py      :     1.111422

  6 H s       :     0.883554  s :     0.883554

  7 H s       :     0.882868  s :     0.882868

  8 H s       :     0.882864  s :     0.882864

  9 H s       :     0.888166  s :     0.888166

 10 H s       :     0.884293  s :     0.884293

 11 H s       :     0.882937  s :     0.882937

 12 H s       :     0.883502  s :     0.883502



                      *****************************
                      * MAYER POPULATION ANALYSIS *
                      *****************************

  NA   - Mulliken gross atomic population
  ZA   - Total nuclear charge
  QA   - Mulliken gross atomic charge
  VA   - Mayer's total valence
  BVA  - Mayer's bonded valence
  FA   - Mayer's free valence

  ATOM       NA         ZA         QA         VA         BVA        FA
  0 C      6.3597     6.0000    -0.3597     3.8480     3.8480    -0.0000
  1 H      0.8203     1.0000     0.1797     0.9314     0.9314    -0.0000
  2 C      6.5048     6.0000    -0.5048     3.7723     3.7723    -0.0000
  3 C      6.1492     6.0000    -0.1492     3.7715     3.7715    -0.0000
  4 C      6.1961     6.0000    -0.1961     3.8287     3.8287    -0.0000
  5 C      6.1504     6.0000    -0.1504     3.8083     3.8083     0.0000
  6 H      0.8380     1.0000     0.1620     0.9440     0.9440    -0.0000
  7 H      0.8295     1.0000     0.1705     0.9397     0.9397    -0.0000
  8 H      0.8302     1.0000     0.1698     0.9230     0.9230    -0.0000
  9 H      0.8402     1.0000     0.1598     0.9314     0.9314     0.0000
 10 H      0.8286     1.0000     0.1714     0.9389     0.9389    -0.0000
 11 H      0.8269     1.0000     0.1731     0.9389     0.9389     0.0000
 12 H      0.8262     1.0000     0.1738     0.9372     0.9372     0.0000

  Mayer bond orders larger than 0.100000
B(  0-C ,  5-C ) :   1.8856 B(  0-C ,  6-H ) :   0.9627 B(  0-C ,  7-H ) :   0.9621 
B(  1-H ,  2-C ) :   0.9475 B(  2-C ,  3-C ) :   0.9557 B(  2-C ,  8-H ) :   0.9452 
B(  2-C ,  9-H ) :   0.9590 B(  3-C ,  4-C ) :   1.8897 B(  3-C , 10-H ) :   0.9587 
B(  4-C ,  5-C ) :   1.0412 B(  4-C , 11-H ) :   0.9569 B(  5-C , 12-H ) :   0.9574 


-------
TIMINGS
-------

Total SCF time: 0 days 0 hours 0 min 0 sec 

Total time                  ....       0.740 sec
Sum of individual times     ....       0.684 sec  ( 92.4%)

SCF preparation             ....       0.253 sec  ( 34.2%)
Fock matrix formation       ....       0.367 sec  ( 49.6%)
  Startup                   ....       0.002 sec  (  0.4% of F)
  Coulomb+Exchange Fock     ....       0.395 sec  (107.8% of F)
Diagonalization             ....       0.000 sec  (  0.0%)
Density matrix formation    ....       0.009 sec  (  1.2%)
Total Energy calculation    ....       0.005 sec  (  0.7%)
Population analysis         ....       0.005 sec  (  0.7%)
Orbital Transformation      ....       0.005 sec  (  0.7%)
Orbital Orthonormalization  ....       0.000 sec  (  0.0%)
DIIS solution               ....       0.023 sec  (  3.2%)
SOSCF solution              ....       0.016 sec  (  2.1%)
Finished LeanSCF after   0.7 sec

Maximum memory used throughout the entire LEANSCF-calculation: 6.4 MB

-------------------------   --------------------
FINAL SINGLE POINT ENERGY      -193.879526966915
-------------------------   --------------------



           ************************************************************
           *        Program running with 8 parallel MPI-processes     *
           *              working on a common directory               *
           ************************************************************

------------------------------------------------------------------------------
                              ORCA PROPERTY CALCULATIONS
------------------------------------------------------------------------------

GBWName                                 ... h-shift_094.gbw
Number of atoms                         ...     13
Number of basis functions               ...     61
Max core memory                         ...   1200 MB

Electric properties:
Dipole moment                           ... YES
Quadrupole moment                       ...  NO
Static polarizability (Dipole/Dipole)   ...  NO
Static polarizability (Dipole/Quad.)    ...  NO
Static polarizability (Quad./Quad.)     ...  NO
Static polarizability (Velocity)        ...  NO
Static hyperpolarizability              ...  NO

Atomic electric properties:
Dipole moment                           ...  NO
Quadrupole moment                       ...  NO
Static polarizability                   ...  NO

Choice of electric origin               ... Center of mass
Position of electric origin             ...     1.637511    -1.414014     1.903609

General magnetic properties:
Magnetizability                         ...  NO

EPR properties:
g-Tensor (aka g-matrix)                 ...  NO
Zero-Field splitting spin-orbit         ...  NO
Zero-field splitting spin-spin          ...  NO
Hyperfine couplings                     ...  NO (   0 nuclei)
Quadrupole couplings                    ...  NO (   0 nuclei)
Contact density                         ...  NO (   0 nuclei)

NMR properties:
Chemical shifts                         ...  NO (   0 nuclei)
Spin-rotation constants                 ...  NO (   0 nuclei)
Spin-spin couplings                     ...  NO (   0 nuclei,    0 pairs)

Choice of magnetic origin               ... GIAO
Position of magnetic origin             ...     0.000000     0.000000     0.000000

Properties with geometric perturbations:
SCF Hessian                             ...  NO
IR spectrum                             ...  NO
VCD spectrum                            ...  NO
X-ray spectroscopy properties:
SCF XES/XAS/RIXS spectra                ...  NO

SCF SOC stabilization energy            ...  NO
Diagonal Born-Oppenheimer correction    ...  NO

-------------
DIPOLE MOMENT
-------------

Method             : SCF
Type of density    : Electron Density
Multiplicity       :   1
Irrep              :   0
Energy             :  -193.8795269669153356 Eh
Basis              : AO
                                X                 Y                 Z
Electronic contribution:     -1.551504203      -1.810976105       0.729315872
Nuclear contribution   :      1.656020040       1.838872964      -0.729825457
                        -----------------------------------------
Total Dipole Moment    :      0.104515837       0.027896858      -0.000509585
                        -----------------------------------------
Magnitude (a.u.)       :      0.108176035
Magnitude (Debye)      :      0.274961629



--------------------
Rotational spectrum 
--------------------
 
Rotational constants in cm-1:             0.291679             0.133660             0.094996 
Rotational constants in MHz :          8744.304023          4007.039789          2847.919155 

Dipole components along the rotational axes: 
x,y,z [a.u.] :     0.096636     0.043880     0.020930 
x,y,z [Debye]:     0.245629     0.111535     0.053200 

 

Dipole moment calculation done in   0.0 sec 

Maximum memory used throughout the entire PROP-calculation: 2.2 MB

--------------------------------
SUGGESTED CITATIONS FOR THIS RUN
--------------------------------

Below you find a list of papers that are relevant to this ORCA run
We neither can nor want to force you to cite these papers, but we appreciate if you do
You receive ORCA, which is the product of decades of hard work by many enthusiastic individuals, for free
The only thing we kindly ask in return is that you cite our papers,
We deeply appreciate it, if you show your appreciation for ORCA by not just citing the generic ORCA reference.

Please note that relegating all ORCA citations to the supporting information does *not* help us.
SI sections are not indexed - citations you put there will not count into any citation statistics
But we need these citations in order to attract the funding resources that allow us to do what we are doing

Therefore, if you are a happy ORCA user, please consider citing a few of the papers listed below in the main body of your paper

In addition to the list printed below, the program has created the file h-shift_094.bibtex that contains the list in bibtex format
You can import this file easily into all common literature databanks and citation aid programs


List of essential papers. We consider these as the minimum necessary citations

  1. Neese, F.
     Software update: the ORCA program system, version 6.0
     WIRES Comput. Molec. Sci. 2025 15(1), e70019
     doi.org/10.1002/wcms.7019

List of papers to cite with high priority. The work reported in these papers was absolutely
necessary for this run to complete.
Our perspective: the developers of density functionals and basis sets usually get cited in chemistry papers
Good! But without the algorithms to do something with them, the functionals or basis sets would not do anything.
Hence, in our opinion, the algorithm design and method developments papers are equally worthy of getting cited

  1. Neese, F.
     The SHARK Integral Generation and Digestion System
     J. Comp. Chem. 2022 44(3), 381
     doi.org/10.1002/jcc.26942

List of suggested additional citations. These are papers that are important in the 'surrounding' of 
of this run, or papers that preceded the highly important papers. If you like your results we are grateful for a citation.

  1. Neese, F.
     The ORCA program system
     WIRES Comput. Molec. Sci. 2012 2(1), 73-78
     doi.org/10.1002/wcms.81
  2. Neese, F.
     Software update: the ORCA program system, version 4.0
     WIRES Comput. Molec. Sci. 2018 8(1), 1-6
     doi.org/10.1002/wcms.1327
  3. Neese, F.; Wennmohs, F.; Becker, U.; Riplinger, C.
     The ORCA quantum chemistry program package
     J. Chem. Phys. 2020 152(22), 224108
     doi.org/10.1063/5.0004608
  4. Neese, F.
     Software update: The ORCA program system—Version 5.0
     WIRES Comput. Molec. Sci. 2022 12(1), e1606
     doi.org/10.1002/wcms.1606

List of optional additional citations

  1. Neese, F.
     Approximate second-order SCF convergence for spin unrestricted wavefunctions
     Chem. Phys. Lett. 2000 325(1-3), 93-98
     doi.org/10.1016/s0009-2614(00)00662-x

Timings for individual modules:

Sum of individual times          ...        2.308 sec (=   0.038 min)
Startup calculation              ...        0.623 sec (=   0.010 min)  27.0 %
SCF iterations                   ...        1.285 sec (=   0.021 min)  55.7 %
Property calculations            ...        0.400 sec (=   0.007 min)  17.3 %
                             ****ORCA TERMINATED NORMALLY****
TOTAL RUN TIME: 0 days 0 hours 0 minutes 2 seconds 825 msec
