
                                 *****************
                                 * O   R   C   A *
                                 *****************

                                            #,                                       
                                            ###                                      
                                            ####                                     
                                            #####                                    
                                            ######                                   
                                           ########,                                 
                                     ,,################,,,,,                         
                               ,,#################################,,                 
                          ,,##########################################,,             
                       ,#########################################, ''#####,          
                    ,#############################################,,   '####,        
                  ,##################################################,,,,####,       
                ,###########''''           ''''###############################       
              ,#####''   ,,,,##########,,,,          '''####'''          '####       
            ,##' ,,,,###########################,,,                        '##       
           ' ,,###''''                  '''############,,,                           
         ,,##''                                '''############,,,,        ,,,,,,###''
      ,#''                                            '''#######################'''  
     '                                                          ''''####''''         
             ,#######,   #######,   ,#######,      ##                                
            ,#'     '#,  ##    ##  ,#'     '#,    #''#        ,####,    ,#,          
            ##       ##  ##   ,#'  ##            #'  '#       #'       ,# #          
            ##       ##  #######   ##           ,######,      #####,      #          
            '#,     ,#'  ##    ##  '#,     ,#' ,#      #,     #,   #      #          
             '#######'   ##     ##  '#######'  #'      '#     '####' #    #          



                #########################################################
                #                        -***-                          #
                #          Department of theory and spectroscopy        #
                #                                                       #
                #                      Frank Neese                      #
                #                                                       #
                #     Directorship, Architecture, Infrastructure        #
                #                    SHARK, DRIVERS                     #
                #        Core code/Algorithms in most modules           #
                #                                                       #
                #        Max Planck Institute fuer Kohlenforschung      #
                #                Kaiser Wilhelm Platz 1                 #
                #                 D-45470 Muelheim/Ruhr                 #
                #                      Germany                          #
                #                                                       #
                #                  All rights reserved                  #
                #                        -***-                          #
                #########################################################


                         Program Version 6.1.0  -  RELEASE   -
                                (GIT: $679e74b$)
                          ($2025-06-10 18:02:51 +0200$)


 With contributions from (in alphabetic order):
[Max-Planck-Institut fuer Kohlenforschung]                               
  Daniel Aravena         : Magnetic Suceptibility                        
  Michael Atanasov       : Ab Initio Ligand Field Theory (pilot matlab implementation)
  Alexander A. Auer      : GIAO ZORA, VPT2 properties, NMR spectrum      
  Ute Becker             : All parallelization in ORCA, NUMFREQ, NUMCALC 
  Giovanni Bistoni       : ED, misc. LED, open-shell LED, HFLD           
  Dmytro Bykov           : pre 5.0 version of the SCF Hessian            
  Marcos Casanova-Páez   : Triplet and SCS-CIS(D). UHF-(DLPNO)-IP/EA/STEOM-CCSD. UHF-CVS-IP/STEOM-CCSD   
  Vijay G. Chilkuri      : MRCI spin determinant printing, contributions to CSF-ICE 
  Pauline Colinet        : FMM embedding                                 
  Dipayan Datta          : RHF DLPNO-CCSD density                        
  Achintya Kumar Dutta   : EOM-CC, STEOM-CC                              
  Nicolas Foglia         : Exact transition moments, OPA infrastructure, MCD improvements    
  Dmitry Ganyushin       : Spin-Orbit,Spin-Spin,Magnetic field MRCI      
  Miquel Garcia-Rates    : C-PCM and meta-GGA Hessian, CCSD/C-PCM, Gaussian charge scheme 
  Tiago L. C. Gouveia    : GS-ROHF, GS-ROCIS                             
  Yang Guo               : DLPNO-NEVPT2, F12-NEVPT2, CIM, IAO-localization        
  Andreas Hansen         : Spin unrestricted coupled pair/coupled cluster methods 
  Ingolf Harden          : AUTO-CI MPn and infrastructure                
  Benjamin Helmich-Paris : MC-RPA, TRAH-(SCF,CASSCF), AVAS, COSX integrals, SCF dyn. polar., MC-PDFT, srDFT 
  Lee Huntington         : MR-EOM, pCC                                   
  Robert Izsak           : Overlap fitted RIJCOSX, COSX-SCS-MP3, EOM     
  Riya Kayal             : Wick's Theorem for AUTO-CI, AUTO-CI UHF-CCSDT 
  Emily Kempfer          : AUTO-CI RHF CISDT and CCSDT, approximate NEVPT4
  Christian Kollmar      : KDIIS, OOCD, Brueckner-CCSD(T), CCSD density, CASPT2, CASPT2-K, improved NEVPT2 
  Axel Koslowski         : Symmetry handling                             
  Simone Kossmann        : meta-GGA functionals, TD-DFT gradient, OOMP2, (MP2 Hessian; deprecated post 5.0) 
  Lucas Lang             : DCDCAS, Hyperfine gauge corrections, ICE-SOC+SSC
  Marvin Lechner         : AUTO-CI (C++ implementation), FIC-MRCC        
  Spencer Leger          : CASSCF response                               
  Dagmar Lenk            : GEPOL surface, SMD, ORCA-2-JSON               
  Dimitrios Liakos       : Extrapolation schemes; Compound Job, Property file
  Dimitrios Manganas     : Further ROCIS development; embedding schemes. LFT, Crystal Embedding 
  Dimitrios Pantazis     : SARC Basis sets                               
  Anastasios Papadopoulos: AUTO-CI, single reference methods and gradients 
  Taras Petrenko         : pre 6.0 DFT Hessian and TD-DFT gradient,  ECA, NRVS 
  Petra Pikulova         : Analytic Raman intensities                    
  Peter Pinski           : DLPNO-MP2, DLPNO-MP2 Gradient                 
  Shashank Vittal Rao    : ES-AILFT, MagRelax                            
  Christoph Reimann      : Effective Core Potentials                     
  Marius Retegan         : Local ZFS, SOC                                
  Christoph Riplinger    : Optimizer, TS searches, QM/MM, DLPNO-CCSD(T), (RO)-DLPNO pert. Triples 
  Michael Roemelt        : Original ROCIS implementation, recursive CI coupling coefficients
  Masaaki Saitow         : Open-shell DLPNO-CCSD energy and density      
  Barbara Sandhoefer     : DKH picture change effects                    
  Yorick L. A. Schmerwitz: GMF and freeze-and-release deltaSCF, NEB S-IDPP initial path                    
  Kantharuban Sivalingam : CASSCF convergence/infrastructure, NEVPT2, NEVPT3, NEVPT4(SD), FIC-MRCI and CEPA variants
  Bernardo de Souza      : ESD, SOC TD-DFT                               
  Georgi L. Stoychev     : AutoAux, RI-MP2 NMR, DLPNO-MP2 response, X2C  
  Van Anh Tran           : RI-MP2 g-tensors                              
  Willem Van den Heuvel  : Paramagnetic NMR                              
  Zikuan Wang            : NOTCH, Electric field optimization            
  Frank Wennmohs         : Technical directorship and infrastructure     
  Hang Xu                : AUTO-CI-Response properties                   
                                                                         
[FACCTs GmbH]                                                            
  Markus Bursch, Nicolas Foglia, Miquel Garcia-Rates, Ingolf Harden, Hagen Neugebauer, Anastasios Papadopoulos, 
  Christoph Riplinger, Bernardo de Souza, Georgi L. Stoychev                                                    
                                                                 
  APM, various basis sets, CI-OPT, improved COSX, DLPNO-Multilevel,           
  DOCKER, DRACO, updates on ESD, Fragmentator, GOAT, IRC, LR-CPCM, L-BFGS, MBIS, meta-GGA TD-DFT gradient, ML-optimized integration grids, 
  MM, NACMEs, nearIR, NEB, NEB-TS, NL-DFT gradient (VV10), 2- and 3-layer-ONIOM, interface openCOSMO-RS, QMMM,   
  Crystal-QMMM, RESP, rigid body optimization, SF, symmetry and pop. for TD-DFT, various functionals, SOLVATOR                                   
                                                                         
[Other institutions]                                                     
  V. Asgeirsson          : NEB                                           
  Christoph Bannwarth    : sTDA-DFT, sTD-DFT, PBEh-3c, B97-3c, D3        
  Giovanni Bistoni       : ETS/NOCV, ADLD/ADEX, COVALED                  
  Martin Brehm           : Molecular dynamics                            
  Ronald Cardenas        : ETS/NOCV                                      
  Martina Colucci        : COVALED                                       
  Sebastian Ehlert       : rSCAN, r2SCAN, r2SCAN-3c, D4, dhf basis sets  
  Marvin Friede          : D4 for Fr, Ra, Ac-Lr                          
  Lars Goerigk           : TD-DFT with DH, B97 family of functionals     
  Stefan Grimme          : VdW corrections, initial TS optimization, DFT functionals, gCP, sTDA/sTD-DF 
  Waldemar Hujo          : DFT-NL                                        
  H. Jonsson             : NEB                                           
  Holger Kruse           : gCP                                           
  Marcel Mueller         : wB97X-3c, vDZP basis set                      
  Hagen Neugebauer       : wr2SCAN, Native XTB                           
  Gianluca Regni         : ADLD/ADEX                                     
  Tobias Risthaus        : pre 6.0 range-separated hybrid DFT and stability analysis
  Lukas Wittmann         : regularized MP2, r2SCAN double-hybrids, wr2SCAN        
                                                                         
We gratefully acknowledge several colleagues who have allowed us to      
interface, adapt or use parts of their codes:                            
  Ed Valeev, F. Pavosevic, A. Kumar             : LibInt (2-el integral package), F12 methods 
  Garnet Chan, S. Sharma, J. Yang, R. Olivares  : DMRG                   
  Ulf Ekstrom                                   : XCFun DFT Library      
  Mihaly Kallay                                 : mrcc  (arbitrary order and MRCC methods)
  Frank Weinhold                                : gennbo (NPA and NBO analysis)           
  Simon Mueller                                 : openCOSMO-RS                            
  Christopher J. Cramer and Donald G. Truhlar   : smd solvation model                     
  S Lehtola, MJT Oliveira, MAL Marques          : LibXC Library                           
  Liviu Ungur et al                             : ANISO software                          


 Your calculation uses the libint2 library for the computation of 2-el integrals
 For citations please refer to: http://libint.valeyev.net

 Your ORCA version has been built with support for libXC version: 7.0.0
 For citations please refer to: https://libxc.gitlab.io

 This ORCA versions uses:
   CBLAS   interface :  Fast vector & matrix operations
   LAPACKE interface :  Fast linear algebra routines
   SCALAPACK package :  Parallel linear algebra routines
   Shared memory     :  Shared parallel matrices
   BLAS/LAPACK       :  OpenBLAS 0.3.29  USE64BITINT DYNAMIC_ARCH NO_AFFINITY Zen SINGLE_THREADED
        Core in use  :  Zen
   Copyright (c) 2011-2014, The OpenBLAS Project


  ***********************************
  * Starting time: Sun Apr  5 13:00:19 2026
  * Host name:     QC1
  * Process ID:    4996
  * Working dir.:  /home/user/QC/h-shift/split_2
  ***********************************

NOTE: MaxCore=1200 MB was set to SCF,MP2,MDCI,CIPSI,MRCI,RASCI and CIS
      => If you want to overwrite this, your respective input block should be placed after the MaxCore statement
================================================================================

----- Orbital basis set information -----
Your calculation utilizes the basis: 6-31G
   H-He, Li-Ne : W. J. Hehre, R. Ditchfield and J.A. Pople, J. Chem. Phys. 56, 2257 (1972).
                 Note: He and Ne are unpublished basis sets taken from the Gaussian program.
                 Note: Li and B from J. D. Dill and J. A. Pople, J. Chem. Phys. 62, 2921 (1975).
   Na - Ar     : M. M. Francl, W. J. Pietro, W. J. Hehre, J. S. Binkley, M. S. Gordon, 
                 D. J. DeFrees and J. A. Pople, J. Chem. Phys. 77, 3654 (1982).
   K - Zn      : V. A. Rassolov, J. A. Pople, M. A. Ratner, and T. L. Windus, J. Chem. Phys. 109, 1223 (1998).

================================================================================
                                        WARNINGS
                       Please study these warnings very carefully!
================================================================================


================================================================================
                                       INPUT FILE
================================================================================
NAME = h-shift_019.inp
|  1> ! HF 6-31G
|  2> %maxcore 1200
|  3> %pal nprocs 8 end
|  4> * xyz 0 1
|  5> C    0.01044500   0.01076100  -0.15621600
|  6> H    1.03860300   0.01322300  -0.49630700
|  7> C    2.56388600   0.01265500   1.51124400
|  8> C    2.03647200  -1.17421300   1.80112200
|  9> C    0.63758500  -1.60615000   1.66468900
| 10> C   -0.23794600  -1.14050000   0.77396800
| 11> H   -0.63765400  -0.01322900  -1.02054200
| 12> H   -0.15574700   0.95564300   0.35463800
| 13> H    1.97719700   0.86762900   1.24656900
| 14> H    3.62575100   0.16184100   1.52352800
| 15> H    2.70640400  -1.95278500   2.12286500
| 16> H    0.34443400  -2.43830600   2.28183600
| 17> H   -1.19365500  -1.62861600   0.69299600
| 18> *
| 19> 
| 20>                          ****END OF INPUT****
================================================================================

                       ****************************
                       * Single Point Calculation *
                       ****************************

---------------------------------
CARTESIAN COORDINATES (ANGSTROEM)
---------------------------------
  C      0.010445    0.010761   -0.156216
  H      1.038603    0.013223   -0.496307
  C      2.563886    0.012655    1.511244
  C      2.036472   -1.174213    1.801122
  C      0.637585   -1.606150    1.664689
  C     -0.237946   -1.140500    0.773968
  H     -0.637654   -0.013229   -1.020542
  H     -0.155747    0.955643    0.354638
  H      1.977197    0.867629    1.246569
  H      3.625751    0.161841    1.523528
  H      2.706404   -1.952785    2.122865
  H      0.344434   -2.438306    2.281836
  H     -1.193655   -1.628616    0.692996

----------------------------
CARTESIAN COORDINATES (A.U.)
----------------------------
  NO LB      ZA    FRAG     MASS         X           Y           Z
   0 C     6.0000    0    12.011    0.019738    0.020335   -0.295205
   1 H     1.0000    0     1.008    1.962675    0.024988   -0.937884
   2 C     6.0000    0    12.011    4.845042    0.023914    2.855837
   3 C     6.0000    0    12.011    3.848374   -2.218941    3.403627
   4 C     6.0000    0    12.011    1.204861   -3.035184    3.145806
   5 C     6.0000    0    12.011   -0.449653   -2.155233    1.462588
   6 H     1.0000    0     1.008   -1.204991   -0.024999   -1.928545
   7 H     1.0000    0     1.008   -0.294319    1.805904    0.670169
   8 H     1.0000    0     1.008    3.736361    1.639581    2.355674
   9 H     1.0000    0     1.008    6.851676    0.305835    2.879051
  10 H     1.0000    0     1.008    5.114362   -3.690229    4.011633
  11 H     1.0000    0     1.008    0.650886   -4.607731    4.312045
  12 H     1.0000    0     1.008   -2.255681   -3.077638    1.309573

--------------------------------
INTERNAL COORDINATES (ANGSTROEM)
--------------------------------
 C      0   0   0     0.000000000000     0.00000000     0.00000000
 H      1   0   0     1.082948208683     0.00000000     0.00000000
 C      2   1   0     2.521259520619   108.92347917     0.00000000
 C      3   2   1     1.330733042989    86.20890839    63.22041219
 C      4   3   2     1.470397352496   128.23176204   320.92126940
 C      5   4   3     1.332954745782   125.75171323    28.84737541
 H      1   2   3     1.080586538958   108.55895683   181.35648013
 H      1   2   3     1.086919308920   106.90525142    65.46395748
 H      3   2   1     1.070157642136    58.07754524   289.61436568
 H      3   2   1     1.072364041488   127.45480404   189.96109033
 H      4   3   2     1.076337215680   117.61850287   136.88374338
 H      5   4   3     1.076704015385   115.65034026   202.50026186
 H      6   5   4     1.076193935553   118.36793508   172.18360384

---------------------------
INTERNAL COORDINATES (A.U.)
---------------------------
 C      0   0   0     0.000000000000     0.00000000     0.00000000
 H      1   0   0     2.046475531631     0.00000000     0.00000000
 C      2   1   0     4.764490006512   108.92347917     0.00000000
 C      3   2   1     2.514721008610    86.20890839    63.22041219
 C      4   3   2     2.778648304260   128.23176204   320.92126940
 C      5   4   3     2.518919418438   125.75171323    28.84737541
 H      1   2   3     2.042012622632   108.55895683   181.35648013
 H      1   2   3     2.053979823531   106.90525142    65.46395748
 H      3   2   1     2.022304863760    58.07754524   289.61436568
 H      3   2   1     2.026474354278   127.45480404   189.96109033
 H      4   3   2     2.033982565382   117.61850287   136.88374338
 H      5   4   3     2.034675716371   115.65034026   202.50026186
 H      6   5   4     2.033711805182   118.36793508   172.18360384

---------------------
BASIS SET INFORMATION
---------------------
There are 2 groups of distinct atoms

 Group   1 Type C   : 10s4p contracted to 3s2p pattern {631/31}
 Group   2 Type H   : 4s contracted to 2s pattern {31}

Atom   0C    basis set group =>   1
Atom   1H    basis set group =>   2
Atom   2C    basis set group =>   1
Atom   3C    basis set group =>   1
Atom   4C    basis set group =>   1
Atom   5C    basis set group =>   1
Atom   6H    basis set group =>   2
Atom   7H    basis set group =>   2
Atom   8H    basis set group =>   2
Atom   9H    basis set group =>   2
Atom  10H    basis set group =>   2
Atom  11H    basis set group =>   2
Atom  12H    basis set group =>   2


           ************************************************************
           *        Program running with 8 parallel MPI-processes     *
           *              working on a common directory               *
           ************************************************************
------------------------------------------------------------------------------
                             ORCA STARTUP CALCULATIONS
------------------------------------------------------------------------------
------------------------------------------------------------------------------
                   ___                                                        
                  /   \      - P O W E R E D   B Y -                         
                 /     \                                                     
                 |  |  |   _    _      __       _____    __    __             
                 |  |  |  | |  | |    /  \     |  _  \  |  |  /  |          
                  \  \/   | |  | |   /    \    | | | |  |  | /  /          
                 / \  \   | |__| |  /  /\  \   | |_| |  |  |/  /          
                |  |  |   |  __  | /  /__\  \  |    /   |      \           
                |  |  |   | |  | | |   __   |  |    \   |  |\   \          
                \     /   | |  | | |  |  |  |  | |\  \  |  | \   \       
                 \___/    |_|  |_| |__|  |__|  |_| \__\ |__|  \__/        
                                                                              
                      - O R C A' S   B I G   F R I E N D -                    
                                      &                                       
                       - I N T E G R A L  F E E D E R -                       
                                                                              
 v1 FN, 2020, v2 2021, v3 2022-2024                                           
------------------------------------------------------------------------------


----------------------
SHARK INTEGRAL PACKAGE
----------------------

Number of atoms                             ...     13
Number of basis functions                   ...     61
Number of shells                            ...     41
Maximum angular momentum                    ...      1
Integral batch strategy                     ... SHARK/LIBINT Hybrid
RI-J (if used) integral strategy            ... SPLIT-RIJ (Revised 2003 algorithm where possible)
Printlevel                                  ...      1
Contraction scheme used                     ... SEGMENTED contraction
Prescreening option                         ... SCHWARTZ
   Thresh                                   ... 1.000e-10
   Tcut                                     ... 1.000e-11
   Tpresel                                  ... 1.000e-11 
Coulomb Range Separation                    ... NOT USED
Exchange Range Separation                   ... NOT USED
Multipole approximations                    ... NOT USED
Finite Nucleus Model                        ... NOT USED
CABS basis                                  ... NOT available
Auxiliary Coulomb fitting basis             ... NOT available
Auxiliary J/K fitting basis                 ... NOT available
Auxiliary Correlation fitting basis         ... NOT available
Auxiliary 'external' fitting basis          ... NOT available

Checking pre-screening integrals            ... done (  0.0 sec) Dimension = 41
   => SHARK Basis and OBASIS are compatible. Storing Pre-screening
Shell pair information
Shell pair cut-off parameter TPreSel        ...   1.0e-11
Total number of shell pairs                 ...       861
Shell pairs after pre-screening             ...       846
Total number of primitive shell pairs       ...      5382
Primitive shell pairs kept                  ...      3734
          la=0 lb=0:    481 shell pairs
          la=1 lb=0:    310 shell pairs
          la=1 lb=1:     55 shell pairs

Checking whether 4 symmetric matrices of dimension 61 fit in memory
:Max Core in MB      =   1200.00
 MB in use           =      2.04
 MB left             =   1197.96
 MB needed           =      0.06
 Data fit in memory  = YES
Calculating Nuclear repulsion               ... done (  0.0 sec) ENN=    160.900271871475 Eh

Diagonalization of the overlap matrix:
Smallest eigenvalue                        ... 3.368e-03
Time for diagonalization                   ...    0.001 sec
Threshold for overlap eigenvalues          ... 1.000e-07
Number of eigenvalues below threshold      ... 0
Time for construction of square roots      ...    0.000 sec
Total time needed                          ...    0.002 sec

-------------------
DFT GRID GENERATION
-------------------

General Integration Accuracy     IntAcc      ... 4.388
Radial Grid Type                 RadialGrid  ... OptM3 with GC (2021)
Angular Grid (max. ang.)         AngularGrid ... 4 (Lebedev-302)
Angular grid pruning method      GridPruning ... 4 (adaptive)
Weight generation scheme         WeightScheme... mBecke (2022)
Basis function cutoff            BFCut       ... 1.0000e-10
Integration weight cutoff        WCut        ... 1.0000e-14
Partially contracted basis set               ... off
Rotationally invariant grid construction     ... off
Angular grids for H and He will be reduced by one unit

Total number of grid points                  ...    56051
Total number of batches                      ...      883
Average number of points per batch           ...       63
Average number of grid points per atom       ...     4312
Grids setup in   0.2 sec
Initializing property integral containers    ... done (  0.0 sec)

SHARK setup successfully completed in   0.3 seconds

Maximum memory used throughout the entire STARTUP-calculation: 11.8 MB


           ************************************************************
           *        Program running with 8 parallel MPI-processes     *
           *              working on a common directory               *
           ************************************************************
-------------------------------------------------------------------------------
                                 ORCA GUESS
                   Start orbitals & Density for SCF / CASSCF
-------------------------------------------------------------------------------

------------
SCF SETTINGS
------------
Hamiltonian:
 Ab initio Hamiltonian  Method          .... Hartree-Fock(GTOs)


General Settings:
 Integral files         IntName         .... h-shift_019
 Hartree-Fock type      HFTyp           .... RHF
 Total Charge           Charge          ....    0
 Multiplicity           Mult            ....    1
 Number of Electrons    NEL             ....   38
 Basis Dimension        Dim             ....   61
 Nuclear Repulsion      ENuc            ....    160.9002718715 Eh

Convergence Acceleration:
 AO-DIIS                CNVDIIS         .... on
   Start iteration      DIISMaxIt       ....    12
   Startup error        DIISStart       ....  0.200000
   # of expansion vecs  DIISMaxEq       ....     5
   Bias factor          DIISBfac        ....   1.050
   Max. coefficient     DIISMaxC        ....  10.000
 MO-DIIS                CNVKDIIS        .... off
 Trust-Rad. Augm. Hess. CNVTRAH         .... auto
   Auto Start mean grad. ratio tolernc. ....  1.125000
   Auto Start start iteration           ....    50
   Auto Start num. interpolation iter.  ....    10
   Max. Number of Micro iterations      ....    24
   Max. Number of Macro iterations      .... Maxiter - #DIIS iter
   Number of Davidson start vectors     ....     2
   Converg. threshold    (grad. norm)   ....   5.000e-05
   Grad. Scal. Fac. for Micro threshold ....   0.100
   Minimum threshold for Micro iter.    ....   1.000e-02
   NR start threshold (gradient norm)   ....   1.000e-04
   Initial trust radius                 ....   0.400
   Minimum AH scaling param. (alpha)    ....   1.000
   Maximum AH scaling param. (alpha)    .... 1000.000
   Quad. conv. algorithm                .... NR
   White noise on init. David. guess    .... on
   Maximum white noise                  ....   0.010
   Pseudo random numbers                .... off
   Inactive MOs                         .... canonical
   Orbital update algorithm             .... Taylor
   Preconditioner                       .... Diag
   Full preconditioner red. dimension   ....   250
 SOSCF                 CNVSOSCF           .... on
   Start iteration     SOSCFMaxIt         ....   150
   Startup grad/error  SOSCFStart         ....  0.003300
   Hessian update      SOSCFHessUp        .... L-BFGS
   Autom. constraints  SOSCFAutoConstrain .... off
 Level Shifting         CNVShift        .... on
   Level shift para.    LevelShift      ....    0.2500
   Turn off err/grad.   ShiftErr        ....    0.0010
 Zerner damping         CNVZerner       .... off
 Static damping         CNVDamp         .... on
   Fraction old density DampFac         ....    0.7000
   Max. Damping (<1)    DampMax         ....    0.9800
   Min. Damping (>=0)   DampMin         ....    0.0000
   Turn off err/grad.   DampErr         ....    0.1000

SCF Procedure:
 Maximum # iterations   MaxIter         ....   125
 SCF integral mode      SCFMode         .... Direct
   Integral package                     .... SHARK and LIBINT hybrid scheme
 Reset frequency        DirectResetFreq ....    20
 Integral Threshold     Thresh          ....  1.000e-10 Eh
 Primitive CutOff       TCut            ....  1.000e-11 Eh

Convergence Tolerance:
 Convergence Check Mode ConvCheckMode   .... Total+1el-Energy
 Convergence forced     ConvForced      .... 0
 Energy Change          TolE            ....  1.000e-06 Eh
 1-El. energy change                    ....  1.000e-03 Eh
 Orbital Gradient       TolG            ....  5.000e-05
 Orbital Rotation angle TolX            ....  5.000e-05
 DIIS Error             TolErr          ....  1.000e-06

------------------------------
INITIAL GUESS: MODEL POTENTIAL
------------------------------
Loading Hartree-Fock densities                     ... done
Calculating cut-offs                               ... done
Initializing the effective Hamiltonian             ... done
Setting up the integral package (SHARK)            ... done
Starting the Coulomb interaction                   ... done (   0.0 sec)
Making the grid                                    ... done (   0.1 sec)
Mapping shells                                     ... done
Starting the XC term evaluation                    ... done (   0.0 sec)
Transforming the Hamiltonian                       ... done (   0.0 sec)
Diagonalizing the Hamiltonian                      ... done (   0.0 sec)
Back transforming the eigenvectors                 ... done (   0.0 sec)
Now organizing SCF variables                       ... done
                      ------------------
                      INITIAL GUESS DONE (   0.1 sec)
                      ------------------
             **** ENERGY FILE WAS UPDATED (h-shift_019.en.tmp) ****
Finished Guess after   0.4 sec
Maximum memory used throughout the entire GUESS-calculation: 4.2 MB


           ************************************************************
           *        Program running with 8 parallel MPI-processes     *
           *              working on a common directory               *
           ************************************************************

-------------------------------------------------------------------------------------------
                                      ORCA LEAN-SCF
                              memory conserving SCF solver
-------------------------------------------------------------------------------------------

----------------------------------------D-I-I-S--------------------------------------------
Iteration    Energy (Eh)           Delta-E    RMSDP     MaxDP     DIISErr   Damp  Time(sec)
-------------------------------------------------------------------------------------------
               ***  Starting incremental Fock matrix formation  ***
    1    -193.6453204231377470     0.00e+00  1.57e-02  5.34e-02  1.89e-01  0.700   0.0
    2    -193.7262422065169005    -8.09e-02  1.25e-02  4.05e-02  1.23e-01  0.700   0.0
                               ***Turning on AO-DIIS***
    3    -193.7762751562721917    -5.00e-02  7.70e-03  2.03e-02  7.36e-02  0.700   0.0
    4    -193.8078932699300765    -3.16e-02  1.83e-02  4.31e-02  4.98e-02  0.000   0.0
                              *** Initializing SOSCF ***
---------------------------------------S-O-S-C-F--------------------------------------
Iteration    Energy (Eh)           Delta-E    RMSDP     MaxDP     MaxGrad    Time(sec)
--------------------------------------------------------------------------------------
    5    -193.8762989464836721    -6.84e-02  1.70e-03  2.78e-03  2.78e-03     0.0
               *** Restarting incremental Fock matrix formation ***
    6    -193.8764206270211901    -1.22e-04  8.73e-04  1.83e-03  1.36e-03     0.0
    7    -193.8764565021174633    -3.59e-05  5.45e-04  1.19e-03  5.57e-04     0.0
    8    -193.8764634561399873    -6.95e-06  7.16e-05  1.78e-04  1.35e-04     0.0
    9    -193.8764636738186766    -2.18e-07  3.23e-05  7.83e-05  3.14e-05     0.0
                 **** Energy Check signals convergence ****

               *****************************************************
               *                     SUCCESS                       *
               *           SCF CONVERGED AFTER   9 CYCLES          *
               *****************************************************

             **** ENERGY FILE WAS UPDATED (h-shift_019.en.tmp) ****

----------------
TOTAL SCF ENERGY
----------------

Total Energy       :       -193.87646373145159 Eh           -5275.64679 eV

Components:
Nuclear Repulsion  :        160.90027187147510 Eh            4378.31899 eV
Electronic Energy  :       -354.77673560292669 Eh           -9653.96577 eV
One Electron Energy:       -578.75880681502440 Eh          -15748.82779 eV
Two Electron Energy:        223.98207121209771 Eh            6094.86201 eV

Virial components:
Potential Energy   :       -388.04614384698158 Eh          -10559.27240 eV
Kinetic Energy     :        194.16968011552999 Eh            5283.62561 eV
Virial Ratio       :          1.99848989613670

---------------
SCF CONVERGENCE
---------------

  Last Energy change         ...    2.1768e-07  Tolerance :   1.0000e-06
  Last MAX-Density change    ...    7.8302e-05  Tolerance :   1.0000e-05
  Last RMS-Density change    ...    3.2272e-05  Tolerance :   1.0000e-06
  Last DIIS Error            ...    2.7830e-03  Tolerance :   1.0000e-06
  Last Orbital Gradient      ...    3.1402e-05  Tolerance :   5.0000e-05
  Last Orbital Rotation      ...    3.1672e-05  Tolerance :   5.0000e-05


----------------
ORBITAL ENERGIES
----------------

  NO   OCC          E(Eh)            E(eV) 
   0   2.0000     -11.236049      -305.7484 
   1   2.0000     -11.235679      -305.7384 
   2   2.0000     -11.227498      -305.5158 
   3   2.0000     -11.221357      -305.3486 
   4   2.0000     -11.214958      -305.1745 
   5   2.0000      -1.100679       -29.9510 
   6   2.0000      -1.020864       -27.7791 
   7   2.0000      -0.941252       -25.6128 
   8   2.0000      -0.813793       -22.1444 
   9   2.0000      -0.717705       -19.5298 
  10   2.0000      -0.667512       -18.1639 
  11   2.0000      -0.603065       -16.4102 
  12   2.0000      -0.584701       -15.9105 
  13   2.0000      -0.567539       -15.4435 
  14   2.0000      -0.541949       -14.7472 
  15   2.0000      -0.507088       -13.7986 
  16   2.0000      -0.469029       -12.7629 
  17   2.0000      -0.411247       -11.1906 
  18   2.0000      -0.315366        -8.5816 
  19   0.0000       0.132664         3.6100 
  20   0.0000       0.231906         6.3105 
  21   0.0000       0.252766         6.8781 
  22   0.0000       0.266133         7.2419 
  23   0.0000       0.291701         7.9376 
  24   0.0000       0.320886         8.7317 
  25   0.0000       0.336786         9.1644 
  26   0.0000       0.347682         9.4609 
  27   0.0000       0.359823         9.7913 
  28   0.0000       0.367819        10.0089 
  29   0.0000       0.429860        11.6971 
*Only the first 10 virtual orbitals were printed.

                    ********************************
                    * MULLIKEN POPULATION ANALYSIS *
                    ********************************

-----------------------
MULLIKEN ATOMIC CHARGES
-----------------------
   0 C :   -0.510349
   1 H :    0.182169
   2 C :   -0.363044
   3 C :   -0.151975
   4 C :   -0.196700
   5 C :   -0.147768
   6 H :    0.159222
   7 H :    0.171121
   8 H :    0.172141
   9 H :    0.161768
  10 H :    0.173112
  11 H :    0.175244
  12 H :    0.175059
Sum of atomic charges:    0.0000000

--------------------------------
MULLIKEN REDUCED ORBITAL CHARGES
--------------------------------
  0 C s       :     3.366735  s :     3.366735
      pz      :     1.035663  p :     3.143614
      px      :     1.111688
      py      :     0.996263

  1 H s       :     0.817831  s :     0.817831

  2 C s       :     3.266573  s :     3.266573
      pz      :     1.017692  p :     3.096471
      px      :     1.082386
      py      :     0.996393

  3 C s       :     3.194852  s :     3.194852
      pz      :     0.997619  p :     2.957123
      px      :     0.964201
      py      :     0.995303

  4 C s       :     3.193906  s :     3.193906
      pz      :     1.015450  p :     3.002795
      px      :     0.923267
      py      :     1.064077

  5 C s       :     3.210759  s :     3.210759
      pz      :     0.940687  p :     2.937009
      px      :     1.035266
      py      :     0.961056

  6 H s       :     0.840778  s :     0.840778

  7 H s       :     0.828879  s :     0.828879

  8 H s       :     0.827859  s :     0.827859

  9 H s       :     0.838232  s :     0.838232

 10 H s       :     0.826888  s :     0.826888

 11 H s       :     0.824756  s :     0.824756

 12 H s       :     0.824941  s :     0.824941



                     *******************************
                     * LOEWDIN POPULATION ANALYSIS *
                     *******************************

----------------------
LOEWDIN ATOMIC CHARGES
----------------------
   0 C :   -0.319622
   1 H :    0.125081
   2 C :   -0.247288
   3 C :   -0.113870
   4 C :   -0.149939
   5 C :   -0.106808
   6 H :    0.110785
   7 H :    0.117267
   8 H :    0.117661
   9 H :    0.116129
  10 H :    0.116575
  11 H :    0.117304
  12 H :    0.116726

-------------------------------
LOEWDIN REDUCED ORBITAL CHARGES
-------------------------------
  0 C s       :     2.976162  s :     2.976162
      pz      :     1.106529  p :     3.343460
      px      :     1.144635
      py      :     1.092295

  1 H s       :     0.874919  s :     0.874919

  2 C s       :     2.988375  s :     2.988375
      pz      :     1.036626  p :     3.258913
      px      :     1.115478
      py      :     1.106809

  3 C s       :     2.944954  s :     2.944954
      pz      :     0.987923  p :     3.168916
      px      :     1.071796
      py      :     1.109197

  4 C s       :     2.940730  s :     2.940730
      pz      :     1.074865  p :     3.209209
      px      :     1.063657
      py      :     1.070687

  5 C s       :     2.951864  s :     2.951864
      pz      :     1.032215  p :     3.154944
      px      :     1.089490
      py      :     1.033239

  6 H s       :     0.889215  s :     0.889215

  7 H s       :     0.882733  s :     0.882733

  8 H s       :     0.882339  s :     0.882339

  9 H s       :     0.883871  s :     0.883871

 10 H s       :     0.883425  s :     0.883425

 11 H s       :     0.882696  s :     0.882696

 12 H s       :     0.883274  s :     0.883274



                      *****************************
                      * MAYER POPULATION ANALYSIS *
                      *****************************

  NA   - Mulliken gross atomic population
  ZA   - Total nuclear charge
  QA   - Mulliken gross atomic charge
  VA   - Mayer's total valence
  BVA  - Mayer's bonded valence
  FA   - Mayer's free valence

  ATOM       NA         ZA         QA         VA         BVA        FA
  0 C      6.5103     6.0000    -0.5103     3.7714     3.7714     0.0000
  1 H      0.8178     1.0000     0.1822     0.9303     0.9303    -0.0000
  2 C      6.3630     6.0000    -0.3630     3.8451     3.8451    -0.0000
  3 C      6.1520     6.0000    -0.1520     3.8086     3.8086     0.0000
  4 C      6.1967     6.0000    -0.1967     3.8232     3.8232     0.0000
  5 C      6.1478     6.0000    -0.1478     3.7659     3.7659    -0.0000
  6 H      0.8408     1.0000     0.1592     0.9327     0.9327     0.0000
  7 H      0.8289     1.0000     0.1711     0.9220     0.9220     0.0000
  8 H      0.8279     1.0000     0.1721     0.9388     0.9388    -0.0000
  9 H      0.8382     1.0000     0.1618     0.9438     0.9438     0.0000
 10 H      0.8269     1.0000     0.1731     0.9372     0.9372     0.0000
 11 H      0.8248     1.0000     0.1752     0.9387     0.9387     0.0000
 12 H      0.8249     1.0000     0.1751     0.9386     0.9386     0.0000

  Mayer bond orders larger than 0.100000
B(  0-C ,  1-H ) :   0.9422 B(  0-C ,  5-C ) :   0.9593 B(  0-C ,  6-H ) :   0.9598 
B(  0-C ,  7-H ) :   0.9452 B(  2-C ,  3-C ) :   1.8783 B(  2-C ,  8-H ) :   0.9613 
B(  2-C ,  9-H ) :   0.9628 B(  3-C ,  4-C ) :   1.0472 B(  3-C , 10-H ) :   0.9578 
B(  4-C ,  5-C ) :   1.8801 B(  4-C , 11-H ) :   0.9566 B(  5-C , 12-H ) :   0.9575 


-------
TIMINGS
-------

Total SCF time: 0 days 0 hours 0 min 0 sec 

Total time                  ....       0.706 sec
Sum of individual times     ....       0.663 sec  ( 94.0%)

SCF preparation             ....       0.253 sec  ( 35.9%)
Fock matrix formation       ....       0.353 sec  ( 50.0%)
  Startup                   ....       0.001 sec  (  0.4% of F)
  Coulomb+Exchange Fock     ....       0.371 sec  (105.1% of F)
Diagonalization             ....       0.000 sec  (  0.0%)
Density matrix formation    ....       0.008 sec  (  1.1%)
Total Energy calculation    ....       0.005 sec  (  0.7%)
Population analysis         ....       0.004 sec  (  0.6%)
Orbital Transformation      ....       0.005 sec  (  0.7%)
Orbital Orthonormalization  ....       0.000 sec  (  0.0%)
DIIS solution               ....       0.021 sec  (  2.9%)
SOSCF solution              ....       0.014 sec  (  2.0%)
Finished LeanSCF after   0.7 sec

Maximum memory used throughout the entire LEANSCF-calculation: 6.4 MB

-------------------------   --------------------
FINAL SINGLE POINT ENERGY      -193.876463731452
-------------------------   --------------------



           ************************************************************
           *        Program running with 8 parallel MPI-processes     *
           *              working on a common directory               *
           ************************************************************

------------------------------------------------------------------------------
                              ORCA PROPERTY CALCULATIONS
------------------------------------------------------------------------------

GBWName                                 ... h-shift_019.gbw
Number of atoms                         ...     13
Number of basis functions               ...     61
Max core memory                         ...   1200 MB

Electric properties:
Dipole moment                           ... YES
Quadrupole moment                       ...  NO
Static polarizability (Dipole/Dipole)   ...  NO
Static polarizability (Dipole/Quad.)    ...  NO
Static polarizability (Quad./Quad.)     ...  NO
Static polarizability (Velocity)        ...  NO
Static hyperpolarizability              ...  NO

Atomic electric properties:
Dipole moment                           ...  NO
Quadrupole moment                       ...  NO
Static polarizability                   ...  NO

Choice of electric origin               ... Center of mass
Position of electric origin             ...     1.884966    -1.411465     2.051722

General magnetic properties:
Magnetizability                         ...  NO

EPR properties:
g-Tensor (aka g-matrix)                 ...  NO
Zero-Field splitting spin-orbit         ...  NO
Zero-field splitting spin-spin          ...  NO
Hyperfine couplings                     ...  NO (   0 nuclei)
Quadrupole couplings                    ...  NO (   0 nuclei)
Contact density                         ...  NO (   0 nuclei)

NMR properties:
Chemical shifts                         ...  NO (   0 nuclei)
Spin-rotation constants                 ...  NO (   0 nuclei)
Spin-spin couplings                     ...  NO (   0 nuclei,    0 pairs)

Choice of magnetic origin               ... GIAO
Position of magnetic origin             ...     0.000000     0.000000     0.000000

Properties with geometric perturbations:
SCF Hessian                             ...  NO
IR spectrum                             ...  NO
VCD spectrum                            ...  NO
X-ray spectroscopy properties:
SCF XES/XAS/RIXS spectra                ...  NO

SCF SOC stabilization energy            ...  NO
Diagonal Born-Oppenheimer correction    ...  NO

-------------
DIPOLE MOMENT
-------------

Method             : SCF
Type of density    : Electron Density
Multiplicity       :   1
Irrep              :   0
Energy             :  -193.8764637314515937 Eh
Basis              : AO
                                X                 Y                 Z
Electronic contribution:      0.202757200      -1.813345802       1.738485951
Nuclear contribution   :     -0.257541988       1.820738818      -1.857787739
                        -----------------------------------------
Total Dipole Moment    :     -0.054784788       0.007393016      -0.119301789
                        -----------------------------------------
Magnitude (a.u.)       :      0.131487438
Magnitude (Debye)      :      0.334214508



--------------------
Rotational spectrum 
--------------------
 
Rotational constants in cm-1:             0.285448             0.140504             0.097386 
Rotational constants in MHz :          8557.501892          4212.190846          2919.560454 

Dipole components along the rotational axes: 
x,y,z [a.u.] :     0.105929     0.048848    -0.060679 
x,y,z [Debye]:     0.269249     0.124163    -0.154233 

 

Dipole moment calculation done in   0.0 sec 

Maximum memory used throughout the entire PROP-calculation: 2.2 MB

--------------------------------
SUGGESTED CITATIONS FOR THIS RUN
--------------------------------

Below you find a list of papers that are relevant to this ORCA run
We neither can nor want to force you to cite these papers, but we appreciate if you do
You receive ORCA, which is the product of decades of hard work by many enthusiastic individuals, for free
The only thing we kindly ask in return is that you cite our papers,
We deeply appreciate it, if you show your appreciation for ORCA by not just citing the generic ORCA reference.

Please note that relegating all ORCA citations to the supporting information does *not* help us.
SI sections are not indexed - citations you put there will not count into any citation statistics
But we need these citations in order to attract the funding resources that allow us to do what we are doing

Therefore, if you are a happy ORCA user, please consider citing a few of the papers listed below in the main body of your paper

In addition to the list printed below, the program has created the file h-shift_019.bibtex that contains the list in bibtex format
You can import this file easily into all common literature databanks and citation aid programs


List of essential papers. We consider these as the minimum necessary citations

  1. Neese, F.
     Software update: the ORCA program system, version 6.0
     WIRES Comput. Molec. Sci. 2025 15(1), e70019
     doi.org/10.1002/wcms.7019

List of papers to cite with high priority. The work reported in these papers was absolutely
necessary for this run to complete.
Our perspective: the developers of density functionals and basis sets usually get cited in chemistry papers
Good! But without the algorithms to do something with them, the functionals or basis sets would not do anything.
Hence, in our opinion, the algorithm design and method developments papers are equally worthy of getting cited

  1. Neese, F.
     The SHARK Integral Generation and Digestion System
     J. Comp. Chem. 2022 44(3), 381
     doi.org/10.1002/jcc.26942

List of suggested additional citations. These are papers that are important in the 'surrounding' of 
of this run, or papers that preceded the highly important papers. If you like your results we are grateful for a citation.

  1. Neese, F.
     The ORCA program system
     WIRES Comput. Molec. Sci. 2012 2(1), 73-78
     doi.org/10.1002/wcms.81
  2. Neese, F.
     Software update: the ORCA program system, version 4.0
     WIRES Comput. Molec. Sci. 2018 8(1), 1-6
     doi.org/10.1002/wcms.1327
  3. Neese, F.; Wennmohs, F.; Becker, U.; Riplinger, C.
     The ORCA quantum chemistry program package
     J. Chem. Phys. 2020 152(22), 224108
     doi.org/10.1063/5.0004608
  4. Neese, F.
     Software update: The ORCA program system—Version 5.0
     WIRES Comput. Molec. Sci. 2022 12(1), e1606
     doi.org/10.1002/wcms.1606

List of optional additional citations

  1. Neese, F.
     Approximate second-order SCF convergence for spin unrestricted wavefunctions
     Chem. Phys. Lett. 2000 325(1-3), 93-98
     doi.org/10.1016/s0009-2614(00)00662-x

Timings for individual modules:

Sum of individual times          ...        2.293 sec (=   0.038 min)
Startup calculation              ...        0.639 sec (=   0.011 min)  27.9 %
SCF iterations                   ...        1.272 sec (=   0.021 min)  55.5 %
Property calculations            ...        0.383 sec (=   0.006 min)  16.7 %
                             ****ORCA TERMINATED NORMALLY****
TOTAL RUN TIME: 0 days 0 hours 0 minutes 2 seconds 755 msec
