[Molden Format]
[Title]
 Molden file created by orca_2mkl for BaseName=h-shift_061

[Atoms] AU
C    1   6         -0.6925052596         0.0417459400         0.0659684496 
H    2   1          3.8011349855         0.0001190527         0.0851983027 
C    3   6          4.5475560214         0.0235478774         1.9934210761 
C    4   6          3.5175041003        -2.1776334693         3.4453808127 
C    5   6          1.1498851244        -3.0196954346         3.2189519376 
C    6   6         -0.6162926046        -2.1818475586         1.2521023007 
H    7   1         -1.7322854908         0.2642460745        -1.6583877503 
H    8   1          0.3041892158         1.6804181776         0.7015438197 
H    9   1          3.9402906386         1.7944215758         2.8336878015 
H   10   1          6.5833844417         0.0362147116         1.8936000725 
H   11   1          4.8034060427        -3.1709302171         4.6731509997 
H   12   1          0.5691231506        -4.6264879923         4.3327036086 
H   13   1         -1.8320403540        -3.6531864368         0.5629097310 
[GTO]
  1 0
s   6 1.0 
     3047.5249000000         0.5363343823
      457.3695100000         0.9894506076
      103.9486900000         1.5972822308
       29.2101550000         2.0791870615
        9.2866630000         1.7741742532
        3.1639270000         0.6125798260
s   3 1.0 
        7.8682724000        -0.3995563516
        1.8812885000        -0.1841552393
        0.5442493000         0.5163903794
p   3 1.0 
        7.8682724000         1.2960827175
        1.8812885000         0.9937536282
        0.5442493000         0.4959527138
s   1 1.0 
        0.1687144000         0.1876178721
p   1 1.0 
        0.1687144000         0.1541275509

  2 0
s   3 1.0 
       18.7311370000         0.2149354183
        2.8253937000         0.3645711272
        0.6401217000         0.4150514277
s   1 1.0 
        0.1612778000         0.1813806839

  3 0
s   6 1.0 
     3047.5249000000         0.5363343823
      457.3695100000         0.9894506076
      103.9486900000         1.5972822308
       29.2101550000         2.0791870615
        9.2866630000         1.7741742532
        3.1639270000         0.6125798260
s   3 1.0 
        7.8682724000        -0.3995563516
        1.8812885000        -0.1841552393
        0.5442493000         0.5163903794
p   3 1.0 
        7.8682724000         1.2960827175
        1.8812885000         0.9937536282
        0.5442493000         0.4959527138
s   1 1.0 
        0.1687144000         0.1876178721
p   1 1.0 
        0.1687144000         0.1541275509

  4 0
s   6 1.0 
     3047.5249000000         0.5363343823
      457.3695100000         0.9894506076
      103.9486900000         1.5972822308
       29.2101550000         2.0791870615
        9.2866630000         1.7741742532
        3.1639270000         0.6125798260
s   3 1.0 
        7.8682724000        -0.3995563516
        1.8812885000        -0.1841552393
        0.5442493000         0.5163903794
p   3 1.0 
        7.8682724000         1.2960827175
        1.8812885000         0.9937536282
        0.5442493000         0.4959527138
s   1 1.0 
        0.1687144000         0.1876178721
p   1 1.0 
        0.1687144000         0.1541275509

  5 0
s   6 1.0 
     3047.5249000000         0.5363343823
      457.3695100000         0.9894506076
      103.9486900000         1.5972822308
       29.2101550000         2.0791870615
        9.2866630000         1.7741742532
        3.1639270000         0.6125798260
s   3 1.0 
        7.8682724000        -0.3995563516
        1.8812885000        -0.1841552393
        0.5442493000         0.5163903794
p   3 1.0 
        7.8682724000         1.2960827175
        1.8812885000         0.9937536282
        0.5442493000         0.4959527138
s   1 1.0 
        0.1687144000         0.1876178721
p   1 1.0 
        0.1687144000         0.1541275509

  6 0
s   6 1.0 
     3047.5249000000         0.5363343823
      457.3695100000         0.9894506076
      103.9486900000         1.5972822308
       29.2101550000         2.0791870615
        9.2866630000         1.7741742532
        3.1639270000         0.6125798260
s   3 1.0 
        7.8682724000        -0.3995563516
        1.8812885000        -0.1841552393
        0.5442493000         0.5163903794
p   3 1.0 
        7.8682724000         1.2960827175
        1.8812885000         0.9937536282
        0.5442493000         0.4959527138
s   1 1.0 
        0.1687144000         0.1876178721
p   1 1.0 
        0.1687144000         0.1541275509

  7 0
s   3 1.0 
       18.7311370000         0.2149354183
        2.8253937000         0.3645711272
        0.6401217000         0.4150514277
s   1 1.0 
        0.1612778000         0.1813806839

  8 0
s   3 1.0 
       18.7311370000         0.2149354183
        2.8253937000         0.3645711272
        0.6401217000         0.4150514277
s   1 1.0 
        0.1612778000         0.1813806839

  9 0
s   3 1.0 
       18.7311370000         0.2149354183
        2.8253937000         0.3645711272
        0.6401217000         0.4150514277
s   1 1.0 
        0.1612778000         0.1813806839

 10 0
s   3 1.0 
       18.7311370000         0.2149354183
        2.8253937000         0.3645711272
        0.6401217000         0.4150514277
s   1 1.0 
        0.1612778000         0.1813806839

 11 0
s   3 1.0 
       18.7311370000         0.2149354183
        2.8253937000         0.3645711272
        0.6401217000         0.4150514277
s   1 1.0 
        0.1612778000         0.1813806839

 12 0
s   3 1.0 
       18.7311370000         0.2149354183
        2.8253937000         0.3645711272
        0.6401217000         0.4150514277
s   1 1.0 
        0.1612778000         0.1813806839

 13 0
s   3 1.0 
       18.7311370000         0.2149354183
        2.8253937000         0.3645711272
        0.6401217000         0.4150514277
s   1 1.0 
        0.1612778000         0.1813806839

[5D]
[7F]
[9G]
[MO]
 Sym=     1a
 Ene= -1.12365361463651E+01
 Spin= Alpha
 Occup= 2.000000
  1      -0.002356087405
  2      -0.000012635041
  3       0.000010530213
  4       0.000009612470
  5       0.000034720028
  6      -0.000581675916
  7      -0.000110112325
  8      -0.000038065339
  9      -0.000285141817
 10       0.000205089321
 11      -0.000307514137
 12      -0.013972656531
 13       0.000040944886
 14      -0.000010861534
 15      -0.000161922126
 16       0.000052715253
 17      -0.003634445712
 18       0.001070846118
 19       0.002222372553
 20      -0.000944150911
 21      -0.989769369393
 22      -0.024695766947
 23       0.000151667505
 24      -0.000049792637
 25       0.000098918427
 26       0.017274578475
 27      -0.001563769251
 28       0.001041282820
 29      -0.001624642530
 30      -0.099022099938
 31      -0.001463736800
 32       0.000201415073
 33       0.000130313821
 34      -0.000006861331
 35      -0.005505357844
 36      -0.002407036221
 37      -0.002014860284
 38       0.000750587587
 39      -0.051250786790
 40      -0.001065689926
 41       0.000128567135
 42      -0.000071049146
 43       0.000106560218
 44       0.001286917541
 45       0.000317612389
 46       0.000396322336
 47       0.000129959421
 48      -0.000001540814
 49      -0.000100264542
 50       0.000003031111
 51       0.000409775226
 52       0.000202655279
 53      -0.000886383437
 54       0.000086749459
 55      -0.000170475064
 56       0.000259572220
 57      -0.002066539721
 58       0.000060363702
 59      -0.000788730327
 60       0.000027072057
 61      -0.000074579378
 Sym=     1a
 Ene= -1.12359863147611E+01
 Spin= Alpha
 Occup= 2.000000
  1       0.054211708104
  2       0.000562179987
  3       0.000034211048
  4       0.000185424585
  5      -0.000135946207
  6       0.005229596552
  7       0.000606189593
  8      -0.002013776612
  9       0.001834245069
 10      -0.000092495962
 11       0.000606875414
 12      -0.001021075009
 13      -0.000025939518
 14       0.000045442078
 15       0.000048288439
 16      -0.000031326552
 17      -0.000373023632
 18       0.000178624020
 19      -0.000039023569
 20       0.000374816775
 21      -0.055826072290
 22      -0.001706034067
 23       0.000179348813
 24       0.000029411884
 25       0.000110178823
 26       0.001284749292
 27      -0.000843870988
 28      -0.000233032161
 29      -0.000441765946
 30       0.042588635576
 31       0.000519368535
 32       0.000144942674
 33      -0.000053082362
 34       0.000120944257
 35       0.003006381314
 36      -0.001710506840
 37       0.001033333138
 38      -0.001626604956
 39       0.992176750944
 40       0.024850102827
 41       0.000166053484
 42       0.000105258572
 43      -0.000035280061
 44      -0.017095861316
 45      -0.001442563633
 46      -0.001470914632
 47      -0.000363967375
 48      -0.000083615112
 49       0.000495232251
 50      -0.000267042657
 51      -0.000127866535
 52       0.000031306810
 53      -0.000104191419
 54       0.000006748912
 55      -0.000027637484
 56       0.000068276817
 57       0.000317021889
 58      -0.000081731736
 59       0.000288256056
 60      -0.000248680375
 61       0.002190667735
 Sym=     1a
 Ene= -1.12281080429779E+01
 Spin= Alpha
 Occup= 2.000000
  1      -0.006766866495
  2      -0.000300037879
  3      -0.000039142431
  4       0.000115946256
  5      -0.000158997530
  6      -0.000864692790
  7      -0.000227751655
  8      -0.000012564368
  9       0.000135977614
 10       0.000043324238
 11       0.000176189068
 12      -0.002763791746
 13      -0.000071063909
 14       0.000099793502
 15       0.000101455951
 16      -0.000102688852
 17      -0.001674974913
 18       0.000354352701
 19       0.000646110409
 20      -0.000003202669
 21      -0.097152758937
 22      -0.003434252792
 23       0.000226697059
 24       0.000024367560
 25       0.000068067560
 26       0.009314162318
 27      -0.003311688063
 28       0.000153835510
 29      -0.001705894062
 30       0.990315775064
 31       0.025146928514
 32       0.000155288881
 33       0.000151555250
 34      -0.000271793303
 35      -0.019565485884
 36      -0.001565475167
 37      -0.002532579382
 38       0.002368057341
 39      -0.047795165550
 40      -0.001833040641
 41      -0.000131488999
 42       0.000041912818
 43      -0.000111680706
 44       0.006183478426
 45       0.002486905259
 46      -0.000025096433
 47       0.001721890633
 48       0.000052867028
 49       0.000317896259
 50      -0.000035135440
 51       0.000259728535
 52       0.000003962490
 53      -0.000144369332
 54       0.000062650242
 55       0.000190088253
 56      -0.000023265324
 57       0.000306680383
 58      -0.000287021123
 59       0.001683529575
 60      -0.000082434949
 61       0.000346026027
 Sym=     1a
 Ene= -1.12210356964924E+01
 Spin= Alpha
 Occup= 2.000000
  1      -0.994644743359
  2      -0.024939819650
  3      -0.000121437075
  4       0.000204751916
  5      -0.000045897933
  6       0.016819071906
  7       0.000559353919
  8      -0.001675509709
  9       0.000879714757
 10       0.000159853144
 11      -0.001452442507
 12       0.000401408928
 13       0.000071560895
 14      -0.000129692952
 15       0.000012910721
 16       0.000068572681
 17       0.000043698630
 18       0.000592554253
 19       0.000085915023
 20      -0.000951544514
 21      -0.000058028561
 22      -0.000058751626
 23      -0.000035406978
 24       0.000018341966
 25      -0.000027045981
 26       0.000399506985
 27       0.000197652166
 28       0.000508812053
 29      -0.000219552469
 30      -0.004169315678
 31      -0.000010290671
 32      -0.000069541808
 33       0.000081706264
 34      -0.000090039849
 35       0.000369238822
 36       0.000279273252
 37      -0.000078780674
 38       0.000230275643
 39       0.055087932708
 40       0.002194473596
 41      -0.000033300886
 42       0.000276638509
 43      -0.000130125642
 44      -0.006831312521
 45       0.000015553021
 46      -0.002761460461
 47       0.001437943872
 48       0.000203782426
 49      -0.002670746725
 50       0.000095575668
 51      -0.002745833549
 52       0.000008980820
 53       0.000601686806
 54      -0.000055557612
 55      -0.000390144776
 56       0.000010975338
 57       0.000062853814
 58      -0.000039302827
 59      -0.000246160051
 60       0.000117102042
 61       0.000003896100
 Sym=     1a
 Ene= -1.12133598881017E+01
 Spin= Alpha
 Occup= 2.000000
  1       0.000399853956
  2      -0.000056536799
  3      -0.000089950382
  4      -0.000016297219
  5      -0.000125862040
  6       0.000320895608
  7       0.000418280397
  8      -0.000224336343
  9       0.000839600087
 10       0.000074943139
 11       0.003327236177
 12       0.996100254391
 13       0.026187311818
 14      -0.000101120796
 15      -0.000009729103
 16       0.000065054936
 17      -0.019279979358
 18       0.000715292517
 19       0.000735059562
 20      -0.000533298296
 21      -0.014374539488
 22      -0.000788251159
 23      -0.000080736450
 24      -0.000105362114
 25       0.000070815478
 26       0.004096176847
 27       0.001483532698
 28       0.002180031842
 29      -0.001268444126
 30       0.001391233105
 31      -0.000174756674
 32      -0.000118600683
 33      -0.000087714109
 34       0.000027680970
 35       0.000706530325
 36       0.000722776399
 37       0.000451721007
 38      -0.000058768781
 39       0.000152712772
 40       0.000008752333
 41      -0.000066046827
 42      -0.000044650496
 43      -0.000014110570
 44      -0.000619866212
 45      -0.000160239058
 46      -0.000401323898
 47       0.000059772090
 48       0.000084300521
 49       0.000532553585
 50      -0.000036388252
 51      -0.000177675566
 52       0.000072792056
 53       0.003343656380
 54       0.000029798855
 55       0.003075415598
 56      -0.000146421676
 57       0.000016129316
 58       0.000035615792
 59       0.000460736457
 60      -0.000022347465
 61      -0.000015514919
 Sym=     1a
 Ene= -1.10302222797342E+00
 Spin= Alpha
 Occup= 2.000000
  1       0.074218088275
  2      -0.144511343835
  3      -0.011183783676
  4       0.054563810769
  5      -0.033994096312
  6      -0.098997717915
  7      -0.001288848821
  8       0.002839278759
  9       0.001801982211
 10      -0.040961927066
 11      -0.000577575357
 12       0.070542488230
 13      -0.130355231328
 14       0.025445344624
 15       0.033076564310
 16      -0.016871883283
 17      -0.124798342321
 18       0.014629809112
 19       0.003931800955
 20      -0.000163018674
 21       0.113886547789
 22      -0.226152967566
 23       0.064810129935
 24       0.001900149231
 25       0.027464498472
 26      -0.135793017126
 27      -0.001055951994
 28       0.004059392526
 29      -0.003398533381
 30       0.125029547731
 31      -0.246581337461
 32      -0.040421081516
 33      -0.040931397016
 34       0.032447331396
 35      -0.162879198956
 36      -0.000678031985
 37      -0.003264459092
 38       0.005573990054
 39       0.109575051333
 40      -0.217078705254
 41      -0.038761418915
 42      -0.026281410726
 43      -0.012017894072
 44      -0.138264633940
 45      -0.006466774951
 46      -0.000417073820
 47      -0.002923394294
 48      -0.032429484770
 49      -0.001263962193
 50      -0.039512923483
 51      -0.006664070397
 52      -0.035977461402
 53      -0.000135294098
 54      -0.032264042174
 55      -0.005811801732
 56      -0.052096392800
 57      -0.004069218582
 58      -0.057203563723
 59      -0.007483386451
 60      -0.052777569279
 61      -0.008274730698
 Sym=     1a
 Ene= -1.01900966365683E+00
 Spin= Alpha
 Occup= 2.000000
  1      -0.122236245138
  2       0.239709429114
  3      -0.003097471688
  4      -0.078095712680
  5       0.033874546574
  6       0.186446122164
  7       0.001905143806
  8      -0.003351147982
  9       0.004085505527
 10      -0.051895853950
 11      -0.005340821935
 12       0.099501765936
 13      -0.189502399300
 14       0.011981359325
 15       0.031456149654
 16      -0.023311811769
 17      -0.176681836965
 18      -0.000365415254
 19       0.001154671250
 20      -0.003546003387
 21       0.101184998337
 22      -0.201099405937
 23      -0.002552493190
 24      -0.022762521590
 25       0.019295105866
 26      -0.148915154185
 27      -0.000202410731
 28      -0.005398324434
 29       0.004802439491
 30       0.019610156522
 31      -0.038871160067
 32      -0.101553222037
 33      -0.004327802718
 34      -0.044497434571
 35      -0.024139778946
 36      -0.007357400995
 37       0.011203342550
 38      -0.011075264560
 39      -0.117010344623
 40       0.233701169436
 41      -0.018090184651
 42       0.074052048820
 43      -0.055539209743
 44       0.163296891646
 45      -0.009382419411
 46      -0.004699340654
 47      -0.007196081676
 48       0.070352304073
 49       0.016302637920
 50       0.061826735287
 51       0.005840360865
 52      -0.057546561402
 53      -0.005560156111
 54      -0.059145431934
 55      -0.009055761873
 56      -0.062011918659
 57      -0.016476288065
 58      -0.009506277221
 59       0.003552066056
 60       0.070274563186
 61       0.012181696203
 Sym=     1a
 Ene= -9.41738683839475E-01
 Spin= Alpha
 Occup= 2.000000
  1      -0.079836846395
  2       0.155742851815
  3       0.002366590842
  4      -0.009194615097
  5       0.001588924493
  6       0.139143811461
  7       0.006229062012
  8       0.001840950719
  9       0.000152618867
 10       0.099455209180
 11       0.021479116370
 12      -0.137825849541
 13       0.258757130390
 14       0.010145477792
 15       0.021277375913
 16      -0.012071123256
 17       0.293188477140
 18      -0.006093587355
 19       0.001816932888
 20      -0.000959550335
 21       0.029995462327
 22      -0.056540777333
 23       0.128353078345
 24       0.113461153218
 25      -0.041790111531
 26      -0.074786384471
 27       0.018968972922
 28       0.008704861860
 29      -0.000653246505
 30       0.119381252909
 31      -0.237458562053
 32      -0.035502371249
 33       0.013794037153
 34      -0.013646105731
 35      -0.186351512891
 36       0.004923545374
 37       0.016017197700
 38      -0.005891662380
 39      -0.000660096464
 40       0.000226498347
 41      -0.044676841028
 42       0.089502478895
 43      -0.086279268480
 44      -0.002554498715
 45      -0.012929499723
 46       0.005643139977
 47      -0.015047115656
 48       0.057940083894
 49       0.018459099139
 50       0.062063161077
 51       0.018661396709
 52       0.099215424341
 53       0.024136102567
 54       0.100079635767
 55       0.027972000370
 56      -0.020890798670
 57      -0.007590561485
 58      -0.090762937579
 59      -0.024969815288
 60      -0.004063749008
 61      -0.005461304108
 Sym=     1a
 Ene= -8.12895198879503E-01
 Spin= Alpha
 Occup= 2.000000
  1      -0.102075422023
  2       0.203106292686
  3      -0.005315483677
  4       0.079155848972
  5      -0.047502331845
  6       0.191213730661
  7      -0.000922193924
  8       0.031815982689
  9      -0.018265176363
 10      -0.057387345668
 11      -0.022702716188
 12       0.061461635008
 13      -0.116822178067
 14      -0.030651578755
 15      -0.065111135929
 16       0.043072102677
 17      -0.147928611120
 18      -0.016295498389
 19      -0.015308146835
 20       0.008517625119
 21      -0.092013152272
 22       0.184558221934
 23      -0.014559219011
 24      -0.069881562220
 25       0.058759796500
 26       0.179678133173
 27       0.014890354143
 28      -0.013062165907
 29       0.019524181974
 30       0.028300825156
 31      -0.058966111192
 32       0.196384087141
 33       0.023463356749
 34       0.092188658427
 35      -0.048151684355
 36       0.046309828236
 37       0.006977388514
 38       0.020204892161
 39       0.085982644510
 40      -0.175651633204
 41      -0.015406749481
 42       0.150801182653
 43      -0.084064241561
 44      -0.163444654708
 45      -0.001149186934
 46       0.050098599246
 47      -0.023632013665
 48       0.113504165893
 49       0.048441760513
 50       0.109178240004
 51       0.041903528330
 52      -0.061295388152
 53      -0.024602899029
 54      -0.064692210672
 55      -0.021769704020
 56       0.107882531321
 57       0.043417143246
 58      -0.037304775618
 59      -0.016632878818
 60      -0.109400149685
 61      -0.045424652292
 Sym=     1a
 Ene= -7.19492143239039E-01
 Spin= Alpha
 Occup= 2.000000
  1       0.037442288776
  2      -0.074420626695
  3      -0.068414697724
  4      -0.195438042502
  5       0.015957051385
  6      -0.079086529590
  7      -0.024831271553
  8      -0.063196317583
  9       0.008144287581
 10      -0.078014228110
 11      -0.042032730389
 12       0.019483622417
 13      -0.033051639980
 14       0.033420133610
 15      -0.111671319203
 16       0.097377781378
 17      -0.058910653335
 18       0.017847470208
 19      -0.040435283797
 20       0.035899120039
 21      -0.074119426036
 22       0.150799960275
 23       0.178531268795
 24      -0.001079299742
 25       0.056757288911
 26       0.157546189218
 27       0.073425193249
 28      -0.008777956495
 29       0.028081872797
 30       0.078689566749
 31      -0.160777044495
 32       0.029258363640
 33       0.030186181581
 34      -0.028705299835
 35      -0.158537000783
 36       0.027991797868
 37       0.034583488894
 38      -0.019030069930
 39      -0.069642137618
 40       0.141208736522
 41      -0.128387518449
 42      -0.025243461186
 43      -0.128678873649
 44       0.141027655529
 45      -0.049788782233
 46      -0.037773806064
 47      -0.036481902673
 48      -0.038068619610
 49      -0.018636082699
 50      -0.141352294072
 51      -0.086367427752
 52      -0.055245865324
 53      -0.029749290513
 54      -0.000615921963
 55       0.001811611325
 56       0.151688386907
 57       0.076403392446
 58      -0.102439987541
 59      -0.041745840498
 60       0.140652164320
 61       0.067780612113
 Sym=     1a
 Ene= -6.68367608955470E-01
 Spin= Alpha
 Occup= 2.000000
  1       0.021979003808
  2      -0.043707402708
  3       0.102560325056
  4      -0.083391730186
  5       0.158310363697
  6      -0.061234879552
  7       0.044560895341
  8      -0.020646762124
  9       0.056859934386
 10       0.015420259969
 11       0.010213264952
 12       0.017888084040
 13      -0.033449873625
 14      -0.143260476214
 15      -0.070139792113
 16       0.002787282912
 17      -0.052297195646
 18      -0.066674762608
 19      -0.024490649308
 20      -0.004316303583
 21      -0.022929560381
 22       0.047758964128
 23      -0.118837695390
 24       0.094577342016
 25      -0.118169908129
 26       0.033871379370
 27      -0.031303011275
 28       0.038017349702
 29      -0.041847432950
 30       0.021873878377
 31      -0.041930925763
 32       0.093356205749
 33       0.233654143910
 34      -0.151215348016
 35      -0.059376035800
 36       0.039517049126
 37       0.098020002139
 38      -0.059677058902
 39      -0.024542193731
 40       0.052018886834
 41       0.124055304615
 42       0.138398435890
 43       0.031613630244
 44       0.046694293147
 45       0.042147752242
 46       0.043646321588
 47       0.008667453041
 48      -0.134326179236
 49      -0.084492291209
 50      -0.003171013946
 51      -0.007748017559
 52      -0.026202224585
 53      -0.015517085689
 54      -0.099845828179
 55      -0.059437890530
 56      -0.083543448994
 57      -0.058235430277
 58      -0.188040048494
 59      -0.113868091575
 60      -0.080108276974
 61      -0.058365248539
 Sym=     1a
 Ene= -6.01279503386160E-01
 Spin= Alpha
 Occup= 2.000000
  1       0.008228077366
  2      -0.018267828013
  3      -0.155848359420
  4      -0.099108626946
  5      -0.219659538284
  6      -0.031339884983
  7      -0.069713329430
  8      -0.047337470601
  9      -0.102300789332
 10       0.088074054773
 11       0.060117028142
 12      -0.010994819499
 13       0.021453187146
 14      -0.115763226317
 15       0.025718098858
 16      -0.103672005797
 17       0.029998405756
 18      -0.043252923186
 19       0.013485489713
 20      -0.049113263958
 21      -0.003261794433
 22       0.008790614852
 23      -0.249910381151
 24      -0.004797479797
 25      -0.112758781179
 26       0.004338439144
 27      -0.105058788419
 28       0.007627600052
 29      -0.058068840408
 30      -0.009595719804
 31       0.022041528582
 32       0.221718253380
 33       0.035037652402
 34       0.033026671964
 35      -0.014415207100
 36       0.063905220333
 37      -0.007951205894
 38       0.013280789094
 39       0.016746544065
 40      -0.038791165832
 41      -0.111119664381
 42      -0.081479189572
 43      -0.151403074247
 44      -0.025801752054
 45      -0.028277022088
 46      -0.020515649402
 47      -0.060416437865
 48       0.148990160178
 49       0.104307319749
 50      -0.142387158843
 51      -0.091840471287
 52       0.014707974624
 53       0.004879119676
 54      -0.059548035367
 55      -0.051103946516
 56      -0.137776378165
 57      -0.095155412664
 58      -0.034787821754
 59      -0.034272341294
 60       0.090560502385
 61       0.072978016862
 Sym=     1a
 Ene= -5.84163039963882E-01
 Spin= Alpha
 Occup= 2.000000
  1      -0.007010640604
  2       0.018915834487
  3       0.005113512348
  4      -0.282438475737
  5       0.170412826079
  6      -0.017403320117
  7      -0.003161004775
  8      -0.102287019178
  9       0.059850300724
 10       0.012888548451
 11       0.007032705616
 12      -0.007297498555
 13       0.009293497598
 14       0.101686690379
 15       0.185642417233
 16      -0.058821393760
 17       0.038133229694
 18       0.044044238699
 19       0.077691344609
 20      -0.021329949320
 21       0.023597946913
 22      -0.047938807052
 23      -0.119288034926
 24      -0.138679279204
 25       0.113637587368
 26      -0.081827467489
 27      -0.045197851770
 28      -0.053278654296
 29       0.050321994631
 30      -0.011443898162
 31       0.023119328145
 32       0.125746546104
 33      -0.047442897444
 34       0.165920117864
 35       0.023524026046
 36       0.045308249873
 37      -0.020968884820
 38       0.072173906702
 39      -0.007661059440
 40       0.018308161332
 41      -0.030563447505
 42       0.304558045148
 43      -0.140248661894
 44      -0.003402874513
 45      -0.004220151809
 46       0.111023030049
 47      -0.038667582539
 48      -0.107247321798
 49      -0.084359740218
 50      -0.100822615450
 51      -0.072889066073
 52       0.073153553258
 53       0.055370604182
 54       0.074955936127
 55       0.054796785813
 56       0.008559030539
 57       0.009610850186
 58       0.072041848469
 59       0.049683473110
 60      -0.091782387481
 61      -0.068085723762
 Sym=     1a
 Ene= -5.68001334525853E-01
 Spin= Alpha
 Occup= 2.000000
  1      -0.004326612909
  2       0.008275603473
  3       0.029371452527
  4      -0.032703351758
  5       0.004272304336
  6       0.010587158115
  7       0.016849634593
  8      -0.008954809853
  9      -0.008885162199
 10       0.149589053514
 11       0.118718923410
 12      -0.000593020438
 13       0.001998109813
 14       0.169860257977
 15      -0.228685111602
 16      -0.298856848051
 17       0.001606017049
 18       0.085772734258
 19      -0.117805791712
 20      -0.149692844704
 21       0.007203612958
 22      -0.012954486337
 23       0.039500294857
 24      -0.105717727238
 25      -0.075792599332
 26      -0.031344598625
 27       0.025758908838
 28      -0.050048340385
 29      -0.037217429905
 30      -0.003914742421
 31       0.006045397710
 32       0.019540613334
 33      -0.044011679306
 34      -0.055584869039
 35       0.019799327024
 36       0.019841634928
 37      -0.023965011223
 38      -0.037693365554
 39       0.001838911992
 40      -0.004838176736
 41       0.060524420582
 42       0.037399015433
 43      -0.011537707748
 44      -0.005364885543
 45       0.032363195454
 46       0.020062274125
 47      -0.006910692356
 48      -0.009709633516
 49      -0.010912008439
 50      -0.011084215882
 51      -0.019123465743
 52      -0.248542170120
 53      -0.193653159842
 54       0.123342990450
 55       0.093958204400
 56       0.011386572496
 57       0.009925525394
 58       0.003127405517
 59       0.004475737039
 60      -0.042910402919
 61      -0.030378128564
 Sym=     1a
 Ene= -5.43651758317865E-01
 Spin= Alpha
 Occup= 2.000000
  1       0.014420332438
  2      -0.031774095202
  3       0.122297670281
  4       0.069617929186
  5       0.117234232957
  6      -0.018741594099
  7       0.079624853908
  8       0.031910112724
  9       0.071387362743
 10       0.183157824740
 11       0.141830878695
 12       0.006599224413
 13      -0.017662162792
 14      -0.242308615986
 15       0.067694414824
 16      -0.198854965342
 17       0.010939589622
 18      -0.147567874974
 19       0.030007787395
 20      -0.104467523946
 21      -0.007763314792
 22       0.015924243286
 23       0.058703842405
 24      -0.111805781427
 25       0.080507393063
 26       0.012329246908
 27       0.042958899737
 28      -0.073599479207
 29       0.055543819128
 30       0.034836965440
 31      -0.077629470822
 32       0.032123947968
 33      -0.103807128102
 34       0.069954836918
 35      -0.069930623775
 36       0.017531704820
 37      -0.023408968174
 38       0.008427589231
 39      -0.007807186764
 40       0.014577384021
 41      -0.117113724968
 42      -0.089148662149
 43      -0.092171616202
 44       0.012446262414
 45      -0.072816507885
 46      -0.065454279584
 47      -0.056561973811
 48      -0.126996123802
 49      -0.089978775651
 50       0.106595264687
 51       0.082212072082
 52       0.028821867212
 53       0.022789699512
 54      -0.171059670493
 55      -0.130322666353
 56       0.106055442060
 57       0.068633045407
 58       0.030809705882
 59       0.040373590399
 60       0.126023350545
 61       0.085654271183
 Sym=     1a
 Ene= -5.07698951420475E-01
 Spin= Alpha
 Occup= 2.000000
  1       0.011534290508
  2      -0.025636521752