[Molden Format]
[Title]
 Molden file created by orca_2mkl for BaseName=h-shift_085

[Atoms] AU
C    1   6         -0.8696368490         0.0081277121         0.0547378072 
H    2   1          4.1082872919         0.0314148073         0.0523586420 
C    3   6          4.7099571956         0.0195170915         2.0056646117 
C    4   6          3.5062772374        -2.1161209939         3.4401122562 
C    5   6          1.1946168317        -3.0388213528         3.0677965236 
C    6   6         -0.6268429456        -2.2553106621         1.1166240547 
H    7   1         -2.2019334577         0.3243450347        -1.4393231380 
H    8   1          0.2183786418         1.6160975692         0.6266823189 
H    9   1          4.1820999946         1.8320214567         2.8162078348 
H   10   1          6.7503965476        -0.1010398769         2.0560031364 
H   11   1          4.6488888059        -2.9755986753         4.8850913446 
H   12   1          0.5952372760        -4.5961446598         4.2284285205 
H   13   1         -1.8723765583        -3.7375589292         0.4898472495 
[GTO]
  1 0
s   6 1.0 
     3047.5249000000         0.5363343823
      457.3695100000         0.9894506076
      103.9486900000         1.5972822308
       29.2101550000         2.0791870615
        9.2866630000         1.7741742532
        3.1639270000         0.6125798260
s   3 1.0 
        7.8682724000        -0.3995563516
        1.8812885000        -0.1841552393
        0.5442493000         0.5163903794
p   3 1.0 
        7.8682724000         1.2960827175
        1.8812885000         0.9937536282
        0.5442493000         0.4959527138
s   1 1.0 
        0.1687144000         0.1876178721
p   1 1.0 
        0.1687144000         0.1541275509

  2 0
s   3 1.0 
       18.7311370000         0.2149354183
        2.8253937000         0.3645711272
        0.6401217000         0.4150514277
s   1 1.0 
        0.1612778000         0.1813806839

  3 0
s   6 1.0 
     3047.5249000000         0.5363343823
      457.3695100000         0.9894506076
      103.9486900000         1.5972822308
       29.2101550000         2.0791870615
        9.2866630000         1.7741742532
        3.1639270000         0.6125798260
s   3 1.0 
        7.8682724000        -0.3995563516
        1.8812885000        -0.1841552393
        0.5442493000         0.5163903794
p   3 1.0 
        7.8682724000         1.2960827175
        1.8812885000         0.9937536282
        0.5442493000         0.4959527138
s   1 1.0 
        0.1687144000         0.1876178721
p   1 1.0 
        0.1687144000         0.1541275509

  4 0
s   6 1.0 
     3047.5249000000         0.5363343823
      457.3695100000         0.9894506076
      103.9486900000         1.5972822308
       29.2101550000         2.0791870615
        9.2866630000         1.7741742532
        3.1639270000         0.6125798260
s   3 1.0 
        7.8682724000        -0.3995563516
        1.8812885000        -0.1841552393
        0.5442493000         0.5163903794
p   3 1.0 
        7.8682724000         1.2960827175
        1.8812885000         0.9937536282
        0.5442493000         0.4959527138
s   1 1.0 
        0.1687144000         0.1876178721
p   1 1.0 
        0.1687144000         0.1541275509

  5 0
s   6 1.0 
     3047.5249000000         0.5363343823
      457.3695100000         0.9894506076
      103.9486900000         1.5972822308
       29.2101550000         2.0791870615
        9.2866630000         1.7741742532
        3.1639270000         0.6125798260
s   3 1.0 
        7.8682724000        -0.3995563516
        1.8812885000        -0.1841552393
        0.5442493000         0.5163903794
p   3 1.0 
        7.8682724000         1.2960827175
        1.8812885000         0.9937536282
        0.5442493000         0.4959527138
s   1 1.0 
        0.1687144000         0.1876178721
p   1 1.0 
        0.1687144000         0.1541275509

  6 0
s   6 1.0 
     3047.5249000000         0.5363343823
      457.3695100000         0.9894506076
      103.9486900000         1.5972822308
       29.2101550000         2.0791870615
        9.2866630000         1.7741742532
        3.1639270000         0.6125798260
s   3 1.0 
        7.8682724000        -0.3995563516
        1.8812885000        -0.1841552393
        0.5442493000         0.5163903794
p   3 1.0 
        7.8682724000         1.2960827175
        1.8812885000         0.9937536282
        0.5442493000         0.4959527138
s   1 1.0 
        0.1687144000         0.1876178721
p   1 1.0 
        0.1687144000         0.1541275509

  7 0
s   3 1.0 
       18.7311370000         0.2149354183
        2.8253937000         0.3645711272
        0.6401217000         0.4150514277
s   1 1.0 
        0.1612778000         0.1813806839

  8 0
s   3 1.0 
       18.7311370000         0.2149354183
        2.8253937000         0.3645711272
        0.6401217000         0.4150514277
s   1 1.0 
        0.1612778000         0.1813806839

  9 0
s   3 1.0 
       18.7311370000         0.2149354183
        2.8253937000         0.3645711272
        0.6401217000         0.4150514277
s   1 1.0 
        0.1612778000         0.1813806839

 10 0
s   3 1.0 
       18.7311370000         0.2149354183
        2.8253937000         0.3645711272
        0.6401217000         0.4150514277
s   1 1.0 
        0.1612778000         0.1813806839

 11 0
s   3 1.0 
       18.7311370000         0.2149354183
        2.8253937000         0.3645711272
        0.6401217000         0.4150514277
s   1 1.0 
        0.1612778000         0.1813806839

 12 0
s   3 1.0 
       18.7311370000         0.2149354183
        2.8253937000         0.3645711272
        0.6401217000         0.4150514277
s   1 1.0 
        0.1612778000         0.1813806839

 13 0
s   3 1.0 
       18.7311370000         0.2149354183
        2.8253937000         0.3645711272
        0.6401217000         0.4150514277
s   1 1.0 
        0.1612778000         0.1813806839

[5D]
[7F]
[9G]
[MO]
 Sym=     1a
 Ene= -1.12360701336181E+01
 Spin= Alpha
 Occup= 2.000000
  1       0.058407562502
  2       0.000607149468
  3       0.000000694484
  4       0.000174660410
  5      -0.000111908667
  6       0.005545081076
  7       0.000946580029
  8      -0.001995740160
  9       0.001767576201
 10      -0.000100880052
 11       0.000560024489
 12       0.000268929623
 13      -0.000015008858
 14       0.000049315921
 15       0.000045205569
 16      -0.000024056674
 17       0.000033814268
 18      -0.000017474801
 19      -0.000208871527
 20       0.000440498312
 21       0.029223327885
 22       0.000479370902
 23       0.000169258294
 24       0.000041066846
 25       0.000121880072
 26      -0.000530528204
 27      -0.000505760745
 28      -0.000400305778
 29      -0.000244989004
 30       0.045547220506
 31       0.000478638662
 32       0.000133038794
 33      -0.000067728017
 34       0.000124686504
 35       0.003898024211
 36      -0.001498496025
 37       0.001371217110
 38      -0.001806023863
 39       0.992941388512
 40       0.024857375456
 41       0.000101665141
 42       0.000160267542
 43       0.000010581252
 44      -0.017339040108
 45      -0.001454986913
 46      -0.001778352556
 47      -0.000666817811
 48      -0.000081084671
 49       0.000494736591
 50      -0.000275460846
 51      -0.000320485202
 52       0.000004208562
 53      -0.000015429700
 54       0.000000670958
 55      -0.000000417959
 56       0.000042648092
 57       0.000471810423
 58      -0.000084550525
 59       0.000438891629
 60      -0.000267166208
 61       0.002062091859
 Sym=     1a
 Ene= -1.12351749620540E+01
 Spin= Alpha
 Occup= 2.000000
  1       0.002528309795
  2       0.000068146128
  3       0.000026332199
  4       0.000028134729
  5       0.000033872587
  6      -0.000217014764
  7      -0.000197629572
  8      -0.000141174816
  9      -0.000177829196
 10       0.000200210617
 11      -0.000087651385
 12      -0.016379769257
 13       0.000003571896
 14      -0.000014558253
 15      -0.000160448433
 16       0.000040075884
 17      -0.003658245805
 18       0.001246518130
 19       0.002166697993
 20      -0.000741379066
 21      -0.989910198497
 22      -0.024715213951
 23       0.000144558215
 24      -0.000021172143
 25       0.000089454227
 26       0.017206184693
 27      -0.001394845912
 28       0.000861918209
 29      -0.001766080251
 30      -0.104520428944
 31      -0.001612095852
 32       0.000224276934
 33       0.000128730699
 34       0.000001519012
 35      -0.005236705089
 36      -0.002449783163
 37      -0.002005089254
 38       0.000644169734
 39       0.033840990281
 40       0.001003145805
 41       0.000148795757
 42      -0.000032536413
 43       0.000116495895
 44       0.000145740705
 45       0.000333399476
 46       0.000236263741
 47       0.000090213633
 48      -0.000012202113
 49      -0.000108958515
 50       0.000007375005
 51       0.000344080591
 52       0.000199011191
 53      -0.000900833028
 54       0.000092472100
 55      -0.000196987123
 56       0.000267096778
 57      -0.002078622374
 58       0.000048709854
 59      -0.000804703344
 60      -0.000003741135
 61       0.000071430310
 Sym=     1a
 Ene= -1.12273547855689E+01
 Spin= Alpha
 Occup= 2.000000
  1      -0.007994849744
  2      -0.000361606531
  3      -0.000057911544
  4       0.000129919908
  5      -0.000155827660
  6      -0.000754182822
  7      -0.000207403398
  8      -0.000137799242
  9       0.000161426154
 10       0.000065644947
 11       0.000183174522
 12      -0.003794997834
 13      -0.000075333451
 14       0.000106211433
 15       0.000113386268
 16      -0.000090778225
 17      -0.001795154924
 18       0.000543198602
 19       0.000648952358
 20      -0.000033072081
 21      -0.106487985024
 22      -0.003707253751
 23       0.000226585955
 24       0.000035209814
 25       0.000095345981
 26       0.009482653045
 27      -0.003190084250
 28       0.000185203395
 29      -0.002062639119
 30       0.989607017478
 31       0.025126954698
 32       0.000124845984
 33       0.000170382410
 34      -0.000180391401
 35      -0.019549014027
 36      -0.001379086615
 37      -0.002686189655
 38       0.002113647182
 39      -0.042028879955
 40      -0.001696521966
 41      -0.000122427104
 42       0.000035089849
 43      -0.000109033768
 44       0.005980262750
 45       0.002525845452
 46       0.000052785757
 47       0.001745193778
 48       0.000044394196
 49       0.000329471655
 50      -0.000041287749
 51       0.000317736077
 52       0.000042264879
 53      -0.000149160748
 54       0.000058728840
 55       0.000109727096
 56       0.000004277578
 57       0.000345194859
 58      -0.000298245606
 59       0.001706478815
 60      -0.000066160154
 61       0.000345544194
 Sym=     1a
 Ene= -1.12218063109260E+01
 Spin= Alpha
 Occup= 2.000000
  1      -0.994384761219
  2      -0.024783471912
  3      -0.000063551241
  4       0.000200834872
  5      -0.000059536247
  6       0.016528849288
  7       0.000400889015
  8      -0.001673809500
  9       0.000813425402
 10       0.000153432840
 11      -0.000973211395
 12       0.000371167944
 13       0.000034757799
 14      -0.000083045548
 15       0.000011159123
 16       0.000060630908
 17      -0.000022898411
 18       0.000296641074
 19       0.000049862428
 20      -0.000687228252
 21       0.000041607293
 22      -0.000018865848
 23      -0.000037589069
 24       0.000018790351
 25      -0.000020031862
 26       0.000035345679
 27       0.000356004016
 28       0.000383177955
 29      -0.000123896446
 30      -0.005529670394
 31      -0.000028713641
 32      -0.000066441089
 33       0.000080183860
 34      -0.000083827820
 35       0.000495275930
 36       0.000355016514
 37       0.000032002379
 38       0.000249191288
 39       0.059332905589
 40       0.002322389841
 41      -0.000038875802
 42       0.000297880248
 43      -0.000122246545
 44      -0.006837909436
 45       0.000252910749
 46      -0.002843891537
 47       0.001291560590
 48       0.000210592149
 49      -0.002656108668
 50       0.000149849375
 51      -0.002742131938
 52      -0.000030905428
 53       0.000483608986
 54      -0.000009431239
 55      -0.000204049853
 56       0.000005928219
 57       0.000009980446
 58      -0.000035049436
 59      -0.000196253495
 60       0.000114221469
 61       0.000005423345
 Sym=     1a
 Ene= -1.12159015471287E+01
 Spin= Alpha
 Occup= 2.000000
  1      -0.000366125013
  2       0.000017671105
  3       0.000088045556
  4       0.000001871345
  5       0.000094831762
  6      -0.000260303005
  7      -0.000398449643
  8       0.000321963427
  9      -0.000572195793
 10      -0.000073732530
 11      -0.003204256813
 12      -0.996063833030
 13      -0.026115530311
 14       0.000056678559
 15      -0.000013208457
 16      -0.000069484725
 17       0.019218248403
 18      -0.000615933430
 19      -0.000718727857
 20       0.000633267085
 21       0.016856346567
 22       0.000854901099
 23       0.000083579012
 24       0.000113934160
 25      -0.000082622279
 26      -0.004052668784
 27      -0.001612455288
 28      -0.002260939159
 29       0.001334357435
 30      -0.002038393867
 31       0.000137419367
 32       0.000130134356
 33       0.000098433608
 34      -0.000029671781
 35      -0.000581709529
 36      -0.000819143350
 37      -0.000377370040
 38      -0.000117177107
 39      -0.000116159109
 40      -0.000023971670
 41       0.000052214867
 42       0.000037600038
 43       0.000013220858
 44       0.000422482941
 45       0.000087141371
 46       0.000445306705
 47      -0.000176415273
 48      -0.000046208175
 49      -0.000450844714
 50       0.000051940874
 51      -0.000011499750
 52      -0.000070584432
 53      -0.003304797697
 54      -0.000044270254
 55      -0.003129498841
 56       0.000124284461
 57      -0.000087211632
 58      -0.000028650600
 59      -0.000421172593
 60       0.000028717188
 61       0.000028001574
 Sym=     1a
 Ene= -1.09909282710850E+00
 Spin= Alpha
 Occup= 2.000000
  1       0.075889794419
  2      -0.148381551638
  3      -0.013627394125
  4       0.057477156311
  5      -0.032234905982
  6      -0.100834396270
  7      -0.000015010057
  8       0.003190209326
  9       0.001042989798
 10      -0.037654326349
 11      -0.001914869435
 12       0.067464351127
 13      -0.125493386176
 14       0.024744866367
 15       0.031148350193
 16      -0.016853241020
 17      -0.118751469297
 18       0.011383939913
 19       0.003565702616
 20      -0.001062548488
 21       0.113544332673
 22      -0.225467129262
 23       0.062041733751
 24       0.007083853049
 25       0.027725238297
 26      -0.137439311262
 27      -0.000279136418
 28       0.004462728218
 29      -0.004785581405
 30       0.126265859260
 31      -0.249162701177
 32      -0.036634864205
 33      -0.041771992166
 34       0.023917548277
 35      -0.164031153023
 36       0.000425827476
 37      -0.004155008103
 38       0.004932636447
 39       0.110947048049
 40      -0.220209966352
 41      -0.033120486120
 42      -0.031183096809
 43      -0.014303369306
 44      -0.139546528409
 45      -0.005335049856
 46       0.000261687983
 47      -0.003565750040
 48      -0.033400908273
 49      -0.001899730532
 50      -0.039767863146
 51      -0.007266941424
 52      -0.034183731341
 53      -0.000289942685
 54      -0.031674816914
 55      -0.004681160620
 56      -0.053388895612
 57      -0.004374749978
 58      -0.059828593347
 59      -0.008760730308
 60      -0.053402463959
 61      -0.008259101560
 Sym=     1a
 Ene= -1.02198485969244E+00
 Spin= Alpha
 Occup= 2.000000
  1      -0.121116949157
  2       0.237760598722
  3       0.001587245503
  4      -0.078833452683
  5       0.032081306427
  6       0.182905804365
  7       0.002078833695
  8      -0.002953330088
  9       0.003816349918
 10      -0.054651942088
 11      -0.005562616797
 12       0.100571718023
 13      -0.191093702335
 14       0.014012386732
 15       0.029730339189
 16      -0.022434171462
 17      -0.179153523830
 18      -0.000597676820
 19       0.000878880580
 20      -0.003378813577
 21       0.102140867608
 22      -0.202697748692
 23      -0.004094745552
 24      -0.019986001804
 25       0.018300550128
 26      -0.147875455641
 27      -0.001907140752
 28      -0.006039652869
 29       0.004794619801
 30       0.021405922892
 31      -0.042635913517
 32      -0.100975922081
 33      -0.007686745843
 34      -0.047770880300
 35      -0.027121896701
 36      -0.008375650050
 37       0.011566760990
 38      -0.013029161990
 39      -0.115248694167
 40       0.230146634390
 41      -0.025453244065
 42       0.077589402142
 43      -0.048492945073
 44       0.158778771150
 45      -0.011252454581
 46      -0.004242098972
 47      -0.006463006179
 48       0.068970789100
 49       0.015721772719
 50       0.061506837069
 51       0.006126047741
 52      -0.058303002953
 53      -0.005599964937
 54      -0.059743240389
 55      -0.008681396511
 56      -0.063031778092
 57      -0.016591469952
 58      -0.010546865524
 59       0.003818264826
 60       0.067894200940
 61       0.011173789219
 Sym=     1a
 Ene= -9.40959668879746E-01
 Spin= Alpha
 Occup= 2.000000
  1       0.079089213474
  2      -0.155095263630
  3       0.000657215173
  4       0.014386027587
  5      -0.002015076938
  6      -0.134903765571
  7      -0.004284562021
  8      -0.002001567967
  9      -0.000034647005
 10      -0.098824241001
 11      -0.022891726801
 12       0.139439239219
 13      -0.262706654140
 14      -0.014700482437
 15      -0.019911643033
 16       0.008659240925
 17      -0.293808618453
 18       0.002937432031
 19      -0.002203261481
 20      -0.001014214458
 21      -0.029766550769
 22       0.055977589872
 23      -0.133318511756
 24      -0.114687164400
 25       0.036789650298
 26       0.074122481903
 27      -0.019294971366
 28      -0.010372268937
 29       0.000406067488
 30      -0.118179557915
 31       0.235107193526
 32       0.036301724752
 33      -0.010963795136
 34       0.023344306299
 35       0.182782743808
 36      -0.005548665612
 37      -0.015117805681
 38       0.007479144726
 39       0.005439185049
 40      -0.009681189402
 41       0.051511896429
 42      -0.087925181629
 43       0.081536136920
 44      -0.006303403038
 45       0.014006213833
 46      -0.005984768780
 47       0.014305893820
 48      -0.057740380793
 49      -0.018602163823
 50      -0.058018422514
 51      -0.016328540499
 52      -0.100033323318
 53      -0.024685040134
 54      -0.101906535252
 55      -0.028003813980
 56       0.020565794738
 57       0.007257196330
 58       0.091307209812
 59       0.025391088047
 60      -0.000000961570
 61       0.003949334133
 Sym=     1a
 Ene= -8.14538870948612E-01
 Spin= Alpha
 Occup= 2.000000
  1       0.102334647608
  2      -0.203796765515
  3       0.012094780448
  4      -0.080998203405
  5       0.041792440933
  6      -0.190113548845
  7       0.004298868846
  8      -0.032017537772
  9       0.015846814465
 10       0.059761029366
 11       0.023361312104
 12      -0.058718893118
 13       0.111119875902
 14       0.034086477842
 15       0.062525713443
 16      -0.044510046966
 17       0.144312532250
 18       0.015271730446
 19       0.014228233972
 20      -0.008158770974
 21       0.091458325382
 22      -0.182830859518
 23       0.017051292516
 24       0.063618220157
 25      -0.059439430506
 26      -0.177233645325
 27      -0.013577973244
 28       0.008330449282
 29      -0.018978456620
 30      -0.031417778031
 31       0.065580475948
 32      -0.194621079991
 33      -0.032490048277
 34      -0.096312596634
 35       0.054904706582
 36      -0.047134304927
 37      -0.008247002917
 38      -0.023079736120
 39      -0.086371343702
 40       0.176406671166
 41       0.023935023610
 42      -0.152164635763
 43       0.083603793937
 44       0.162511856604
 45       0.002142104784
 46      -0.050486384853
 47       0.022505992686
 48      -0.113379568972
 49      -0.048454304520
 50      -0.109585042319
 51      -0.043255128058
 52       0.058775561265
 53       0.023623786203
 54       0.060140460873
 55       0.020418184382
 56      -0.106666225905
 57      -0.043855075840
 58       0.041744684171
 59       0.018958526060
 60       0.108777544453
 61       0.044737857456
 Sym=     1a
 Ene= -7.16165567801161E-01
 Spin= Alpha
 Occup= 2.000000
  1       0.040015216555
  2      -0.080403312898
  3      -0.059332382347
  4      -0.198479751576
  5       0.013667231466
  6      -0.081638243703
  7      -0.017908870565
  8      -0.065820266042
  9       0.008010229026
 10      -0.080612507576
 11      -0.044744223242
 12       0.022630517581
 13      -0.040534545014
 14       0.014963165170
 15      -0.108106424143
 16       0.104153406519
 17      -0.065156957879
 18       0.007977609475
 19      -0.038701877589
 20       0.037179124933
 21      -0.073597926574
 22       0.149806368732
 23       0.169477830371
 24       0.005759601389
 25       0.077528032546
 26       0.152984968798
 27       0.073069083166
 28      -0.003544020928
 29       0.037436673131
 30       0.077607013747
 31      -0.158827065355
 32       0.030100605432
 33       0.029512763799
 34      -0.027132756735
 35      -0.152092067574
 36       0.031467480331
 37       0.034870190209
 38      -0.017927904125
 39      -0.069843993923
 40       0.142202521545
 41      -0.135950483206
 42      -0.029304007439
 43      -0.121093251345
 44       0.140571036296
 45      -0.054565022800
 46      -0.041979369667
 47      -0.033827673405
 48      -0.042354857372
 49      -0.020398323664
 50      -0.142156706565
 51      -0.087232158163
 52      -0.052976834681
 53      -0.029477146946
 54      -0.005857398999
 55      -0.000011037444
 56       0.152263452394
 57       0.076951171731
 58      -0.101262995424
 59      -0.041227746247
 60       0.142906536857
 61       0.068522248316
 Sym=     1a
 Ene= -6.66620138430558E-01
 Spin= Alpha
 Occup= 2.000000
  1       0.021428087302
  2      -0.042545658850
  3       0.130359208195
  4      -0.089859137062
  5       0.144326451705
  6      -0.061108543574
  7       0.055332016583
  8      -0.022552297451
  9       0.052099640196
 10       0.016440703307
 11       0.010222159812
 12       0.015917811752
 13      -0.028726635338
 14      -0.137016425398
 15      -0.065678259205
 16      -0.009053780141
 17      -0.049071148105
 18      -0.062074957529
 19      -0.022696105983
 20      -0.011038798804
 21      -0.024066555487
 22       0.050629229208
 23      -0.106803985552
 24       0.085419476570
 25      -0.132249514344
 26       0.036468906614
 27      -0.024727086419
 28       0.036969486921
 29      -0.044634560832
 30       0.019903605637
 31      -0.038426847238
 32       0.092445136165
 33       0.231468647128
 34      -0.155213565628
 35      -0.048916491091
 36       0.040210652115
 37       0.096939363639
 38      -0.062216589937
 39      -0.025540842483
 40       0.054932216832
 41       0.125099531025
 42       0.143113525839
 43       0.027811505629
 44       0.047145885768
 45       0.041011876814
 46       0.044997724890
 47       0.006654743602
 48      -0.139248418971
 49      -0.087226197479
 50       0.000965755815
 51      -0.004549619771
 52      -0.029484906260
 53      -0.016787156891
 54      -0.092049254485
 55      -0.055856872853
 56      -0.082003850033
 57      -0.058244592879
 58      -0.187578930292
 59      -0.114352628040
 60      -0.081068045632
 61      -0.059736827801
 Sym=     1a
 Ene= -6.04997598366219E-01
 Spin= Alpha
 Occup= 2.000000
  1      -0.006872215216
  2       0.015056950605
  3       0.179425052781
  4       0.101475346180
  5       0.179022797353
  6       0.028376936185
  7       0.079578643810
  8       0.046034113596
  9       0.083944749177
 10      -0.106999118624
 11      -0.071693541881
 12       0.009997299362
 13      -0.018888368151
 14       0.104336622872
 15      -0.028730273686
 16       0.142449823214
 17      -0.031090414487
 18       0.041740542528
 19      -0.013043401463
 20       0.066632670436
 21       0.003602350263
 22      -0.010067018134
 23       0.239897948263
 24       0.034004181425
 25       0.131809224613
 26       0.000868929234
 27       0.094731102219
 28       0.007226987317
 29       0.061690793091
 30       0.009798383013
 31      -0.021702677701
 32      -0.228173852427
 33      -0.040389646093
 34      -0.045168691331
 35       0.007932572171
 36      -0.067086691808
 37       0.002322390727
 38      -0.013552577704
 39      -0.013733789949
 40       0.031740583779
 41       0.126364677268
 42       0.061296849400
 43       0.148544367512
 44       0.022944203817
 45       0.037681515054
 46       0.013750741429
 47       0.058911780446
 48      -0.136047728760
 49      -0.094327152524
 50       0.141106647590
 51       0.091282107358
 52      -0.004009820500
 53       0.001838074500
 54       0.060001009909
 55       0.049491773480
 56       0.131319027383
 57       0.092073743909
 58       0.034394412566
 59       0.031623922415
 60      -0.087577050848
 61      -0.069440383840
 Sym=     1a
 Ene= -5.84981930668923E-01
 Spin= Alpha
 Occup= 2.000000
  1       0.007307248998
  2      -0.019530944286
  3      -0.043004756307
  4       0.285637242598
  5      -0.159010137760
  6       0.016650969017
  7      -0.011180006688
  8       0.102075120914
  9      -0.055965673320
 10      -0.019227053959
 11      -0.011218977238
 12       0.006126085429
 13      -0.006631223424
 14      -0.117790463172
 15      -0.177329523919
 16       0.061805791459
 17      -0.036598822532
 18      -0.050457450771
 19      -0.074422908939
 20       0.023220958139
 21      -0.024854266938
 22       0.050740186557
 23       0.108615547112
 24       0.142178763920
 25      -0.119600196314
 26       0.085927139037
 27       0.040674250966
 28       0.056243532227
 29      -0.054130317216
 30       0.009409019441
 31      -0.018390317969
 32      -0.105484368087
 33       0.045115651739
 34      -0.168400900033
 35      -0.018813443852
 36      -0.038665279226
 37       0.018213026423
 38      -0.073009941735
 39       0.008011200702
 40      -0.018991657458
 41       0.038201740711
 42      -0.308860906142
 43       0.122997247747
 44       0.003946111314
 45       0.005795987621
 46      -0.111437509824
 47       0.032724665199
 48       0.114444520673
 49       0.090164757122
 50       0.093076216235
 51       0.068251038400
 52      -0.069491539782
 53      -0.052188351631
 54      -0.073766800703
 55      -0.054567775759
 56      -0.022349415730
 57      -0.019141492473
 58      -0.074237111179
 59      -0.051827909283
 60       0.097173218568
 61       0.072649462137
 Sym=     1a
 Ene= -5.67034677835203E-01
 Spin= Alpha
 Occup= 2.000000
  1       0.005290499626
  2      -0.010804095073
  3      -0.031574974100
  4       0.018669710221
  5      -0.010229195835
  6      -0.014772396095
  7      -0.016724297067
  8       0.003036619460
  9       0.003371751405
 10      -0.133242155826
 11      -0.103420402685
 12       0.000387219242
 13      -0.001802465658
 14      -0.192704181735
 15       0.255798785622
 16       0.266517070853
 17       0.000042188850
 18      -0.094992547132
 19       0.130785351673
 20       0.135389595011
 21      -0.005336797755
 22       0.008657134869
 23      -0.060241320793
 24       0.099115521966
 25       0.064747694247
 26       0.030665780271
 27      -0.038454290225
 28       0.046686143359
 29       0.029827539801
 30       0.002746430163
 31      -0.003147727876
 32      -0.012991523681
 33       0.047648064497
 34       0.051286599404
 35      -0.023398609887
 36      -0.022205448552
 37       0.021787309793
 38       0.034651226250
 39      -0.000512068442
 40       0.001264639600
 41      -0.050776018491
 42      -0.033898973113
 43       0.006559366008
 44       0.002232503673
 45      -0.023996038762
 46      -0.014972779566
 47       0.004029618177
 48       0.014044183708
 49       0.013087886447
 50      -0.000925903889
 51       0.009515866800
 52       0.255195439624
 53       0.198947412074
 54      -0.136250692118
 55      -0.106568496206
 56      -0.014014387785
 57      -0.011914119386
 58      -0.004794304833
 59      -0.007427359877
 60       0.037263937154
 61       0.028088172807
 Sym=     1a
 Ene= -5.40058261753190E-01
 Spin= Alpha
 Occup= 2.000000
  1      -0.010169833718
  2       0.022701757210
  3      -0.146261545040
  4      -0.075610067102
  5      -0.105951522408
  6       0.007867978470
  7      -0.092123520480
  8      -0.035415018438
  9      -0.063721510656
 10      -0.187957612445
 11      -0.146733700526
 12      -0.005438086794
 13       0.013711452813
 14       0.226183063475
 15      -0.059604741250
 16       0.218224953880
 17      -0.004344399447
 18       0.136265892345
 19      -0.027165974191
 20       0.117935473798
 21       0.007800522478
 22      -0.015258425422
 23      -0.068950934718
 24       0.088833369493
 25      -0.098877178420
 26      -0.017445042304
 27      -0.042612028584
 28       0.057376775975
 29      -0.063800639478
 30      -0.035450787113
 31       0.079254717635
 32      -0.010109163635
 33       0.102292891489
 34      -0.074144849990
 35       0.073048126548
 36      -0.011674026877
 37       0.023559812052
 38      -0.013221450367
 39       0.007940820691
 40      -0.014459951582
 41       0.107193832596
 42       0.085370326686
 43       0.077228002843
 44      -0.016786883121
 45       0.069774967894
 46       0.063034197508
 47       0.047206492887
 48       0.127055882399
 49       0.091187502975
 50      -0.118394814046
 51      -0.090526031288
 52      -0.013732388741
 53      -0.013615283627
 54       0.171192584734
 55       0.132510628872
 56      -0.111423099782
 57      -0.076614266539
 58      -0.035722267691
 59      -0.045116325947
 60      -0.116836370956
 61      -0.079635449703
 Sym=     1a
 Ene= -5.06855248046029E-01
 Spin= Alpha
 Occup= 2.000000
  1      -0.011837781653
  2       0.026888479154