
                                 *****************
                                 * O   R   C   A *
                                 *****************

                                            #,                                       
                                            ###                                      
                                            ####                                     
                                            #####                                    
                                            ######                                   
                                           ########,                                 
                                     ,,################,,,,,                         
                               ,,#################################,,                 
                          ,,##########################################,,             
                       ,#########################################, ''#####,          
                    ,#############################################,,   '####,        
                  ,##################################################,,,,####,       
                ,###########''''           ''''###############################       
              ,#####''   ,,,,##########,,,,          '''####'''          '####       
            ,##' ,,,,###########################,,,                        '##       
           ' ,,###''''                  '''############,,,                           
         ,,##''                                '''############,,,,        ,,,,,,###''
      ,#''                                            '''#######################'''  
     '                                                          ''''####''''         
             ,#######,   #######,   ,#######,      ##                                
            ,#'     '#,  ##    ##  ,#'     '#,    #''#        ,####,    ,#,          
            ##       ##  ##   ,#'  ##            #'  '#       #'       ,# #          
            ##       ##  #######   ##           ,######,      #####,      #          
            '#,     ,#'  ##    ##  '#,     ,#' ,#      #,     #,   #      #          
             '#######'   ##     ##  '#######'  #'      '#     '####' #    #          



                #########################################################
                #                        -***-                          #
                #          Department of theory and spectroscopy        #
                #                                                       #
                #                      Frank Neese                      #
                #                                                       #
                #     Directorship, Architecture, Infrastructure        #
                #                    SHARK, DRIVERS                     #
                #        Core code/Algorithms in most modules           #
                #                                                       #
                #        Max Planck Institute fuer Kohlenforschung      #
                #                Kaiser Wilhelm Platz 1                 #
                #                 D-45470 Muelheim/Ruhr                 #
                #                      Germany                          #
                #                                                       #
                #                  All rights reserved                  #
                #                        -***-                          #
                #########################################################


                         Program Version 6.1.0  -  RELEASE   -
                                (GIT: $679e74b$)
                          ($2025-06-10 18:02:51 +0200$)


 With contributions from (in alphabetic order):
[Max-Planck-Institut fuer Kohlenforschung]                               
  Daniel Aravena         : Magnetic Suceptibility                        
  Michael Atanasov       : Ab Initio Ligand Field Theory (pilot matlab implementation)
  Alexander A. Auer      : GIAO ZORA, VPT2 properties, NMR spectrum      
  Ute Becker             : All parallelization in ORCA, NUMFREQ, NUMCALC 
  Giovanni Bistoni       : ED, misc. LED, open-shell LED, HFLD           
  Dmytro Bykov           : pre 5.0 version of the SCF Hessian            
  Marcos Casanova-Páez   : Triplet and SCS-CIS(D). UHF-(DLPNO)-IP/EA/STEOM-CCSD. UHF-CVS-IP/STEOM-CCSD   
  Vijay G. Chilkuri      : MRCI spin determinant printing, contributions to CSF-ICE 
  Pauline Colinet        : FMM embedding                                 
  Dipayan Datta          : RHF DLPNO-CCSD density                        
  Achintya Kumar Dutta   : EOM-CC, STEOM-CC                              
  Nicolas Foglia         : Exact transition moments, OPA infrastructure, MCD improvements    
  Dmitry Ganyushin       : Spin-Orbit,Spin-Spin,Magnetic field MRCI      
  Miquel Garcia-Rates    : C-PCM and meta-GGA Hessian, CCSD/C-PCM, Gaussian charge scheme 
  Tiago L. C. Gouveia    : GS-ROHF, GS-ROCIS                             
  Yang Guo               : DLPNO-NEVPT2, F12-NEVPT2, CIM, IAO-localization        
  Andreas Hansen         : Spin unrestricted coupled pair/coupled cluster methods 
  Ingolf Harden          : AUTO-CI MPn and infrastructure                
  Benjamin Helmich-Paris : MC-RPA, TRAH-(SCF,CASSCF), AVAS, COSX integrals, SCF dyn. polar., MC-PDFT, srDFT 
  Lee Huntington         : MR-EOM, pCC                                   
  Robert Izsak           : Overlap fitted RIJCOSX, COSX-SCS-MP3, EOM     
  Riya Kayal             : Wick's Theorem for AUTO-CI, AUTO-CI UHF-CCSDT 
  Emily Kempfer          : AUTO-CI RHF CISDT and CCSDT, approximate NEVPT4
  Christian Kollmar      : KDIIS, OOCD, Brueckner-CCSD(T), CCSD density, CASPT2, CASPT2-K, improved NEVPT2 
  Axel Koslowski         : Symmetry handling                             
  Simone Kossmann        : meta-GGA functionals, TD-DFT gradient, OOMP2, (MP2 Hessian; deprecated post 5.0) 
  Lucas Lang             : DCDCAS, Hyperfine gauge corrections, ICE-SOC+SSC
  Marvin Lechner         : AUTO-CI (C++ implementation), FIC-MRCC        
  Spencer Leger          : CASSCF response                               
  Dagmar Lenk            : GEPOL surface, SMD, ORCA-2-JSON               
  Dimitrios Liakos       : Extrapolation schemes; Compound Job, Property file
  Dimitrios Manganas     : Further ROCIS development; embedding schemes. LFT, Crystal Embedding 
  Dimitrios Pantazis     : SARC Basis sets                               
  Anastasios Papadopoulos: AUTO-CI, single reference methods and gradients 
  Taras Petrenko         : pre 6.0 DFT Hessian and TD-DFT gradient,  ECA, NRVS 
  Petra Pikulova         : Analytic Raman intensities                    
  Peter Pinski           : DLPNO-MP2, DLPNO-MP2 Gradient                 
  Shashank Vittal Rao    : ES-AILFT, MagRelax                            
  Christoph Reimann      : Effective Core Potentials                     
  Marius Retegan         : Local ZFS, SOC                                
  Christoph Riplinger    : Optimizer, TS searches, QM/MM, DLPNO-CCSD(T), (RO)-DLPNO pert. Triples 
  Michael Roemelt        : Original ROCIS implementation, recursive CI coupling coefficients
  Masaaki Saitow         : Open-shell DLPNO-CCSD energy and density      
  Barbara Sandhoefer     : DKH picture change effects                    
  Yorick L. A. Schmerwitz: GMF and freeze-and-release deltaSCF, NEB S-IDPP initial path                    
  Kantharuban Sivalingam : CASSCF convergence/infrastructure, NEVPT2, NEVPT3, NEVPT4(SD), FIC-MRCI and CEPA variants
  Bernardo de Souza      : ESD, SOC TD-DFT                               
  Georgi L. Stoychev     : AutoAux, RI-MP2 NMR, DLPNO-MP2 response, X2C  
  Van Anh Tran           : RI-MP2 g-tensors                              
  Willem Van den Heuvel  : Paramagnetic NMR                              
  Zikuan Wang            : NOTCH, Electric field optimization            
  Frank Wennmohs         : Technical directorship and infrastructure     
  Hang Xu                : AUTO-CI-Response properties                   
                                                                         
[FACCTs GmbH]                                                            
  Markus Bursch, Nicolas Foglia, Miquel Garcia-Rates, Ingolf Harden, Hagen Neugebauer, Anastasios Papadopoulos, 
  Christoph Riplinger, Bernardo de Souza, Georgi L. Stoychev                                                    
                                                                 
  APM, various basis sets, CI-OPT, improved COSX, DLPNO-Multilevel,           
  DOCKER, DRACO, updates on ESD, Fragmentator, GOAT, IRC, LR-CPCM, L-BFGS, MBIS, meta-GGA TD-DFT gradient, ML-optimized integration grids, 
  MM, NACMEs, nearIR, NEB, NEB-TS, NL-DFT gradient (VV10), 2- and 3-layer-ONIOM, interface openCOSMO-RS, QMMM,   
  Crystal-QMMM, RESP, rigid body optimization, SF, symmetry and pop. for TD-DFT, various functionals, SOLVATOR                                   
                                                                         
[Other institutions]                                                     
  V. Asgeirsson          : NEB                                           
  Christoph Bannwarth    : sTDA-DFT, sTD-DFT, PBEh-3c, B97-3c, D3        
  Giovanni Bistoni       : ETS/NOCV, ADLD/ADEX, COVALED                  
  Martin Brehm           : Molecular dynamics                            
  Ronald Cardenas        : ETS/NOCV                                      
  Martina Colucci        : COVALED                                       
  Sebastian Ehlert       : rSCAN, r2SCAN, r2SCAN-3c, D4, dhf basis sets  
  Marvin Friede          : D4 for Fr, Ra, Ac-Lr                          
  Lars Goerigk           : TD-DFT with DH, B97 family of functionals     
  Stefan Grimme          : VdW corrections, initial TS optimization, DFT functionals, gCP, sTDA/sTD-DF 
  Waldemar Hujo          : DFT-NL                                        
  H. Jonsson             : NEB                                           
  Holger Kruse           : gCP                                           
  Marcel Mueller         : wB97X-3c, vDZP basis set                      
  Hagen Neugebauer       : wr2SCAN, Native XTB                           
  Gianluca Regni         : ADLD/ADEX                                     
  Tobias Risthaus        : pre 6.0 range-separated hybrid DFT and stability analysis
  Lukas Wittmann         : regularized MP2, r2SCAN double-hybrids, wr2SCAN        
                                                                         
We gratefully acknowledge several colleagues who have allowed us to      
interface, adapt or use parts of their codes:                            
  Ed Valeev, F. Pavosevic, A. Kumar             : LibInt (2-el integral package), F12 methods 
  Garnet Chan, S. Sharma, J. Yang, R. Olivares  : DMRG                   
  Ulf Ekstrom                                   : XCFun DFT Library      
  Mihaly Kallay                                 : mrcc  (arbitrary order and MRCC methods)
  Frank Weinhold                                : gennbo (NPA and NBO analysis)           
  Simon Mueller                                 : openCOSMO-RS                            
  Christopher J. Cramer and Donald G. Truhlar   : smd solvation model                     
  S Lehtola, MJT Oliveira, MAL Marques          : LibXC Library                           
  Liviu Ungur et al                             : ANISO software                          


 Your calculation uses the libint2 library for the computation of 2-el integrals
 For citations please refer to: http://libint.valeyev.net

 Your ORCA version has been built with support for libXC version: 7.0.0
 For citations please refer to: https://libxc.gitlab.io

 This ORCA versions uses:
   CBLAS   interface :  Fast vector & matrix operations
   LAPACKE interface :  Fast linear algebra routines
   SCALAPACK package :  Parallel linear algebra routines
   Shared memory     :  Shared parallel matrices
   BLAS/LAPACK       :  OpenBLAS 0.3.29  USE64BITINT DYNAMIC_ARCH NO_AFFINITY Zen SINGLE_THREADED
        Core in use  :  Zen
   Copyright (c) 2011-2014, The OpenBLAS Project


  ***********************************
  * Starting time: Sun Apr  5 13:03:09 2026
  * Host name:     QC1
  * Process ID:    13933
  * Working dir.:  /home/user/QC/h-shift/split_2
  ***********************************

NOTE: MaxCore=1200 MB was set to SCF,MP2,MDCI,CIPSI,MRCI,RASCI and CIS
      => If you want to overwrite this, your respective input block should be placed after the MaxCore statement
================================================================================

----- Orbital basis set information -----
Your calculation utilizes the basis: 6-31G
   H-He, Li-Ne : W. J. Hehre, R. Ditchfield and J.A. Pople, J. Chem. Phys. 56, 2257 (1972).
                 Note: He and Ne are unpublished basis sets taken from the Gaussian program.
                 Note: Li and B from J. D. Dill and J. A. Pople, J. Chem. Phys. 62, 2921 (1975).
   Na - Ar     : M. M. Francl, W. J. Pietro, W. J. Hehre, J. S. Binkley, M. S. Gordon, 
                 D. J. DeFrees and J. A. Pople, J. Chem. Phys. 77, 3654 (1982).
   K - Zn      : V. A. Rassolov, J. A. Pople, M. A. Ratner, and T. L. Windus, J. Chem. Phys. 109, 1223 (1998).

================================================================================
                                        WARNINGS
                       Please study these warnings very carefully!
================================================================================


================================================================================
                                       INPUT FILE
================================================================================
NAME = h-shift_079.inp
|  1> ! HF 6-31G
|  2> %maxcore 1200
|  3> %pal nprocs 8 end
|  4> * xyz 0 1
|  5> C   -0.43517600   0.00863200   0.02988100
|  6> H    2.13347600   0.01350100   0.03006500
|  7> C    2.47016100   0.01013600   1.05902300
|  8> C    1.85822900  -1.13018600   1.82059200
|  9> C    0.62686200  -1.60705900   1.64290000
| 10> C   -0.32910600  -1.18471700   0.60765400
| 11> H   -1.10860300   0.16783400  -0.78972800
| 12> H    0.13258800   0.86139800   0.33991000
| 13> H    2.17640400   0.96227600   1.49335700
| 14> H    3.55052000  -0.03219400   1.06698800
| 15> H    2.48275800  -1.60061900   2.55992700
| 16> H    0.30981800  -2.43423600   2.25473300
| 17> H   -0.98598400  -1.96664000   0.26756700
| 18> *
| 19> 
| 20>                          ****END OF INPUT****
================================================================================

                       ****************************
                       * Single Point Calculation *
                       ****************************

---------------------------------
CARTESIAN COORDINATES (ANGSTROEM)
---------------------------------
  C     -0.435176    0.008632    0.029881
  H      2.133476    0.013501    0.030065
  C      2.470161    0.010136    1.059023
  C      1.858229   -1.130186    1.820592
  C      0.626862   -1.607059    1.642900
  C     -0.329106   -1.184717    0.607654
  H     -1.108603    0.167834   -0.789728
  H      0.132588    0.861398    0.339910
  H      2.176404    0.962276    1.493357
  H      3.550520   -0.032194    1.066988
  H      2.482758   -1.600619    2.559927
  H      0.309818   -2.434236    2.254733
  H     -0.985984   -1.966640    0.267567

----------------------------
CARTESIAN COORDINATES (A.U.)
----------------------------
  NO LB      ZA    FRAG     MASS         X           Y           Z
   0 C     6.0000    0    12.011   -0.822363    0.016312    0.056467
   1 H     1.0000    0     1.008    4.031685    0.025513    0.056815
   2 C     6.0000    0    12.011    4.667928    0.019154    2.001263
   3 C     6.0000    0    12.011    3.511544   -2.135742    3.440420
   4 C     6.0000    0    12.011    1.184598   -3.036901    3.104631
   5 C     6.0000    0    12.011   -0.621920   -2.238791    1.148300
   6 H     1.0000    0     1.008   -2.094956    0.317160   -1.492370
   7 H     1.0000    0     1.008    0.250555    1.627806    0.642337
   8 H     1.0000    0     1.008    4.112808    1.818438    2.822036
   9 H     1.0000    0     1.008    6.709510   -0.060838    2.016315
  10 H     1.0000    0     1.008    4.691733   -3.024732    4.837561
  11 H     1.0000    0     1.008    0.585471   -4.600039    4.260828
  12 H     1.0000    0     1.008   -1.863240   -3.716411    0.505628

--------------------------------
INTERNAL COORDINATES (ANGSTROEM)
--------------------------------
 C      0   0   0     0.000000000000     0.00000000     0.00000000
 H      1   0   0     2.568656621295     0.00000000     0.00000000
 C      2   1   0     1.082646146353   108.12222123     0.00000000
 C      3   2   1     1.501593279843   110.95601427    54.12024898
 C      4   3   2     1.332383951300   125.50581231   324.74247956
 C      1   2   3     1.330095605673    85.52199107   296.05333430
 H      1   2   3     1.072664026624   128.87182028   169.14400166
 H      1   2   3     1.070366194951    57.86141053    70.22297211
 H      3   2   1     1.086972758723   107.03762208   293.31872809
 H      3   2   1     1.081217294999   108.53353314   177.52066214
 H      4   3   2     1.076085462013   116.35527224   143.89326024
 H      5   4   3     1.076604991236   118.12239341   179.78895307
 H      6   1   2     1.076360280009   117.76520645   222.72555314

---------------------------
INTERNAL COORDINATES (A.U.)
---------------------------
 C      0   0   0     0.000000000000     0.00000000     0.00000000
 H      1   0   0     4.854057546330     0.00000000     0.00000000
 C      2   1   0     2.045904716553   108.12222123     0.00000000
 C      3   2   1     2.837600063439   110.95601427    54.12024898
 C      4   3   2     2.517840773189   125.50581231   324.74247956
 C      1   2   3     2.513516426654    85.52199107   296.05333430
 H      1   2   3     2.027041244029   128.87182028   169.14400166
 H      1   2   3     2.022698971464    57.86141053    70.22297211
 H      3   2   1     2.054080829019   107.03762208   293.31872809
 H      3   2   1     2.043204578808   108.53353314   177.52066214
 H      4   3   2     2.033506819898   116.35527224   143.89326024
 H      5   4   3     2.034488587848   118.12239341   179.78895307
 H      6   1   2     2.034026150649   117.76520645   222.72555314

---------------------
BASIS SET INFORMATION
---------------------
There are 2 groups of distinct atoms

 Group   1 Type C   : 10s4p contracted to 3s2p pattern {631/31}
 Group   2 Type H   : 4s contracted to 2s pattern {31}

Atom   0C    basis set group =>   1
Atom   1H    basis set group =>   2
Atom   2C    basis set group =>   1
Atom   3C    basis set group =>   1
Atom   4C    basis set group =>   1
Atom   5C    basis set group =>   1
Atom   6H    basis set group =>   2
Atom   7H    basis set group =>   2
Atom   8H    basis set group =>   2
Atom   9H    basis set group =>   2
Atom  10H    basis set group =>   2
Atom  11H    basis set group =>   2
Atom  12H    basis set group =>   2


           ************************************************************
           *        Program running with 8 parallel MPI-processes     *
           *              working on a common directory               *
           ************************************************************
------------------------------------------------------------------------------
                             ORCA STARTUP CALCULATIONS
------------------------------------------------------------------------------
------------------------------------------------------------------------------
                   ___                                                        
                  /   \      - P O W E R E D   B Y -                         
                 /     \                                                     
                 |  |  |   _    _      __       _____    __    __             
                 |  |  |  | |  | |    /  \     |  _  \  |  |  /  |          
                  \  \/   | |  | |   /    \    | | | |  |  | /  /          
                 / \  \   | |__| |  /  /\  \   | |_| |  |  |/  /          
                |  |  |   |  __  | /  /__\  \  |    /   |      \           
                |  |  |   | |  | | |   __   |  |    \   |  |\   \          
                \     /   | |  | | |  |  |  |  | |\  \  |  | \   \       
                 \___/    |_|  |_| |__|  |__|  |_| \__\ |__|  \__/        
                                                                              
                      - O R C A' S   B I G   F R I E N D -                    
                                      &                                       
                       - I N T E G R A L  F E E D E R -                       
                                                                              
 v1 FN, 2020, v2 2021, v3 2022-2024                                           
------------------------------------------------------------------------------


----------------------
SHARK INTEGRAL PACKAGE
----------------------

Number of atoms                             ...     13
Number of basis functions                   ...     61
Number of shells                            ...     41
Maximum angular momentum                    ...      1
Integral batch strategy                     ... SHARK/LIBINT Hybrid
RI-J (if used) integral strategy            ... SPLIT-RIJ (Revised 2003 algorithm where possible)
Printlevel                                  ...      1
Contraction scheme used                     ... SEGMENTED contraction
Prescreening option                         ... SCHWARTZ
   Thresh                                   ... 1.000e-10
   Tcut                                     ... 1.000e-11
   Tpresel                                  ... 1.000e-11 
Coulomb Range Separation                    ... NOT USED
Exchange Range Separation                   ... NOT USED
Multipole approximations                    ... NOT USED
Finite Nucleus Model                        ... NOT USED
CABS basis                                  ... NOT available
Auxiliary Coulomb fitting basis             ... NOT available
Auxiliary J/K fitting basis                 ... NOT available
Auxiliary Correlation fitting basis         ... NOT available
Auxiliary 'external' fitting basis          ... NOT available

Checking pre-screening integrals            ... done (  0.0 sec) Dimension = 41
   => SHARK Basis and OBASIS are compatible. Storing Pre-screening
Shell pair information
Shell pair cut-off parameter TPreSel        ...   1.0e-11
Total number of shell pairs                 ...       861
Shell pairs after pre-screening             ...       846
Total number of primitive shell pairs       ...      5382
Primitive shell pairs kept                  ...      3730
          la=0 lb=0:    481 shell pairs
          la=1 lb=0:    310 shell pairs
          la=1 lb=1:     55 shell pairs

Checking whether 4 symmetric matrices of dimension 61 fit in memory
:Max Core in MB      =   1200.00
 MB in use           =      2.04
 MB left             =   1197.96
 MB needed           =      0.06
 Data fit in memory  = YES
Calculating Nuclear repulsion               ... done (  0.0 sec) ENN=    160.637685020562 Eh

Diagonalization of the overlap matrix:
Smallest eigenvalue                        ... 3.371e-03
Time for diagonalization                   ...    0.001 sec
Threshold for overlap eigenvalues          ... 1.000e-07
Number of eigenvalues below threshold      ... 0
Time for construction of square roots      ...    0.000 sec
Total time needed                          ...    0.001 sec

-------------------
DFT GRID GENERATION
-------------------

General Integration Accuracy     IntAcc      ... 4.388
Radial Grid Type                 RadialGrid  ... OptM3 with GC (2021)
Angular Grid (max. ang.)         AngularGrid ... 4 (Lebedev-302)
Angular grid pruning method      GridPruning ... 4 (adaptive)
Weight generation scheme         WeightScheme... mBecke (2022)
Basis function cutoff            BFCut       ... 1.0000e-10
Integration weight cutoff        WCut        ... 1.0000e-14
Partially contracted basis set               ... off
Rotationally invariant grid construction     ... off
Angular grids for H and He will be reduced by one unit

Total number of grid points                  ...    56074
Total number of batches                      ...      883
Average number of points per batch           ...       63
Average number of grid points per atom       ...     4313
Grids setup in   0.2 sec
Initializing property integral containers    ... done (  0.0 sec)

SHARK setup successfully completed in   0.3 seconds

Maximum memory used throughout the entire STARTUP-calculation: 11.9 MB


           ************************************************************
           *        Program running with 8 parallel MPI-processes     *
           *              working on a common directory               *
           ************************************************************
-------------------------------------------------------------------------------
                                 ORCA GUESS
                   Start orbitals & Density for SCF / CASSCF
-------------------------------------------------------------------------------

------------
SCF SETTINGS
------------
Hamiltonian:
 Ab initio Hamiltonian  Method          .... Hartree-Fock(GTOs)


General Settings:
 Integral files         IntName         .... h-shift_079
 Hartree-Fock type      HFTyp           .... RHF
 Total Charge           Charge          ....    0
 Multiplicity           Mult            ....    1
 Number of Electrons    NEL             ....   38
 Basis Dimension        Dim             ....   61
 Nuclear Repulsion      ENuc            ....    160.6376850206 Eh

Convergence Acceleration:
 AO-DIIS                CNVDIIS         .... on
   Start iteration      DIISMaxIt       ....    12
   Startup error        DIISStart       ....  0.200000
   # of expansion vecs  DIISMaxEq       ....     5
   Bias factor          DIISBfac        ....   1.050
   Max. coefficient     DIISMaxC        ....  10.000
 MO-DIIS                CNVKDIIS        .... off
 Trust-Rad. Augm. Hess. CNVTRAH         .... auto
   Auto Start mean grad. ratio tolernc. ....  1.125000
   Auto Start start iteration           ....    50
   Auto Start num. interpolation iter.  ....    10
   Max. Number of Micro iterations      ....    24
   Max. Number of Macro iterations      .... Maxiter - #DIIS iter
   Number of Davidson start vectors     ....     2
   Converg. threshold    (grad. norm)   ....   5.000e-05
   Grad. Scal. Fac. for Micro threshold ....   0.100
   Minimum threshold for Micro iter.    ....   1.000e-02
   NR start threshold (gradient norm)   ....   1.000e-04
   Initial trust radius                 ....   0.400
   Minimum AH scaling param. (alpha)    ....   1.000
   Maximum AH scaling param. (alpha)    .... 1000.000
   Quad. conv. algorithm                .... NR
   White noise on init. David. guess    .... on
   Maximum white noise                  ....   0.010
   Pseudo random numbers                .... off
   Inactive MOs                         .... canonical
   Orbital update algorithm             .... Taylor
   Preconditioner                       .... Diag
   Full preconditioner red. dimension   ....   250
 SOSCF                 CNVSOSCF           .... on
   Start iteration     SOSCFMaxIt         ....   150
   Startup grad/error  SOSCFStart         ....  0.003300
   Hessian update      SOSCFHessUp        .... L-BFGS
   Autom. constraints  SOSCFAutoConstrain .... off
 Level Shifting         CNVShift        .... on
   Level shift para.    LevelShift      ....    0.2500
   Turn off err/grad.   ShiftErr        ....    0.0010
 Zerner damping         CNVZerner       .... off
 Static damping         CNVDamp         .... on
   Fraction old density DampFac         ....    0.7000
   Max. Damping (<1)    DampMax         ....    0.9800
   Min. Damping (>=0)   DampMin         ....    0.0000
   Turn off err/grad.   DampErr         ....    0.1000

SCF Procedure:
 Maximum # iterations   MaxIter         ....   125
 SCF integral mode      SCFMode         .... Direct
   Integral package                     .... SHARK and LIBINT hybrid scheme
 Reset frequency        DirectResetFreq ....    20
 Integral Threshold     Thresh          ....  1.000e-10 Eh
 Primitive CutOff       TCut            ....  1.000e-11 Eh

Convergence Tolerance:
 Convergence Check Mode ConvCheckMode   .... Total+1el-Energy
 Convergence forced     ConvForced      .... 0
 Energy Change          TolE            ....  1.000e-06 Eh
 1-El. energy change                    ....  1.000e-03 Eh
 Orbital Gradient       TolG            ....  5.000e-05
 Orbital Rotation angle TolX            ....  5.000e-05
 DIIS Error             TolErr          ....  1.000e-06

------------------------------
INITIAL GUESS: MODEL POTENTIAL
------------------------------
Loading Hartree-Fock densities                     ... done
Calculating cut-offs                               ... done
Initializing the effective Hamiltonian             ... done
Setting up the integral package (SHARK)            ... done
Starting the Coulomb interaction                   ... done (   0.0 sec)
Making the grid                                    ... done (   0.1 sec)
Mapping shells                                     ... done
Starting the XC term evaluation                    ... done (   0.0 sec)
Transforming the Hamiltonian                       ... done (   0.0 sec)
Diagonalizing the Hamiltonian                      ... done (   0.0 sec)
Back transforming the eigenvectors                 ... done (   0.0 sec)
Now organizing SCF variables                       ... done
                      ------------------
                      INITIAL GUESS DONE (   0.1 sec)
                      ------------------
             **** ENERGY FILE WAS UPDATED (h-shift_079.en.tmp) ****
Finished Guess after   0.3 sec
Maximum memory used throughout the entire GUESS-calculation: 4.2 MB


           ************************************************************
           *        Program running with 8 parallel MPI-processes     *
           *              working on a common directory               *
           ************************************************************

-------------------------------------------------------------------------------------------
                                      ORCA LEAN-SCF
                              memory conserving SCF solver
-------------------------------------------------------------------------------------------

----------------------------------------D-I-I-S--------------------------------------------
Iteration    Energy (Eh)           Delta-E    RMSDP     MaxDP     DIISErr   Damp  Time(sec)
-------------------------------------------------------------------------------------------
               ***  Starting incremental Fock matrix formation  ***
    1    -193.6463850967937788     0.00e+00  1.57e-02  5.21e-02  1.82e-01  0.700   0.1
    2    -193.7273909806070833    -8.10e-02  1.25e-02  3.95e-02  1.20e-01  0.700   0.0
                               ***Turning on AO-DIIS***
    3    -193.7774809717649305    -5.01e-02  7.70e-03  2.01e-02  7.17e-02  0.700   0.0
    4    -193.8091342513220070    -3.17e-02  1.83e-02  4.39e-02  4.86e-02  0.000   0.0
                              *** Initializing SOSCF ***
---------------------------------------S-O-S-C-F--------------------------------------
Iteration    Energy (Eh)           Delta-E    RMSDP     MaxDP     MaxGrad    Time(sec)
--------------------------------------------------------------------------------------
    5    -193.8776040898704309    -6.85e-02  1.69e-03  2.68e-03  2.16e-03     0.0
               *** Restarting incremental Fock matrix formation ***
    6    -193.8777238990018077    -1.20e-04  8.63e-04  1.42e-03  1.33e-03     0.0
    7    -193.8777588632467541    -3.50e-05  5.34e-04  1.09e-03  5.41e-04     0.0
    8    -193.8777655405514793    -6.68e-06  7.02e-05  2.00e-04  1.33e-04     0.0
    9    -193.8777657531927048    -2.13e-07  3.18e-05  9.50e-05  3.37e-05     0.0
                 **** Energy Check signals convergence ****

               *****************************************************
               *                     SUCCESS                       *
               *           SCF CONVERGED AFTER   9 CYCLES          *
               *****************************************************

             **** ENERGY FILE WAS UPDATED (h-shift_079.en.tmp) ****

----------------
TOTAL SCF ENERGY
----------------

Total Energy       :       -193.87776580915556 Eh           -5275.68222 eV

Components:
Nuclear Repulsion  :        160.63768502056178 Eh            4371.17364 eV
Electronic Energy  :       -354.51545082971734 Eh           -9646.85585 eV
One Electron Energy:       -578.23681484841529 Eh          -15734.62366 eV
Two Electron Energy:        223.72136401869795 Eh            6087.76781 eV

Virial components:
Potential Energy   :       -388.04235078069200 Eh          -10559.16918 eV
Kinetic Energy     :        194.16458497153644 Eh            5283.48696 eV
Virial Ratio       :          1.99852280392728

---------------
SCF CONVERGENCE
---------------

  Last Energy change         ...    2.1264e-07  Tolerance :   1.0000e-06
  Last MAX-Density change    ...    9.5007e-05  Tolerance :   1.0000e-05
  Last RMS-Density change    ...    3.1814e-05  Tolerance :   1.0000e-06
  Last DIIS Error            ...    2.1619e-03  Tolerance :   1.0000e-06
  Last Orbital Gradient      ...    3.3750e-05  Tolerance :   5.0000e-05
  Last Orbital Rotation      ...    3.3246e-05  Tolerance :   5.0000e-05


----------------
ORBITAL ENERGIES
----------------

  NO   OCC          E(Eh)            E(eV) 
   0   2.0000     -11.236018      -305.7476 
   1   2.0000     -11.235415      -305.7312 
   2   2.0000     -11.227429      -305.5139 
   3   2.0000     -11.221577      -305.3546 
   4   2.0000     -11.215349      -305.1852 
   5   2.0000      -1.100020       -29.9331 
   6   2.0000      -1.021339       -27.7920 
   7   2.0000      -0.941025       -25.6066 
   8   2.0000      -0.814071       -22.1520 
   9   2.0000      -0.717044       -19.5118 
  10   2.0000      -0.667055       -18.1515 
  11   2.0000      -0.603982       -16.4352 
  12   2.0000      -0.584834       -15.9141 
  13   2.0000      -0.567270       -15.4362 
  14   2.0000      -0.541026       -14.7221 
  15   2.0000      -0.507073       -13.7982 
  16   2.0000      -0.468903       -12.7595 
  17   2.0000      -0.411875       -11.2077 
  18   2.0000      -0.315739        -8.5917 
  19   0.0000       0.132863         3.6154 
  20   0.0000       0.232899         6.3375 
  21   0.0000       0.253568         6.8999 
  22   0.0000       0.264841         7.2067 
  23   0.0000       0.291862         7.9420 
  24   0.0000       0.320006         8.7078 
  25   0.0000       0.336967         9.1693 
  26   0.0000       0.347123         9.4457 
  27   0.0000       0.358366         9.7516 
  28   0.0000       0.367969        10.0129 
  29   0.0000       0.428507        11.6603 
*Only the first 10 virtual orbitals were printed.

                    ********************************
                    * MULLIKEN POPULATION ANALYSIS *
                    ********************************

-----------------------
MULLIKEN ATOMIC CHARGES
-----------------------
   0 C :   -0.361990
   1 H :    0.181441
   2 C :   -0.508486
   3 C :   -0.148413
   4 C :   -0.196600
   5 C :   -0.151383
   6 H :    0.161859
   7 H :    0.171639
   8 H :    0.170523
   9 H :    0.159343
  10 H :    0.173845
  11 H :    0.174696
  12 H :    0.173525
Sum of atomic charges:   -0.0000000

--------------------------------
MULLIKEN REDUCED ORBITAL CHARGES
--------------------------------
  0 C s       :     3.266260  s :     3.266260
      pz      :     1.042538  p :     3.095730
      px      :     1.057836
      py      :     0.995357

  1 H s       :     0.818559  s :     0.818559

  2 C s       :     3.366428  s :     3.366428
      pz      :     1.064818  p :     3.142057
      px      :     1.079210
      py      :     0.998029

  3 C s       :     3.210377  s :     3.210377
      pz      :     0.997345  p :     2.938036
      px      :     0.981977
      py      :     0.958714

  4 C s       :     3.193331  s :     3.193331
      pz      :     0.999829  p :     3.003268
      px      :     0.938918
      py      :     1.064521

  5 C s       :     3.194536  s :     3.194536
      pz      :     0.943018  p :     2.956847
      px      :     1.018746
      py      :     0.995084

  6 H s       :     0.838141  s :     0.838141

  7 H s       :     0.828361  s :     0.828361

  8 H s       :     0.829477  s :     0.829477

  9 H s       :     0.840657  s :     0.840657

 10 H s       :     0.826155  s :     0.826155

 11 H s       :     0.825304  s :     0.825304

 12 H s       :     0.826475  s :     0.826475



                     *******************************
                     * LOEWDIN POPULATION ANALYSIS *
                     *******************************

----------------------
LOEWDIN ATOMIC CHARGES
----------------------
   0 C :   -0.245985
   1 H :    0.124376
   2 C :   -0.319138
   3 C :   -0.107780
   4 C :   -0.149566
   5 C :   -0.113989
   6 H :    0.116199
   7 H :    0.117497
   8 H :    0.117135
   9 H :    0.111062
  10 H :    0.116375
  11 H :    0.117236
  12 H :    0.116579

-------------------------------
LOEWDIN REDUCED ORBITAL CHARGES
-------------------------------
  0 C s       :     2.988323  s :     2.988323
      pz      :     1.075096  p :     3.257662
      px      :     1.075315
      py      :     1.107251

  1 H s       :     0.875624  s :     0.875624

  2 C s       :     2.976093  s :     2.976093
      pz      :     1.127724  p :     3.343045
      px      :     1.122161
      py      :     1.093160

  3 C s       :     2.951538  s :     2.951538
      pz      :     1.033950  p :     3.156242
      px      :     1.090268
      py      :     1.032023

  4 C s       :     2.940558  s :     2.940558
      pz      :     1.053213  p :     3.209008
      px      :     1.085207
      py      :     1.070588

  5 C s       :     2.945044  s :     2.945044
      pz      :     1.023964  p :     3.168945
      px      :     1.034786
      py      :     1.110195

  6 H s       :     0.883801  s :     0.883801

  7 H s       :     0.882503  s :     0.882503

  8 H s       :     0.882865  s :     0.882865

  9 H s       :     0.888938  s :     0.888938

 10 H s       :     0.883625  s :     0.883625

 11 H s       :     0.882764  s :     0.882764

 12 H s       :     0.883421  s :     0.883421



                      *****************************
                      * MAYER POPULATION ANALYSIS *
                      *****************************

  NA   - Mulliken gross atomic population
  ZA   - Total nuclear charge
  QA   - Mulliken gross atomic charge
  VA   - Mayer's total valence
  BVA  - Mayer's bonded valence
  FA   - Mayer's free valence

  ATOM       NA         ZA         QA         VA         BVA        FA
  0 C      6.3620     6.0000    -0.3620     3.8460     3.8460    -0.0000
  1 H      0.8186     1.0000     0.1814     0.9308     0.9308    -0.0000
  2 C      6.5085     6.0000    -0.5085     3.7718     3.7718    -0.0000
  3 C      6.1484     6.0000    -0.1484     3.7678     3.7678    -0.0000
  4 C      6.1966     6.0000    -0.1966     3.8249     3.8249    -0.0000
  5 C      6.1514     6.0000    -0.1514     3.8084     3.8084    -0.0000
  6 H      0.8381     1.0000     0.1619     0.9439     0.9439    -0.0000
  7 H      0.8284     1.0000     0.1716     0.9391     0.9391    -0.0000
  8 H      0.8295     1.0000     0.1705     0.9223     0.9223    -0.0000
  9 H      0.8407     1.0000     0.1593     0.9323     0.9323    -0.0000
 10 H      0.8262     1.0000     0.1738     0.9387     0.9387    -0.0000
 11 H      0.8253     1.0000     0.1747     0.9387     0.9387    -0.0000
 12 H      0.8265     1.0000     0.1735     0.9371     0.9371    -0.0000

  Mayer bond orders larger than 0.100000
B(  0-C ,  5-C ) :   1.8811 B(  0-C ,  6-H ) :   0.9628 B(  0-C ,  7-H ) :   0.9616 
B(  1-H ,  2-C ) :   0.9440 B(  2-C ,  3-C ) :   0.9582 B(  2-C ,  8-H ) :   0.9452 
B(  2-C ,  9-H ) :   0.9595 B(  3-C ,  4-C ) :   1.8837 B(  3-C , 10-H ) :   0.9579 
B(  4-C ,  5-C ) :   1.0449 B(  4-C , 11-H ) :   0.9566 B(  5-C , 12-H ) :   0.9575 


-------
TIMINGS
-------

Total SCF time: 0 days 0 hours 0 min 0 sec 

Total time                  ....       0.674 sec
Sum of individual times     ....       0.632 sec  ( 93.7%)

SCF preparation             ....       0.259 sec  ( 38.4%)
Fock matrix formation       ....       0.317 sec  ( 47.1%)
  Startup                   ....       0.001 sec  (  0.5% of F)
  Coulomb+Exchange Fock     ....       0.336 sec  (106.0% of F)
Diagonalization             ....       0.000 sec  (  0.0%)
Density matrix formation    ....       0.008 sec  (  1.1%)
Total Energy calculation    ....       0.005 sec  (  0.7%)
Population analysis         ....       0.005 sec  (  0.7%)
Orbital Transformation      ....       0.005 sec  (  0.7%)
Orbital Orthonormalization  ....       0.000 sec  (  0.0%)
DIIS solution               ....       0.020 sec  (  3.0%)
SOSCF solution              ....       0.013 sec  (  2.0%)
Finished LeanSCF after   0.7 sec

Maximum memory used throughout the entire LEANSCF-calculation: 6.4 MB

-------------------------   --------------------
FINAL SINGLE POINT ENERGY      -193.877765809156
-------------------------   --------------------



           ************************************************************
           *        Program running with 8 parallel MPI-processes     *
           *              working on a common directory               *
           ************************************************************

------------------------------------------------------------------------------
                              ORCA PROPERTY CALCULATIONS
------------------------------------------------------------------------------

GBWName                                 ... h-shift_079.gbw
Number of atoms                         ...     13
Number of basis functions               ...     61
Max core memory                         ...   1200 MB

Electric properties:
Dipole moment                           ... YES
Quadrupole moment                       ...  NO
Static polarizability (Dipole/Dipole)   ...  NO
Static polarizability (Dipole/Quad.)    ...  NO
Static polarizability (Quad./Quad.)     ...  NO
Static polarizability (Velocity)        ...  NO
Static hyperpolarizability              ...  NO

Atomic electric properties:
Dipole moment                           ...  NO
Quadrupole moment                       ...  NO
Static polarizability                   ...  NO

Choice of electric origin               ... Center of mass
Position of electric origin             ...     1.639476    -1.413214     1.921323

General magnetic properties:
Magnetizability                         ...  NO

EPR properties:
g-Tensor (aka g-matrix)                 ...  NO
Zero-Field splitting spin-orbit         ...  NO
Zero-field splitting spin-spin          ...  NO
Hyperfine couplings                     ...  NO (   0 nuclei)
Quadrupole couplings                    ...  NO (   0 nuclei)
Contact density                         ...  NO (   0 nuclei)

NMR properties:
Chemical shifts                         ...  NO (   0 nuclei)
Spin-rotation constants                 ...  NO (   0 nuclei)
Spin-spin couplings                     ...  NO (   0 nuclei,    0 pairs)

Choice of magnetic origin               ... GIAO
Position of magnetic origin             ...     0.000000     0.000000     0.000000

Properties with geometric perturbations:
SCF Hessian                             ...  NO
IR spectrum                             ...  NO
VCD spectrum                            ...  NO
X-ray spectroscopy properties:
SCF XES/XAS/RIXS spectra                ...  NO

SCF SOC stabilization energy            ...  NO
Diagonal Born-Oppenheimer correction    ...  NO

-------------
DIPOLE MOMENT
-------------

Method             : SCF
Type of density    : Electron Density
Multiplicity       :   1
Irrep              :   0
Energy             :  -193.8777658091555622 Eh
Basis              : AO
                                X                 Y                 Z
Electronic contribution:     -1.523281128      -1.818271154       0.835798411
Nuclear contribution   :      1.642172992       1.833240813      -0.854624732
                        -----------------------------------------
Total Dipole Moment    :      0.118891864       0.014969659      -0.018826320
                        -----------------------------------------
Magnitude (a.u.)       :      0.121300438
Magnitude (Debye)      :      0.308321211



--------------------
Rotational spectrum 
--------------------
 
Rotational constants in cm-1:             0.287176             0.138472             0.096721 
Rotational constants in MHz :          8609.318639          4151.300937          2899.619990 

Dipole components along the rotational axes: 
x,y,z [a.u.] :     0.101602     0.047254     0.046453 
x,y,z [Debye]:     0.258252     0.120110     0.118074 

 

Dipole moment calculation done in   0.0 sec 

Maximum memory used throughout the entire PROP-calculation: 2.2 MB

--------------------------------
SUGGESTED CITATIONS FOR THIS RUN
--------------------------------

Below you find a list of papers that are relevant to this ORCA run
We neither can nor want to force you to cite these papers, but we appreciate if you do
You receive ORCA, which is the product of decades of hard work by many enthusiastic individuals, for free
The only thing we kindly ask in return is that you cite our papers,
We deeply appreciate it, if you show your appreciation for ORCA by not just citing the generic ORCA reference.

Please note that relegating all ORCA citations to the supporting information does *not* help us.
SI sections are not indexed - citations you put there will not count into any citation statistics
But we need these citations in order to attract the funding resources that allow us to do what we are doing

Therefore, if you are a happy ORCA user, please consider citing a few of the papers listed below in the main body of your paper

In addition to the list printed below, the program has created the file h-shift_079.bibtex that contains the list in bibtex format
You can import this file easily into all common literature databanks and citation aid programs


List of essential papers. We consider these as the minimum necessary citations

  1. Neese, F.
     Software update: the ORCA program system, version 6.0
     WIRES Comput. Molec. Sci. 2025 15(1), e70019
     doi.org/10.1002/wcms.7019

List of papers to cite with high priority. The work reported in these papers was absolutely
necessary for this run to complete.
Our perspective: the developers of density functionals and basis sets usually get cited in chemistry papers
Good! But without the algorithms to do something with them, the functionals or basis sets would not do anything.
Hence, in our opinion, the algorithm design and method developments papers are equally worthy of getting cited

  1. Neese, F.
     The SHARK Integral Generation and Digestion System
     J. Comp. Chem. 2022 44(3), 381
     doi.org/10.1002/jcc.26942

List of suggested additional citations. These are papers that are important in the 'surrounding' of 
of this run, or papers that preceded the highly important papers. If you like your results we are grateful for a citation.

  1. Neese, F.
     The ORCA program system
     WIRES Comput. Molec. Sci. 2012 2(1), 73-78
     doi.org/10.1002/wcms.81
  2. Neese, F.
     Software update: the ORCA program system, version 4.0
     WIRES Comput. Molec. Sci. 2018 8(1), 1-6
     doi.org/10.1002/wcms.1327
  3. Neese, F.; Wennmohs, F.; Becker, U.; Riplinger, C.
     The ORCA quantum chemistry program package
     J. Chem. Phys. 2020 152(22), 224108
     doi.org/10.1063/5.0004608
  4. Neese, F.
     Software update: The ORCA program system—Version 5.0
     WIRES Comput. Molec. Sci. 2022 12(1), e1606
     doi.org/10.1002/wcms.1606

List of optional additional citations

  1. Neese, F.
     Approximate second-order SCF convergence for spin unrestricted wavefunctions
     Chem. Phys. Lett. 2000 325(1-3), 93-98
     doi.org/10.1016/s0009-2614(00)00662-x

Timings for individual modules:

Sum of individual times          ...        2.320 sec (=   0.039 min)
Startup calculation              ...        0.671 sec (=   0.011 min)  28.9 %
SCF iterations                   ...        1.260 sec (=   0.021 min)  54.3 %
Property calculations            ...        0.389 sec (=   0.006 min)  16.8 %
                             ****ORCA TERMINATED NORMALLY****
TOTAL RUN TIME: 0 days 0 hours 0 minutes 2 seconds 792 msec
