[Molden Format]
[Title]
 Molden file created by orca_2mkl for BaseName=h-shift_055

[Atoms] AU
C    1   6         -0.5102298356         0.0583093896         0.0681491936 
H    2   1          3.4636298980        -0.0733346021         0.1855616577 
C    3   6          4.4032924386         0.0380760919         2.0042038534 
C    4   6          3.5162304249        -2.1960450711         3.4773871042 
C    5   6          1.1268418039        -3.0028012830         3.3425494754 
C    6   6         -0.6002639475        -2.1059013550         1.3680804627 
H    7   1         -1.2002878999         0.1665566820        -1.8355212295 
H    8   1          0.3020594944         1.7639667494         0.7857953696 
H    9   1          3.7706291365         1.8266319578         2.7863407132 
H   10   1          6.4206374475         0.1066485841         1.7619352938 
H   11   1          4.9099469124        -3.3272956061         4.4351758980 
H   12   1          0.5888802373        -4.6914057542         4.3400886583 
H   13   1         -1.8480142090        -3.5524734824         0.6804847116 
[GTO]
  1 0
s   6 1.0 
     3047.5249000000         0.5363343823
      457.3695100000         0.9894506076
      103.9486900000         1.5972822308
       29.2101550000         2.0791870615
        9.2866630000         1.7741742532
        3.1639270000         0.6125798260
s   3 1.0 
        7.8682724000        -0.3995563516
        1.8812885000        -0.1841552393
        0.5442493000         0.5163903794
p   3 1.0 
        7.8682724000         1.2960827175
        1.8812885000         0.9937536282
        0.5442493000         0.4959527138
s   1 1.0 
        0.1687144000         0.1876178721
p   1 1.0 
        0.1687144000         0.1541275509

  2 0
s   3 1.0 
       18.7311370000         0.2149354183
        2.8253937000         0.3645711272
        0.6401217000         0.4150514277
s   1 1.0 
        0.1612778000         0.1813806839

  3 0
s   6 1.0 
     3047.5249000000         0.5363343823
      457.3695100000         0.9894506076
      103.9486900000         1.5972822308
       29.2101550000         2.0791870615
        9.2866630000         1.7741742532
        3.1639270000         0.6125798260
s   3 1.0 
        7.8682724000        -0.3995563516
        1.8812885000        -0.1841552393
        0.5442493000         0.5163903794
p   3 1.0 
        7.8682724000         1.2960827175
        1.8812885000         0.9937536282
        0.5442493000         0.4959527138
s   1 1.0 
        0.1687144000         0.1876178721
p   1 1.0 
        0.1687144000         0.1541275509

  4 0
s   6 1.0 
     3047.5249000000         0.5363343823
      457.3695100000         0.9894506076
      103.9486900000         1.5972822308
       29.2101550000         2.0791870615
        9.2866630000         1.7741742532
        3.1639270000         0.6125798260
s   3 1.0 
        7.8682724000        -0.3995563516
        1.8812885000        -0.1841552393
        0.5442493000         0.5163903794
p   3 1.0 
        7.8682724000         1.2960827175
        1.8812885000         0.9937536282
        0.5442493000         0.4959527138
s   1 1.0 
        0.1687144000         0.1876178721
p   1 1.0 
        0.1687144000         0.1541275509

  5 0
s   6 1.0 
     3047.5249000000         0.5363343823
      457.3695100000         0.9894506076
      103.9486900000         1.5972822308
       29.2101550000         2.0791870615
        9.2866630000         1.7741742532
        3.1639270000         0.6125798260
s   3 1.0 
        7.8682724000        -0.3995563516
        1.8812885000        -0.1841552393
        0.5442493000         0.5163903794
p   3 1.0 
        7.8682724000         1.2960827175
        1.8812885000         0.9937536282
        0.5442493000         0.4959527138
s   1 1.0 
        0.1687144000         0.1876178721
p   1 1.0 
        0.1687144000         0.1541275509

  6 0
s   6 1.0 
     3047.5249000000         0.5363343823
      457.3695100000         0.9894506076
      103.9486900000         1.5972822308
       29.2101550000         2.0791870615
        9.2866630000         1.7741742532
        3.1639270000         0.6125798260
s   3 1.0 
        7.8682724000        -0.3995563516
        1.8812885000        -0.1841552393
        0.5442493000         0.5163903794
p   3 1.0 
        7.8682724000         1.2960827175
        1.8812885000         0.9937536282
        0.5442493000         0.4959527138
s   1 1.0 
        0.1687144000         0.1876178721
p   1 1.0 
        0.1687144000         0.1541275509

  7 0
s   3 1.0 
       18.7311370000         0.2149354183
        2.8253937000         0.3645711272
        0.6401217000         0.4150514277
s   1 1.0 
        0.1612778000         0.1813806839

  8 0
s   3 1.0 
       18.7311370000         0.2149354183
        2.8253937000         0.3645711272
        0.6401217000         0.4150514277
s   1 1.0 
        0.1612778000         0.1813806839

  9 0
s   3 1.0 
       18.7311370000         0.2149354183
        2.8253937000         0.3645711272
        0.6401217000         0.4150514277
s   1 1.0 
        0.1612778000         0.1813806839

 10 0
s   3 1.0 
       18.7311370000         0.2149354183
        2.8253937000         0.3645711272
        0.6401217000         0.4150514277
s   1 1.0 
        0.1612778000         0.1813806839

 11 0
s   3 1.0 
       18.7311370000         0.2149354183
        2.8253937000         0.3645711272
        0.6401217000         0.4150514277
s   1 1.0 
        0.1612778000         0.1813806839

 12 0
s   3 1.0 
       18.7311370000         0.2149354183
        2.8253937000         0.3645711272
        0.6401217000         0.4150514277
s   1 1.0 
        0.1612778000         0.1813806839

 13 0
s   3 1.0 
       18.7311370000         0.2149354183
        2.8253937000         0.3645711272
        0.6401217000         0.4150514277
s   1 1.0 
        0.1612778000         0.1813806839

[5D]
[7F]
[9G]
[MO]
 Sym=     1a
 Ene= -1.12368991650722E+01
 Spin= Alpha
 Occup= 2.000000
  1      -0.039914507563
  2      -0.000472281466
  3      -0.000049342006
  4      -0.000149063336
  5       0.000142460393
  6      -0.003858713150
  7      -0.000131283303
  8       0.001521399755
  9      -0.001589292468
 10       0.000196565796
 11      -0.000901494364
 12      -0.007590426098
 13       0.000049379318
 14      -0.000028613407
 15      -0.000150732260
 16       0.000074237506
 17      -0.002016370506
 18       0.000411077365
 19       0.001517404881
 20      -0.001052851667
 21      -0.623059579210
 22      -0.015303458584
 23      -0.000009663646
 24      -0.000036543090
 25       0.000049473559
 26       0.010496977736
 27      -0.000431790393
 28       0.000818676699
 29      -0.000778722938
 30      -0.103217873793
 31      -0.001534321297
 32       0.000026857853
 33       0.000124397326
 34      -0.000085491529
 35      -0.005518992355
 36      -0.000432649113
 37      -0.001948695458
 38       0.001545313200
 39      -0.769210185741
 40      -0.019076074879
 41      -0.000073295358
 42      -0.000119114028
 43       0.000138210862
 44       0.013195818379
 45       0.001150384306
 46       0.001188724553
 47       0.000078514844
 48       0.000054348208
 49      -0.000463846358
 50       0.000177522398
 51       0.000139106437
 52       0.000103888754
 53      -0.000455600419
 54       0.000046516425
 55      -0.000083146066
 56       0.000121761217
 57      -0.001584003867
 58       0.000105661887
 59      -0.000664163558
 60       0.000185575177
 61      -0.001755888174
 Sym=     1a
 Ene= -1.12368340989761E+01
 Spin= Alpha
 Occup= 2.000000
  1       0.033267140124
  2       0.000358773808
  3       0.000046877978
  4       0.000128955608
  5      -0.000078603044
  6       0.003089379437
  7       0.000221276225
  8      -0.001468589736
  9       0.001123772301
 10       0.000071466959
 11       0.000116903003
 12      -0.009725627579
 13       0.000047733507
 14       0.000016249781
 15      -0.000086996325
 16       0.000022525623
 17      -0.002985482211
 18       0.000822139847
 19       0.001603484960
 20      -0.000564483689
 21      -0.770142316135
 22      -0.019462970893
 23       0.000238589928
 24       0.000011803575
 25       0.000175872999
 26       0.013665029614
 27      -0.001754457613
 28       0.000588331482
 29      -0.001395304165
 30      -0.050005313668
 31      -0.000920176439
 32       0.000230211931
 33       0.000050900586
 34       0.000093474215
 35      -0.001805250746
 36      -0.002873049155
 37      -0.000631358064
 38      -0.000655723896
 39       0.628923856408
 40       0.015958176492
 41       0.000222859222
 42      -0.000006622033
 43       0.000013447520
 44      -0.010874322048
 45      -0.000927379759
 46      -0.000614404214
 47      -0.000009784123
 48      -0.000069475244
 49       0.000308131271
 50      -0.000183012794
 51       0.000338970989
 52       0.000183723900
 53      -0.000679165297
 54       0.000071259393
 55      -0.000129746641
 56       0.000223965362
 57      -0.001405276844
 58       0.000009964308
 59      -0.000351241331
 60      -0.000129979959
 61       0.001456904530
 Sym=     1a
 Ene= -1.12290680582529E+01
 Spin= Alpha
 Occup= 2.000000
  1      -0.006265174745
  2      -0.000256463754
  3      -0.000013536060
  4       0.000100100463
  5      -0.000147433092
  6      -0.000947133297
  7      -0.000274911750
  8       0.000156934530
  9       0.000035911097
 10       0.000004566339
 11       0.000230159679
 12      -0.002267245742
 13      -0.000071776197
 14       0.000093740007
 15       0.000082829408
 16      -0.000106157462
 17      -0.001585237817
 18       0.000178330453
 19       0.000640897544
 20       0.000025240023
 21      -0.104487074598
 22      -0.003572954641
 23       0.000227036604
 24       0.000028514964
 25       0.000049808487
 26       0.009364872092
 27      -0.003330112646
 28      -0.000002372314
 29      -0.001390141977
 30       0.989544921981
 31       0.025158479432
 32       0.000189437111
 33       0.000134750863
 34      -0.000323429020
 35      -0.019630472677
 36      -0.001730347851
 37      -0.002331848734
 38       0.002434979113
 39      -0.048487057004
 40      -0.001862064730
 41      -0.000139427587
 42       0.000055150477
 43      -0.000108306930
 44       0.006337612650
 45       0.002422112639
 46      -0.000100881355
 47       0.001628541829
 48       0.000057175673
 49       0.000237424745
 50      -0.000023340257
 51       0.000151545769
 52      -0.000017648534
 53      -0.000146420500
 54       0.000073619355
 55       0.000262703334
 56      -0.000060778564
 57       0.000194362924
 58      -0.000258943901
 59       0.001782882674
 60      -0.000095560279
 61       0.000299772129
 Sym=     1a
 Ene= -1.12215157260314E+01
 Spin= Alpha
 Occup= 2.000000
  1       0.994795168672
  2       0.025254264879
  3       0.000213482614
  4      -0.000210277049
  5       0.000053896268
  6      -0.017662333933
  7      -0.000863151975
  8       0.001652662086
  9      -0.001038106377
 10      -0.000058238126
 11       0.002119350305
 12      -0.000277641730
 13      -0.000071303667
 14       0.000162523666
 15      -0.000026972306
 16      -0.000063821068
 17      -0.000350826271
 18      -0.000809956150
 19       0.000031771994
 20       0.001213069732
 21       0.000122792143
 22       0.000079124702
 23       0.000030370796
 24      -0.000016113336
 25       0.000037289296
 26      -0.000555043092
 27       0.000007267428
 28      -0.000570876608
 29       0.000206119604
 30       0.003756682102
 31       0.000021439968
 32       0.000073655528
 33      -0.000082492159
 34       0.000091896883
 35      -0.000305820799
 36      -0.000220063568
 37       0.000137398230
 38      -0.000159725029
 39      -0.052747685407
 40      -0.002104493003
 41       0.000032387106
 42      -0.000251462875
 43       0.000136710434
 44       0.007002294386
 45       0.000259394982
 46       0.002740800455
 47      -0.001583446566
 48      -0.000156857968
 49       0.002741307561
 50      -0.000019529271
 51       0.002886476967
 52      -0.000037158099
 53      -0.000736073046
 54       0.000118042338
 55       0.000574820113
 56      -0.000022721358
 57      -0.000112855857
 58       0.000038130588
 59       0.000278871418
 60      -0.000118503628
 61       0.000018181829
 Sym=     1a
 Ene= -1.12096493485058E+01
 Spin= Alpha
 Occup= 2.000000
  1      -0.000278629377
  2       0.000079877585
  3       0.000060160472
  4       0.000038886464
  5       0.000138390667
  6      -0.000382043972
  7      -0.000251007602
  8       0.000072792203
  9      -0.001059976851
 10      -0.000054759055
 11      -0.003683847780
 12      -0.996121159398
 13      -0.026287764954
 14       0.000143219028
 15       0.000048172448
 16      -0.000042472502
 17       0.019525383864
 18      -0.000885608408
 19      -0.000820878199
 20       0.000321665210
 21       0.012671326468
 22       0.000755265948
 23       0.000071911396
 24       0.000101175760
 25      -0.000063596398
 26      -0.004220499948
 27      -0.001327758357
 28      -0.002113303812
 29       0.001239583874
 30      -0.000957931680
 31       0.000195977761
 32       0.000104223572
 33       0.000086066953
 34      -0.000015429336
 35      -0.000711613006
 36      -0.000606366798
 37      -0.000551187234
 38       0.000138126169
 39      -0.000166165808
 40      -0.000014956447
 41       0.000070335878
 42       0.000043443265
 43       0.000014581161
 44       0.000783329225
 45       0.000175286169
 46       0.000396370624
 47       0.000026625019
 48      -0.000131118251
 49      -0.000509445649
 50       0.000026640390
 51       0.000375022961
 52      -0.000064629855
 53      -0.003354779208
 54      -0.000020157353
 55      -0.003042041744
 56       0.000159735576
 57       0.000038049000
 58      -0.000046752561
 59      -0.000496243265
 60       0.000019096294
 61      -0.000008555878
 Sym=     1a
 Ene= -1.10883390872649E+00
 Spin= Alpha
 Occup= 2.000000
  1       0.073837336804
  2      -0.142562145656
  3      -0.009283606392
  4       0.051839335691
  5      -0.036604668675
  6      -0.100751671426
  7      -0.003594842606
  8       0.002678820814
  9       0.002186850332
 10      -0.046803613864
 11       0.001240497715
 12       0.073527391935
 13      -0.134823800648
 14       0.027353944184
 15       0.035504222487
 16      -0.015261146944
 17      -0.131034240222
 18       0.018281179966
 19       0.004687701320
 20       0.000934950103
 21       0.113861344107
 22      -0.225846174541
 23       0.066368926320
 24      -0.000711985292
 25       0.029758070690
 26      -0.133096057772
 27      -0.001713774708
 28       0.004438419439
 29      -0.001202002613
 30       0.123162502429
 31      -0.242630003098
 32      -0.043635951458
 33      -0.040389628266
 34       0.038319669454
 35      -0.159752364267
 36      -0.001797878391
 37      -0.002484323189
 38       0.006194249315
 39       0.107940025848
 40      -0.213060407934
 41      -0.043297656721
 42      -0.023165779190
 43      -0.009270346568
 44      -0.136308575158
 45      -0.007839602917
 46      -0.000770227438
 47      -0.002922552403
 48      -0.031861619720
 49      -0.000499413847
 50      -0.039550155872
 51      -0.005653888560
 52      -0.036630815082
 53       0.000218495196
 54      -0.032748103953
 55      -0.006780785518
 56      -0.051069270740
 57      -0.003754159933
 58      -0.055341887961
 59      -0.006391032113
 60      -0.051329377161
 61      -0.008233263671
 Sym=     1a
 Ene= -1.01674735320722E+00
 Spin= Alpha
 Occup= 2.000000
  1      -0.124608693140
  2       0.243401706957
  3      -0.007963084869
  4      -0.077226722272
  5       0.037274145361
  6       0.194490037125
  7       0.002392881008
  8      -0.003983106207
  9       0.004894826259
 10      -0.046497746164
 11      -0.004952510006
 12       0.096046041238
 13      -0.183422586962
 14       0.010271854358
 15       0.034726672658
 16      -0.023852955061
 17      -0.169412215681
 18       0.000637611968
 19       0.001991774202
 20      -0.003482775375
 21       0.101513160253
 22      -0.202078493549
 23       0.000380177490
 24      -0.021498905241
 25       0.021827702011
 26      -0.150485291407
 27       0.000015769248
 28      -0.003481864382
 29       0.004855070128
 30       0.020555722445
 31      -0.040399585075
 32      -0.102547299866
 33      -0.001958637996
 34      -0.041816746316
 35      -0.026711844477
 36      -0.006667811472
 37       0.010086948836
 38      -0.008695012298
 39      -0.118383884912
 40       0.236468816339
 41      -0.012054698998
 42       0.072522716909
 43      -0.062961138781
 44       0.166607803773
 45      -0.007832362858
 46      -0.005829593140
 47      -0.006926260421
 48       0.071914312728
 49       0.016335944135
 50       0.063073458622
 51       0.006022240083
 52      -0.053931094377
 53      -0.005038763665
 54      -0.057254245371
 55      -0.009456550367
 56      -0.062108738684
 57      -0.015962411374
 58      -0.010152345948
 59       0.002629008975
 60       0.071656704956
 61       0.012774230027
 Sym=     1a
 Ene= -9.44217646925884E-01
 Spin= Alpha
 Occup= 2.000000
  1      -0.078077052164
  2       0.150647836120
  3       0.006778648073
  4      -0.001975557437
  5       0.001472741588
  6       0.142482443557
  7       0.009618938407
  8       0.001980584287
  9       0.001198318199
 10       0.102651267414
 11       0.019182900355
 12      -0.137268948742
 13       0.256837373242
 14       0.003226465880
 15       0.019932740954
 16      -0.016912877927
 17       0.293571312572
 18      -0.010859445213
 19       0.000664485358
 20      -0.003825763056
 21       0.028614174819
 22      -0.053940429402
 23       0.123199663074
 24       0.113894016850
 25      -0.044509669223
 26      -0.073021594019
 27       0.019854018315
 28       0.007518404983
 29      -0.000699848960
 30       0.120806447049
 31      -0.240324206473
 32      -0.032286615094
 33       0.016722899710
 34      -0.004900664813
 35      -0.188423108304
 36       0.005368164179
 37       0.017145908004
 38      -0.003513861943
 39       0.006873498185
 40      -0.014654468889
 41      -0.036874541948
 42       0.089367208305
 43      -0.087976257799
 44      -0.016999785211
 45      -0.012040266080
 46       0.004454581119
 47      -0.015123642885
 48       0.055948779505
 49       0.017589063897
 50       0.064162853112
 51       0.019414456349
 52       0.098678861958
 53       0.023753539123
 54       0.097939994544
 55       0.028033380091
 56      -0.020251655821
 57      -0.008039804342
 58      -0.091826816986
 59      -0.024886062348
 60      -0.010539856623
 61      -0.007968953915
 Sym=     1a
 Ene= -8.10685760565322E-01
 Spin= Alpha
 Occup= 2.000000
  1      -0.101567433542
  2       0.201053030291
  3       0.000047884964
  4       0.078215787393
  5      -0.051559356679
  6       0.195763708901
  7       0.002531530596
  8       0.030456250161
  9      -0.020025122794
 10      -0.052456602815
 11      -0.021774340176
 12       0.065001173917
 13      -0.124085805420
 14      -0.027229334966
 15      -0.066671624983
 16       0.040465979820
 17      -0.153795793064
 18      -0.015654517557
 19      -0.015219869324
 20       0.008308202014
 21      -0.091944272909
 22       0.184665171686
 23      -0.012714960877
 24      -0.079571548888
 25       0.055272632354
 26       0.181996938764
 27       0.015418714439
 28      -0.017257052443
 29       0.017325258432
 30       0.025160620748
 31      -0.051859789101
 32       0.196904911314
 33       0.017245881011
 34       0.088348958388
 35      -0.043162281424
 36       0.045874193703
 37       0.004765078863
 38       0.019822142136
 39       0.085532100636
 40      -0.174254202249
 41      -0.005881598510
 42       0.147772575151
 43      -0.084499014200
 44      -0.165753529021
 45       0.000652766224
 46       0.048331765606
 47      -0.023850800492
 48       0.113410469788
 49       0.048034868632
 50       0.108690502120
 51       0.041610140226
 52      -0.066270539420
 53      -0.027046831282
 54      -0.068817657547
 55      -0.023688134854
 56       0.109203168418
 57       0.043760237774
 58      -0.034200532940
 59      -0.015964537695
 60      -0.109788764123
 61      -0.046349430079
 Sym=     1a
 Ene= -7.23548581567678E-01
 Spin= Alpha
 Occup= 2.000000
  1      -0.034006740587
  2       0.065770897486
  3       0.073332192846
  4       0.193003193922
  5      -0.020098583061
  6       0.078580887740
  7       0.030904784494
  8       0.060925907850
  9      -0.008496008297
 10       0.077510713594
 11       0.039383798636
 12      -0.016465122030
 13       0.025733985881
 14      -0.052401934783
 15       0.115188394449
 16      -0.092044863534
 17       0.055118665629
 18      -0.028781416359
 19       0.041159135332
 20      -0.034829818029
 21       0.074740694188
 22      -0.151635403304
 23      -0.185992420231
 24       0.006031782514
 25      -0.035783446070
 26      -0.163046672910
 27      -0.071742262928
 28       0.011129698018
 29      -0.017101117269
 30      -0.079916974091
 31       0.162835361897
 32      -0.026499877145
 33      -0.034928118385
 34       0.029647525271
 35       0.166412131796
 36      -0.024394070258
 37      -0.034972692930
 38       0.016925229463
 39       0.070110803264
 40      -0.141672084936
 41       0.120968479486
 42       0.016887890943
 43       0.131093485607
 44      -0.145369765588
 45       0.045069253840
 46       0.032689669055
 47       0.036982186886
 48       0.035933297806
 49       0.017267886154
 50       0.137349854313
 51       0.082334925243
 52       0.060149054607
 53       0.031464248071
 54      -0.006983711402
 55      -0.004564379694
 56      -0.151673904885
 57      -0.077003273012
 58       0.105159737614
 59       0.042976079404
 60      -0.135650869596
 61      -0.065109229528
 Sym=     1a
 Ene= -6.71583530741905E-01
 Spin= Alpha
 Occup= 2.000000
  1      -0.023054054687
  2       0.045962457505
  3      -0.073807321906
  4       0.077922707127
  5      -0.166402038028
  6       0.064531624483
  7      -0.032539930307
  8       0.019587343472
  9      -0.059529495378
 10      -0.020448113700
 11      -0.014135108900
 12      -0.020126891038
 13       0.038791414430
 14       0.148834910493
 15       0.072811952200
 16      -0.009424388326
 17       0.056072925656
 18       0.070253640517
 19       0.025746969185
 20      -0.000860641284
 21       0.021327726171
 22      -0.043907624042
 23       0.133802507382
 24      -0.100259619917
 25       0.102811123778
 26      -0.031774079090
 27       0.039806441300
 28      -0.038328275954
 29       0.038240298529
 30      -0.022294245137
 31       0.042393312851
 32      -0.095112823987
 33      -0.240298021166
 34       0.139331225741
 35       0.067284566258
 36      -0.037010390480
 37      -0.098192546330
 38       0.052937541524
 39       0.023244792727
 40      -0.048233481377
 41      -0.123434753228
 42      -0.134015164134
 43      -0.032013212810
 44      -0.045812785290
 45      -0.045573719944
 46      -0.043806157374
 47      -0.010087736520
 48       0.128787028422
 49       0.081309710060
 50       0.009866189674
 51       0.011673379656
 52       0.027076157429
 53       0.017319104684
 54       0.106193402921
 55       0.061938530203
 56       0.086557578284
 57       0.058889057843
 58       0.187572527962
 59       0.113024824757
 60       0.079425810275
 61       0.055982190942
 Sym=     1a
 Ene= -5.99198524477984E-01
 Spin= Alpha
 Occup= 2.000000
  1      -0.008883070262
  2       0.019988595611
  3       0.118784527588
  4       0.104549090334
  5       0.266666066599
  6       0.033526539686
  7       0.055205457912
  8       0.051811669310
  9       0.125145196394
 10      -0.069030636022
 11      -0.049171812942
 12       0.011490702701
 13      -0.023458901205
 14       0.120389370705
 15      -0.014920107183
 16       0.063842889397
 17      -0.026152581084
 18       0.041264977754
 19      -0.010038561999
 20       0.031742102905
 21       0.003534564700
 22      -0.008652413642
 23       0.242136441060
 24      -0.025794323767
 25       0.091691063619
 26      -0.012565213464
 27       0.108847636903
 28      -0.023791947008
 29       0.051280398000
 30       0.008401655691
 31      -0.020258721096
 32      -0.201448670426
 33      -0.033382954829
 34      -0.022295145085
 35       0.024119497508
 36      -0.056634548538
 37       0.013558226363
 38      -0.012546963116
 39      -0.018847534015
 40       0.044109701071
 41       0.096490793810
 42       0.104474357233
 43       0.144486567916
 44       0.024240268195
 45       0.017870389058
 46       0.027064257461
 47       0.057188520839
 48      -0.166882195950
 49      -0.116852564417
 50       0.147496108135
 51       0.095397672390
 52      -0.020470819417
 53      -0.008211297927
 54       0.059128375922
 55       0.052161539696
 56       0.137620768527
 57       0.093041514447
 58       0.034650870577
 59       0.036117854951
 60      -0.091969775162
 61      -0.076039887709
 Sym=     1a
 Ene= -5.84137486400551E-01
 Spin= Alpha
 Occup= 2.000000
  1       0.006485648042
  2      -0.018345786499
  3       0.030315509916
  4       0.270614042009
  5      -0.168855593115
  6       0.018551348584
  7       0.017129904594
  8       0.099890395485
  9      -0.060194512182
 10       0.009861182307
 11       0.008846126939
 12       0.009117949540
 13      -0.013139056716
 14      -0.075340393790
 15      -0.213233476780
 16       0.029744942562
 17      -0.041934433930
 18      -0.031741253907
 19      -0.090261436229
 20       0.005997623776
 21      -0.020918684079
 22       0.041997502127
 23       0.135256433570
 24       0.127959022767
 25      -0.115661988307
 26       0.075416000381
 27       0.051653996179
 28       0.047346473677
 29      -0.050783895217
 30       0.012437456318
 31      -0.025753625802
 32      -0.147397451066
 33       0.050387843940
 34      -0.166322365517
 35      -0.026075040800
 36      -0.052653431195
 37       0.022894669138
 38      -0.072730869244
 39       0.006493862231
 40      -0.016455140264
 41       0.029314145279
 42      -0.286342483142
 43       0.161707989505
 44       0.006550564729
 45       0.007109494923
 46      -0.103369287956
 47       0.047056319214
 48       0.096770247722
 49       0.075191187477
 50       0.104016228169
 51       0.073473104954
 52      -0.103272344423
 53      -0.077641351105
 54      -0.064224552509
 55      -0.046674616486
 56       0.006015711149
 57       0.000691670092
 58      -0.068541469705
 59      -0.046334485955
 60       0.077497614254
 61       0.058009537199
 Sym=     1a
 Ene= -5.65267553797710E-01
 Spin= Alpha
 Occup= 2.000000
  1      -0.005468934005
  2       0.011138022940
  3       0.024912654074
  4      -0.089756987697
  5       0.000007609601
  6       0.005875968065
  7       0.013073842971
  8      -0.034017019880
  9      -0.018302584747
 10       0.143932851065
 11       0.122175739270
 12      -0.002331760373
 13       0.005862769669
 14       0.162179564340
 15      -0.206142589991
 16      -0.296039092491
 17       0.000602643602
 18       0.089287012710
 19      -0.107808450958
 20      -0.146592338437
 21       0.016094820140
 22      -0.033488602542
 23       0.015447596537
 24      -0.103335875395
 25      -0.084118334568
 26      -0.045864373613
 27       0.003999830774
 28      -0.044559502254
 29      -0.048180874029
 30      -0.009242452518
 31       0.018362333650
 32       0.022141599018
 33      -0.053340867132
 34      -0.045963550508
 35       0.018035140428
 36       0.014947432122
 37      -0.039043290020
 38      -0.028169397878
 39       0.004464199158
 40      -0.010882342152
 41       0.087542967589
 42       0.078182373121
 43      -0.027928000392
 44      -0.010850143108
 45       0.055464591035
 46       0.042002191871
 47      -0.008227575536
 48      -0.002541488885
 49      -0.009031437359
 50      -0.047915621138
 51      -0.046406942171
 52      -0.231279312091
 53      -0.182273035776
 54       0.129838851469
 55       0.095730660281
 56      -0.002871624872
 57       0.003270987427
 58       0.021008987996
 59       0.011907453626
 60      -0.073314911959
 61      -0.048921598445
 Sym=     1a
 Ene= -5.47230123318817E-01
 Spin= Alpha
 Occup= 2.000000
  1       0.018610917965
  2      -0.041233829815
  3       0.092814763647
  4       0.051036813245
  5       0.116352770917
  6      -0.028215786134
  7       0.065545407764
  8       0.023896554168
  9       0.073198310361
 10       0.196306833322
 11       0.152905318466
 12       0.007055667775
 13      -0.019316129665
 14      -0.255540116993
 15       0.046089028761
 16      -0.206146705699
 17       0.016619390368
 18      -0.155164600581
 19       0.017983381782
 20      -0.102791892383
 21      -0.006245346099
 22       0.013235459646
 23       0.058765326349
 24      -0.133524148242
 25       0.050021740856
 26       0.003905935746
 27       0.045526629081
 28      -0.090013377368
 29       0.038134291807
 30       0.034232423247
 31      -0.076102751384
 32       0.044492781528
 33      -0.118460734764
 34       0.059761567428
 35      -0.068169041850
 36       0.020667899267
 37      -0.029671610927
 38       0.002016517225
 39      -0.006142529498
 40       0.011293099499
 41      -0.118355777168
 42      -0.083602623501
 43      -0.104790466608
 44       0.002812198850
 45      -0.070663107925
 46      -0.064095135221
 47      -0.064454310998
 48      -0.120576980423
 49      -0.084236592014
 50       0.080174580849
 51       0.060056539887
 52       0.020054777385
 53       0.010692749777
 54      -0.167424249621
 55      -0.125120263309
 56       0.101748935649
 57       0.062464588482
 58       0.034415515076
 59       0.042368514980
 60       0.124010851047
 61       0.083762805513
 Sym=     1a
 Ene= -5.08428355544956E-01
 Spin= Alpha
 Occup= 2.000000
  1      -0.012236058021
  2       0.026880124083