
                                 *****************
                                 * O   R   C   A *
                                 *****************

                                            #,                                       
                                            ###                                      
                                            ####                                     
                                            #####                                    
                                            ######                                   
                                           ########,                                 
                                     ,,################,,,,,                         
                               ,,#################################,,                 
                          ,,##########################################,,             
                       ,#########################################, ''#####,          
                    ,#############################################,,   '####,        
                  ,##################################################,,,,####,       
                ,###########''''           ''''###############################       
              ,#####''   ,,,,##########,,,,          '''####'''          '####       
            ,##' ,,,,###########################,,,                        '##       
           ' ,,###''''                  '''############,,,                           
         ,,##''                                '''############,,,,        ,,,,,,###''
      ,#''                                            '''#######################'''  
     '                                                          ''''####''''         
             ,#######,   #######,   ,#######,      ##                                
            ,#'     '#,  ##    ##  ,#'     '#,    #''#        ,####,    ,#,          
            ##       ##  ##   ,#'  ##            #'  '#       #'       ,# #          
            ##       ##  #######   ##           ,######,      #####,      #          
            '#,     ,#'  ##    ##  '#,     ,#' ,#      #,     #,   #      #          
             '#######'   ##     ##  '#######'  #'      '#     '####' #    #          



                #########################################################
                #                        -***-                          #
                #          Department of theory and spectroscopy        #
                #                                                       #
                #                      Frank Neese                      #
                #                                                       #
                #     Directorship, Architecture, Infrastructure        #
                #                    SHARK, DRIVERS                     #
                #        Core code/Algorithms in most modules           #
                #                                                       #
                #        Max Planck Institute fuer Kohlenforschung      #
                #                Kaiser Wilhelm Platz 1                 #
                #                 D-45470 Muelheim/Ruhr                 #
                #                      Germany                          #
                #                                                       #
                #                  All rights reserved                  #
                #                        -***-                          #
                #########################################################


                         Program Version 6.1.0  -  RELEASE   -
                                (GIT: $679e74b$)
                          ($2025-06-10 18:02:51 +0200$)


 With contributions from (in alphabetic order):
[Max-Planck-Institut fuer Kohlenforschung]                               
  Daniel Aravena         : Magnetic Suceptibility                        
  Michael Atanasov       : Ab Initio Ligand Field Theory (pilot matlab implementation)
  Alexander A. Auer      : GIAO ZORA, VPT2 properties, NMR spectrum      
  Ute Becker             : All parallelization in ORCA, NUMFREQ, NUMCALC 
  Giovanni Bistoni       : ED, misc. LED, open-shell LED, HFLD           
  Dmytro Bykov           : pre 5.0 version of the SCF Hessian            
  Marcos Casanova-Páez   : Triplet and SCS-CIS(D). UHF-(DLPNO)-IP/EA/STEOM-CCSD. UHF-CVS-IP/STEOM-CCSD   
  Vijay G. Chilkuri      : MRCI spin determinant printing, contributions to CSF-ICE 
  Pauline Colinet        : FMM embedding                                 
  Dipayan Datta          : RHF DLPNO-CCSD density                        
  Achintya Kumar Dutta   : EOM-CC, STEOM-CC                              
  Nicolas Foglia         : Exact transition moments, OPA infrastructure, MCD improvements    
  Dmitry Ganyushin       : Spin-Orbit,Spin-Spin,Magnetic field MRCI      
  Miquel Garcia-Rates    : C-PCM and meta-GGA Hessian, CCSD/C-PCM, Gaussian charge scheme 
  Tiago L. C. Gouveia    : GS-ROHF, GS-ROCIS                             
  Yang Guo               : DLPNO-NEVPT2, F12-NEVPT2, CIM, IAO-localization        
  Andreas Hansen         : Spin unrestricted coupled pair/coupled cluster methods 
  Ingolf Harden          : AUTO-CI MPn and infrastructure                
  Benjamin Helmich-Paris : MC-RPA, TRAH-(SCF,CASSCF), AVAS, COSX integrals, SCF dyn. polar., MC-PDFT, srDFT 
  Lee Huntington         : MR-EOM, pCC                                   
  Robert Izsak           : Overlap fitted RIJCOSX, COSX-SCS-MP3, EOM     
  Riya Kayal             : Wick's Theorem for AUTO-CI, AUTO-CI UHF-CCSDT 
  Emily Kempfer          : AUTO-CI RHF CISDT and CCSDT, approximate NEVPT4
  Christian Kollmar      : KDIIS, OOCD, Brueckner-CCSD(T), CCSD density, CASPT2, CASPT2-K, improved NEVPT2 
  Axel Koslowski         : Symmetry handling                             
  Simone Kossmann        : meta-GGA functionals, TD-DFT gradient, OOMP2, (MP2 Hessian; deprecated post 5.0) 
  Lucas Lang             : DCDCAS, Hyperfine gauge corrections, ICE-SOC+SSC
  Marvin Lechner         : AUTO-CI (C++ implementation), FIC-MRCC        
  Spencer Leger          : CASSCF response                               
  Dagmar Lenk            : GEPOL surface, SMD, ORCA-2-JSON               
  Dimitrios Liakos       : Extrapolation schemes; Compound Job, Property file
  Dimitrios Manganas     : Further ROCIS development; embedding schemes. LFT, Crystal Embedding 
  Dimitrios Pantazis     : SARC Basis sets                               
  Anastasios Papadopoulos: AUTO-CI, single reference methods and gradients 
  Taras Petrenko         : pre 6.0 DFT Hessian and TD-DFT gradient,  ECA, NRVS 
  Petra Pikulova         : Analytic Raman intensities                    
  Peter Pinski           : DLPNO-MP2, DLPNO-MP2 Gradient                 
  Shashank Vittal Rao    : ES-AILFT, MagRelax                            
  Christoph Reimann      : Effective Core Potentials                     
  Marius Retegan         : Local ZFS, SOC                                
  Christoph Riplinger    : Optimizer, TS searches, QM/MM, DLPNO-CCSD(T), (RO)-DLPNO pert. Triples 
  Michael Roemelt        : Original ROCIS implementation, recursive CI coupling coefficients
  Masaaki Saitow         : Open-shell DLPNO-CCSD energy and density      
  Barbara Sandhoefer     : DKH picture change effects                    
  Yorick L. A. Schmerwitz: GMF and freeze-and-release deltaSCF, NEB S-IDPP initial path                    
  Kantharuban Sivalingam : CASSCF convergence/infrastructure, NEVPT2, NEVPT3, NEVPT4(SD), FIC-MRCI and CEPA variants
  Bernardo de Souza      : ESD, SOC TD-DFT                               
  Georgi L. Stoychev     : AutoAux, RI-MP2 NMR, DLPNO-MP2 response, X2C  
  Van Anh Tran           : RI-MP2 g-tensors                              
  Willem Van den Heuvel  : Paramagnetic NMR                              
  Zikuan Wang            : NOTCH, Electric field optimization            
  Frank Wennmohs         : Technical directorship and infrastructure     
  Hang Xu                : AUTO-CI-Response properties                   
                                                                         
[FACCTs GmbH]                                                            
  Markus Bursch, Nicolas Foglia, Miquel Garcia-Rates, Ingolf Harden, Hagen Neugebauer, Anastasios Papadopoulos, 
  Christoph Riplinger, Bernardo de Souza, Georgi L. Stoychev                                                    
                                                                 
  APM, various basis sets, CI-OPT, improved COSX, DLPNO-Multilevel,           
  DOCKER, DRACO, updates on ESD, Fragmentator, GOAT, IRC, LR-CPCM, L-BFGS, MBIS, meta-GGA TD-DFT gradient, ML-optimized integration grids, 
  MM, NACMEs, nearIR, NEB, NEB-TS, NL-DFT gradient (VV10), 2- and 3-layer-ONIOM, interface openCOSMO-RS, QMMM,   
  Crystal-QMMM, RESP, rigid body optimization, SF, symmetry and pop. for TD-DFT, various functionals, SOLVATOR                                   
                                                                         
[Other institutions]                                                     
  V. Asgeirsson          : NEB                                           
  Christoph Bannwarth    : sTDA-DFT, sTD-DFT, PBEh-3c, B97-3c, D3        
  Giovanni Bistoni       : ETS/NOCV, ADLD/ADEX, COVALED                  
  Martin Brehm           : Molecular dynamics                            
  Ronald Cardenas        : ETS/NOCV                                      
  Martina Colucci        : COVALED                                       
  Sebastian Ehlert       : rSCAN, r2SCAN, r2SCAN-3c, D4, dhf basis sets  
  Marvin Friede          : D4 for Fr, Ra, Ac-Lr                          
  Lars Goerigk           : TD-DFT with DH, B97 family of functionals     
  Stefan Grimme          : VdW corrections, initial TS optimization, DFT functionals, gCP, sTDA/sTD-DF 
  Waldemar Hujo          : DFT-NL                                        
  H. Jonsson             : NEB                                           
  Holger Kruse           : gCP                                           
  Marcel Mueller         : wB97X-3c, vDZP basis set                      
  Hagen Neugebauer       : wr2SCAN, Native XTB                           
  Gianluca Regni         : ADLD/ADEX                                     
  Tobias Risthaus        : pre 6.0 range-separated hybrid DFT and stability analysis
  Lukas Wittmann         : regularized MP2, r2SCAN double-hybrids, wr2SCAN        
                                                                         
We gratefully acknowledge several colleagues who have allowed us to      
interface, adapt or use parts of their codes:                            
  Ed Valeev, F. Pavosevic, A. Kumar             : LibInt (2-el integral package), F12 methods 
  Garnet Chan, S. Sharma, J. Yang, R. Olivares  : DMRG                   
  Ulf Ekstrom                                   : XCFun DFT Library      
  Mihaly Kallay                                 : mrcc  (arbitrary order and MRCC methods)
  Frank Weinhold                                : gennbo (NPA and NBO analysis)           
  Simon Mueller                                 : openCOSMO-RS                            
  Christopher J. Cramer and Donald G. Truhlar   : smd solvation model                     
  S Lehtola, MJT Oliveira, MAL Marques          : LibXC Library                           
  Liviu Ungur et al                             : ANISO software                          


 Your calculation uses the libint2 library for the computation of 2-el integrals
 For citations please refer to: http://libint.valeyev.net

 Your ORCA version has been built with support for libXC version: 7.0.0
 For citations please refer to: https://libxc.gitlab.io

 This ORCA versions uses:
   CBLAS   interface :  Fast vector & matrix operations
   LAPACKE interface :  Fast linear algebra routines
   SCALAPACK package :  Parallel linear algebra routines
   Shared memory     :  Shared parallel matrices
   BLAS/LAPACK       :  OpenBLAS 0.3.29  USE64BITINT DYNAMIC_ARCH NO_AFFINITY Zen SINGLE_THREADED
        Core in use  :  Zen
   Copyright (c) 2011-2014, The OpenBLAS Project


  ***********************************
  * Starting time: Sun Apr  5 13:03:37 2026
  * Host name:     QC1
  * Process ID:    15413
  * Working dir.:  /home/user/QC/h-shift/split_2
  ***********************************

NOTE: MaxCore=1200 MB was set to SCF,MP2,MDCI,CIPSI,MRCI,RASCI and CIS
      => If you want to overwrite this, your respective input block should be placed after the MaxCore statement
================================================================================

----- Orbital basis set information -----
Your calculation utilizes the basis: 6-31G
   H-He, Li-Ne : W. J. Hehre, R. Ditchfield and J.A. Pople, J. Chem. Phys. 56, 2257 (1972).
                 Note: He and Ne are unpublished basis sets taken from the Gaussian program.
                 Note: Li and B from J. D. Dill and J. A. Pople, J. Chem. Phys. 62, 2921 (1975).
   Na - Ar     : M. M. Francl, W. J. Pietro, W. J. Hehre, J. S. Binkley, M. S. Gordon, 
                 D. J. DeFrees and J. A. Pople, J. Chem. Phys. 77, 3654 (1982).
   K - Zn      : V. A. Rassolov, J. A. Pople, M. A. Ratner, and T. L. Windus, J. Chem. Phys. 109, 1223 (1998).

================================================================================
                                        WARNINGS
                       Please study these warnings very carefully!
================================================================================


================================================================================
                                       INPUT FILE
================================================================================
NAME = h-shift_089.inp
|  1> ! HF 6-31G
|  2> %maxcore 1200
|  3> %pal nprocs 8 end
|  4> * xyz 0 1
|  5> C   -0.46786300   0.00316000   0.02897400
|  6> H    2.18587400   0.01765600   0.02656600
|  7> C    2.49924500   0.01002000   1.06330600
|  8> C    1.85471600  -1.11585300   1.81982000
|  9> C    0.63321600  -1.60730000   1.61699500
| 10> C   -0.33230400  -1.19626500   0.58647200
| 11> H   -1.18158100   0.17204300  -0.75402800
| 12> H    0.10902600   0.85388100   0.32968500
| 13> H    2.22497700   0.97164900   1.48943100
| 14> H    3.57859400  -0.06045900   1.09397300
| 15> H    2.45341300  -1.56717600   2.59230400
| 16> H    0.31635200  -2.43192300   2.23285400
| 17> H   -0.99172000  -1.98130700   0.25651800
| 18> *
| 19> 
| 20>                          ****END OF INPUT****
================================================================================

                       ****************************
                       * Single Point Calculation *
                       ****************************

---------------------------------
CARTESIAN COORDINATES (ANGSTROEM)
---------------------------------
  C     -0.467863    0.003160    0.028974
  H      2.185874    0.017656    0.026566
  C      2.499245    0.010020    1.063306
  C      1.854716   -1.115853    1.819820
  C      0.633216   -1.607300    1.616995
  C     -0.332304   -1.196265    0.586472
  H     -1.181581    0.172043   -0.754028
  H      0.109026    0.853881    0.329685
  H      2.224977    0.971649    1.489431
  H      3.578594   -0.060459    1.093973
  H      2.453413   -1.567176    2.592304
  H      0.316352   -2.431923    2.232854
  H     -0.991720   -1.981307    0.256518

----------------------------
CARTESIAN COORDINATES (A.U.)
----------------------------
  NO LB      ZA    FRAG     MASS         X           Y           Z
   0 C     6.0000    0    12.011   -0.884133    0.005972    0.054753
   1 H     1.0000    0     1.008    4.130703    0.033365    0.050202
   2 C     6.0000    0    12.011    4.722889    0.018935    2.009357
   3 C     6.0000    0    12.011    3.504905   -2.108657    3.438961
   4 C     6.0000    0    12.011    1.196605   -3.037357    3.055678
   5 C     6.0000    0    12.011   -0.627964   -2.260613    1.108271
   6 H     1.0000    0     1.008   -2.232864    0.325114   -1.424906
   7 H     1.0000    0     1.008    0.206029    1.613601    0.623014
   8 H     1.0000    0     1.008    4.204597    1.836151    2.814617
   9 H     1.0000    0     1.008    6.762563   -0.114251    2.067309
  10 H     1.0000    0     1.008    4.636279   -2.961533    4.898745
  11 H     1.0000    0     1.008    0.597819   -4.595668    4.219483
  12 H     1.0000    0     1.008   -1.874079   -3.744128    0.484749

--------------------------------
INTERNAL COORDINATES (ANGSTROEM)
--------------------------------
 C      0   0   0     0.000000000000     0.00000000     0.00000000
 H      1   0   0     2.653777684293     0.00000000     0.00000000
 C      2   1   0     1.083092572099   106.76328802     0.00000000
 C      3   2   1     1.501772644632   111.30299853    52.86803507
 C      4   3   2     1.332186317462   126.39790053   326.31447607
 C      1   2   3     1.329586624899    84.45393163   295.43705738
 H      1   2   3     1.072849935087   131.58435254   168.08277710
 H      1   2   3     1.070959496752    57.12953256    70.95022693
 H      3   2   1     1.086984721645   107.21791358   291.36627910
 H      3   2   1     1.082082260335   108.43242978   175.74955179
 H      4   3   2     1.076504564967   115.91921010   145.66452631
 H      5   4   3     1.076888199632   117.72375474   178.96352465
 H      6   1   2     1.077028339895   117.81780951   221.32804391

---------------------------
INTERNAL COORDINATES (A.U.)
---------------------------
 C      0   0   0     0.000000000000     0.00000000     0.00000000
 H      1   0   0     5.014913043625     0.00000000     0.00000000
 C      2   1   0     2.046748338952   106.76328802     0.00000000
 C      3   2   1     2.837939013770   111.30299853    52.86803507
 C      4   3   2     2.517467299361   126.39790053   326.31447607
 C      1   2   3     2.512554592384    84.45393163   295.43705738
 H      1   2   3     2.027392560110   131.58435254   168.08277710
 H      1   2   3     2.023820149383    57.12953256    70.95022693
 H      3   2   1     2.054103435666   107.21791358   291.36627910
 H      3   2   1     2.044839126407   108.43242978   175.74955179
 H      4   3   2     2.034298809703   115.91921010   145.66452631
 H      5   4   3     2.035023774155   117.72375474   178.96352465
 H      6   1   2     2.035288600873   117.81780951   221.32804391

---------------------
BASIS SET INFORMATION
---------------------
There are 2 groups of distinct atoms

 Group   1 Type C   : 10s4p contracted to 3s2p pattern {631/31}
 Group   2 Type H   : 4s contracted to 2s pattern {31}

Atom   0C    basis set group =>   1
Atom   1H    basis set group =>   2
Atom   2C    basis set group =>   1
Atom   3C    basis set group =>   1
Atom   4C    basis set group =>   1
Atom   5C    basis set group =>   1
Atom   6H    basis set group =>   2
Atom   7H    basis set group =>   2
Atom   8H    basis set group =>   2
Atom   9H    basis set group =>   2
Atom  10H    basis set group =>   2
Atom  11H    basis set group =>   2
Atom  12H    basis set group =>   2


           ************************************************************
           *        Program running with 8 parallel MPI-processes     *
           *              working on a common directory               *
           ************************************************************
------------------------------------------------------------------------------
                             ORCA STARTUP CALCULATIONS
------------------------------------------------------------------------------
------------------------------------------------------------------------------
                   ___                                                        
                  /   \      - P O W E R E D   B Y -                         
                 /     \                                                     
                 |  |  |   _    _      __       _____    __    __             
                 |  |  |  | |  | |    /  \     |  _  \  |  |  /  |          
                  \  \/   | |  | |   /    \    | | | |  |  | /  /          
                 / \  \   | |__| |  /  /\  \   | |_| |  |  |/  /          
                |  |  |   |  __  | /  /__\  \  |    /   |      \           
                |  |  |   | |  | | |   __   |  |    \   |  |\   \          
                \     /   | |  | | |  |  |  |  | |\  \  |  | \   \       
                 \___/    |_|  |_| |__|  |__|  |_| \__\ |__|  \__/        
                                                                              
                      - O R C A' S   B I G   F R I E N D -                    
                                      &                                       
                       - I N T E G R A L  F E E D E R -                       
                                                                              
 v1 FN, 2020, v2 2021, v3 2022-2024                                           
------------------------------------------------------------------------------


----------------------
SHARK INTEGRAL PACKAGE
----------------------

Number of atoms                             ...     13
Number of basis functions                   ...     61
Number of shells                            ...     41
Maximum angular momentum                    ...      1
Integral batch strategy                     ... SHARK/LIBINT Hybrid
RI-J (if used) integral strategy            ... SPLIT-RIJ (Revised 2003 algorithm where possible)
Printlevel                                  ...      1
Contraction scheme used                     ... SEGMENTED contraction
Prescreening option                         ... SCHWARTZ
   Thresh                                   ... 1.000e-10
   Tcut                                     ... 1.000e-11
   Tpresel                                  ... 1.000e-11 
Coulomb Range Separation                    ... NOT USED
Exchange Range Separation                   ... NOT USED
Multipole approximations                    ... NOT USED
Finite Nucleus Model                        ... NOT USED
CABS basis                                  ... NOT available
Auxiliary Coulomb fitting basis             ... NOT available
Auxiliary J/K fitting basis                 ... NOT available
Auxiliary Correlation fitting basis         ... NOT available
Auxiliary 'external' fitting basis          ... NOT available

Checking pre-screening integrals            ... done (  0.0 sec) Dimension = 41
   => SHARK Basis and OBASIS are compatible. Storing Pre-screening
Shell pair information
Shell pair cut-off parameter TPreSel        ...   1.0e-11
Total number of shell pairs                 ...       861
Shell pairs after pre-screening             ...       846
Total number of primitive shell pairs       ...      5382
Primitive shell pairs kept                  ...      3724
          la=0 lb=0:    481 shell pairs
          la=1 lb=0:    310 shell pairs
          la=1 lb=1:     55 shell pairs

Checking whether 4 symmetric matrices of dimension 61 fit in memory
:Max Core in MB      =   1200.00
 MB in use           =      2.04
 MB left             =   1197.96
 MB needed           =      0.06
 Data fit in memory  = YES
Calculating Nuclear repulsion               ... done (  0.0 sec) ENN=    160.162498490627 Eh

Diagonalization of the overlap matrix:
Smallest eigenvalue                        ... 3.377e-03
Time for diagonalization                   ...    0.000 sec
Threshold for overlap eigenvalues          ... 1.000e-07
Number of eigenvalues below threshold      ... 0
Time for construction of square roots      ...    0.000 sec
Total time needed                          ...    0.001 sec

-------------------
DFT GRID GENERATION
-------------------

General Integration Accuracy     IntAcc      ... 4.388
Radial Grid Type                 RadialGrid  ... OptM3 with GC (2021)
Angular Grid (max. ang.)         AngularGrid ... 4 (Lebedev-302)
Angular grid pruning method      GridPruning ... 4 (adaptive)
Weight generation scheme         WeightScheme... mBecke (2022)
Basis function cutoff            BFCut       ... 1.0000e-10
Integration weight cutoff        WCut        ... 1.0000e-14
Partially contracted basis set               ... off
Rotationally invariant grid construction     ... off
Angular grids for H and He will be reduced by one unit

Total number of grid points                  ...    56082
Total number of batches                      ...      884
Average number of points per batch           ...       63
Average number of grid points per atom       ...     4314
Grids setup in   0.2 sec
Initializing property integral containers    ... done (  0.0 sec)

SHARK setup successfully completed in   0.3 seconds

Maximum memory used throughout the entire STARTUP-calculation: 11.9 MB


           ************************************************************
           *        Program running with 8 parallel MPI-processes     *
           *              working on a common directory               *
           ************************************************************
-------------------------------------------------------------------------------
                                 ORCA GUESS
                   Start orbitals & Density for SCF / CASSCF
-------------------------------------------------------------------------------

------------
SCF SETTINGS
------------
Hamiltonian:
 Ab initio Hamiltonian  Method          .... Hartree-Fock(GTOs)


General Settings:
 Integral files         IntName         .... h-shift_089
 Hartree-Fock type      HFTyp           .... RHF
 Total Charge           Charge          ....    0
 Multiplicity           Mult            ....    1
 Number of Electrons    NEL             ....   38
 Basis Dimension        Dim             ....   61
 Nuclear Repulsion      ENuc            ....    160.1624984906 Eh

Convergence Acceleration:
 AO-DIIS                CNVDIIS         .... on
   Start iteration      DIISMaxIt       ....    12
   Startup error        DIISStart       ....  0.200000
   # of expansion vecs  DIISMaxEq       ....     5
   Bias factor          DIISBfac        ....   1.050
   Max. coefficient     DIISMaxC        ....  10.000
 MO-DIIS                CNVKDIIS        .... off
 Trust-Rad. Augm. Hess. CNVTRAH         .... auto
   Auto Start mean grad. ratio tolernc. ....  1.125000
   Auto Start start iteration           ....    50
   Auto Start num. interpolation iter.  ....    10
   Max. Number of Micro iterations      ....    24
   Max. Number of Macro iterations      .... Maxiter - #DIIS iter
   Number of Davidson start vectors     ....     2
   Converg. threshold    (grad. norm)   ....   5.000e-05
   Grad. Scal. Fac. for Micro threshold ....   0.100
   Minimum threshold for Micro iter.    ....   1.000e-02
   NR start threshold (gradient norm)   ....   1.000e-04
   Initial trust radius                 ....   0.400
   Minimum AH scaling param. (alpha)    ....   1.000
   Maximum AH scaling param. (alpha)    .... 1000.000
   Quad. conv. algorithm                .... NR
   White noise on init. David. guess    .... on
   Maximum white noise                  ....   0.010
   Pseudo random numbers                .... off
   Inactive MOs                         .... canonical
   Orbital update algorithm             .... Taylor
   Preconditioner                       .... Diag
   Full preconditioner red. dimension   ....   250
 SOSCF                 CNVSOSCF           .... on
   Start iteration     SOSCFMaxIt         ....   150
   Startup grad/error  SOSCFStart         ....  0.003300
   Hessian update      SOSCFHessUp        .... L-BFGS
   Autom. constraints  SOSCFAutoConstrain .... off
 Level Shifting         CNVShift        .... on
   Level shift para.    LevelShift      ....    0.2500
   Turn off err/grad.   ShiftErr        ....    0.0010
 Zerner damping         CNVZerner       .... off
 Static damping         CNVDamp         .... on
   Fraction old density DampFac         ....    0.7000
   Max. Damping (<1)    DampMax         ....    0.9800
   Min. Damping (>=0)   DampMin         ....    0.0000
   Turn off err/grad.   DampErr         ....    0.1000

SCF Procedure:
 Maximum # iterations   MaxIter         ....   125
 SCF integral mode      SCFMode         .... Direct
   Integral package                     .... SHARK and LIBINT hybrid scheme
 Reset frequency        DirectResetFreq ....    20
 Integral Threshold     Thresh          ....  1.000e-10 Eh
 Primitive CutOff       TCut            ....  1.000e-11 Eh

Convergence Tolerance:
 Convergence Check Mode ConvCheckMode   .... Total+1el-Energy
 Convergence forced     ConvForced      .... 0
 Energy Change          TolE            ....  1.000e-06 Eh
 1-El. energy change                    ....  1.000e-03 Eh
 Orbital Gradient       TolG            ....  5.000e-05
 Orbital Rotation angle TolX            ....  5.000e-05
 DIIS Error             TolErr          ....  1.000e-06

------------------------------
INITIAL GUESS: MODEL POTENTIAL
------------------------------
Loading Hartree-Fock densities                     ... done
Calculating cut-offs                               ... done
Initializing the effective Hamiltonian             ... done
Setting up the integral package (SHARK)            ... done
Starting the Coulomb interaction                   ... done (   0.0 sec)
Making the grid                                    ... done (   0.1 sec)
Mapping shells                                     ... done
Starting the XC term evaluation                    ... done (   0.0 sec)
Transforming the Hamiltonian                       ... done (   0.0 sec)
Diagonalizing the Hamiltonian                      ... done (   0.0 sec)
Back transforming the eigenvectors                 ... done (   0.0 sec)
Now organizing SCF variables                       ... done
                      ------------------
                      INITIAL GUESS DONE (   0.1 sec)
                      ------------------
             **** ENERGY FILE WAS UPDATED (h-shift_089.en.tmp) ****
Finished Guess after   0.3 sec
Maximum memory used throughout the entire GUESS-calculation: 4.2 MB


           ************************************************************
           *        Program running with 8 parallel MPI-processes     *
           *              working on a common directory               *
           ************************************************************

-------------------------------------------------------------------------------------------
                                      ORCA LEAN-SCF
                              memory conserving SCF solver
-------------------------------------------------------------------------------------------

----------------------------------------D-I-I-S--------------------------------------------
Iteration    Energy (Eh)           Delta-E    RMSDP     MaxDP     DIISErr   Damp  Time(sec)
-------------------------------------------------------------------------------------------
               ***  Starting incremental Fock matrix formation  ***
    1    -193.6475298203614557     0.00e+00  1.57e-02  5.16e-02  1.81e-01  0.700   0.0
    2    -193.7286267489143370    -8.11e-02  1.25e-02  3.91e-02  1.19e-01  0.700   0.0
                               ***Turning on AO-DIIS***
    3    -193.7787869893819561    -5.02e-02  7.70e-03  2.01e-02  7.13e-02  0.700   0.0
    4    -193.8104868920830199    -3.17e-02  1.83e-02  4.38e-02  4.83e-02  0.000   0.0
                              *** Initializing SOSCF ***
---------------------------------------S-O-S-C-F--------------------------------------
Iteration    Energy (Eh)           Delta-E    RMSDP     MaxDP     MaxGrad    Time(sec)
--------------------------------------------------------------------------------------
    5    -193.8790561834758819    -6.86e-02  1.69e-03  2.63e-03  2.16e-03     0.0
               *** Restarting incremental Fock matrix formation ***
    6    -193.8791758063732686    -1.20e-04  8.57e-04  1.39e-03  1.33e-03     0.0
    7    -193.8792104358989832    -3.46e-05  5.28e-04  1.07e-03  5.34e-04     0.0
    8    -193.8792169521705659    -6.52e-06  6.92e-05  1.89e-04  1.33e-04     0.0
    9    -193.8792171626903382    -2.11e-07  3.15e-05  9.29e-05  3.57e-05     0.0
                 **** Energy Check signals convergence ****

               *****************************************************
               *                     SUCCESS                       *
               *           SCF CONVERGED AFTER   9 CYCLES          *
               *****************************************************

             **** ENERGY FILE WAS UPDATED (h-shift_089.en.tmp) ****

----------------
TOTAL SCF ENERGY
----------------

Total Energy       :       -193.87921721883816 Eh           -5275.72171 eV

Components:
Nuclear Repulsion  :        160.16249849062689 Eh            4358.24315 eV
Electronic Energy  :       -354.04171570946505 Eh           -9633.96487 eV
One Electron Energy:       -577.28861852372142 Eh          -15708.82193 eV
Two Electron Energy:        223.24690281425637 Eh            6074.85707 eV

Virial components:
Potential Energy   :       -388.03317563875584 Eh          -10558.91951 eV
Kinetic Energy     :        194.15395841991767 Eh            5283.19780 eV
Virial Ratio       :          1.99858493124057

---------------
SCF CONVERGENCE
---------------

  Last Energy change         ...    2.1052e-07  Tolerance :   1.0000e-06
  Last MAX-Density change    ...    9.2897e-05  Tolerance :   1.0000e-05
  Last RMS-Density change    ...    3.1486e-05  Tolerance :   1.0000e-06
  Last DIIS Error            ...    2.1584e-03  Tolerance :   1.0000e-06
  Last Orbital Gradient      ...    3.5704e-05  Tolerance :   5.0000e-05
  Last Orbital Rotation      ...    3.5371e-05  Tolerance :   5.0000e-05


----------------
ORBITAL ENERGIES
----------------

  NO   OCC          E(Eh)            E(eV) 
   0   2.0000     -11.236077      -305.7492 
   1   2.0000     -11.235224      -305.7260 
   2   2.0000     -11.227471      -305.5150 
   3   2.0000     -11.221986      -305.3658 
   4   2.0000     -11.216122      -305.2062 
   5   2.0000      -1.098973       -29.9046 
   6   2.0000      -1.022210       -27.8157 
   7   2.0000      -0.940839       -25.6015 
   8   2.0000      -0.814774       -22.1711 
   9   2.0000      -0.715805       -19.4780 
  10   2.0000      -0.666332       -18.1318 
  11   2.0000      -0.605276       -16.4704 
  12   2.0000      -0.585111       -15.9217 
  13   2.0000      -0.567050       -15.4302 
  14   2.0000      -0.539487       -14.6802 
  15   2.0000      -0.506814       -13.7911 
  16   2.0000      -0.468918       -12.7599 
  17   2.0000      -0.413192       -11.2435 
  18   2.0000      -0.315744        -8.5918 
  19   0.0000       0.132500         3.6055 
  20   0.0000       0.234385         6.3779 
  21   0.0000       0.254299         6.9198 
  22   0.0000       0.262972         7.1558 
  23   0.0000       0.291790         7.9400 
  24   0.0000       0.318671         8.6715 
  25   0.0000       0.337546         9.1851 
  26   0.0000       0.346024         9.4158 
  27   0.0000       0.357042         9.7156 
  28   0.0000       0.367549        10.0015 
  29   0.0000       0.426890        11.6163 
*Only the first 10 virtual orbitals were printed.

                    ********************************
                    * MULLIKEN POPULATION ANALYSIS *
                    ********************************

-----------------------
MULLIKEN ATOMIC CHARGES
-----------------------
   0 C :   -0.360299
   1 H :    0.180086
   2 C :   -0.505876
   3 C :   -0.149008
   4 C :   -0.196221
   5 C :   -0.150675
   6 H :    0.162014
   7 H :    0.170778
   8 H :    0.170001
   9 H :    0.159770
  10 H :    0.172031
  11 H :    0.173600
  12 H :    0.173800
Sum of atomic charges:    0.0000000

--------------------------------
MULLIKEN REDUCED ORBITAL CHARGES
--------------------------------
  0 C s       :     3.265570  s :     3.265570
      pz      :     1.039286  p :     3.094730
      px      :     1.060940
      py      :     0.994504

  1 H s       :     0.819914  s :     0.819914

  2 C s       :     3.366092  s :     3.366092
      pz      :     1.066005  p :     3.139784
      px      :     1.073167
      py      :     1.000612

  3 C s       :     3.209548  s :     3.209548
      pz      :     1.003233  p :     2.939461
      px      :     0.980887
      py      :     0.955341

  4 C s       :     3.192303  s :     3.192303
      pz      :     0.996387  p :     3.003919
      px      :     0.942496
      py      :     1.065036

  5 C s       :     3.193988  s :     3.193988
      pz      :     0.946571  p :     2.956687
      px      :     1.015133
      py      :     0.994983

  6 H s       :     0.837986  s :     0.837986

  7 H s       :     0.829222  s :     0.829222

  8 H s       :     0.829999  s :     0.829999

  9 H s       :     0.840230  s :     0.840230

 10 H s       :     0.827969  s :     0.827969

 11 H s       :     0.826400  s :     0.826400

 12 H s       :     0.826200  s :     0.826200



                     *******************************
                     * LOEWDIN POPULATION ANALYSIS *
                     *******************************

----------------------
LOEWDIN ATOMIC CHARGES
----------------------
   0 C :   -0.244313
   1 H :    0.123301
   2 C :   -0.318453
   3 C :   -0.109093
   4 C :   -0.149086
   5 C :   -0.114283
   6 H :    0.116385
   7 H :    0.117205
   8 H :    0.117149
   9 H :    0.111663
  10 H :    0.115876
  11 H :    0.117122
  12 H :    0.116527

-------------------------------
LOEWDIN REDUCED ORBITAL CHARGES
-------------------------------
  0 C s       :     2.988297  s :     2.988297
      pz      :     1.070703  p :     3.256016
      px      :     1.077621
      py      :     1.107692

  1 H s       :     0.876699  s :     0.876699

  2 C s       :     2.975925  s :     2.975925
      pz      :     1.127683  p :     3.342528
      px      :     1.120226
      py      :     1.094619

  3 C s       :     2.951044  s :     2.951044
      pz      :     1.039060  p :     3.158049
      px      :     1.088048
      py      :     1.030940

  4 C s       :     2.940195  s :     2.940195
      pz      :     1.052643  p :     3.208891
      px      :     1.085578
      py      :     1.070670

  5 C s       :     2.945066  s :     2.945066
      pz      :     1.022316  p :     3.169218
      px      :     1.035850
      py      :     1.111052

  6 H s       :     0.883615  s :     0.883615

  7 H s       :     0.882795  s :     0.882795

  8 H s       :     0.882851  s :     0.882851

  9 H s       :     0.888337  s :     0.888337

 10 H s       :     0.884124  s :     0.884124

 11 H s       :     0.882878  s :     0.882878

 12 H s       :     0.883473  s :     0.883473



                      *****************************
                      * MAYER POPULATION ANALYSIS *
                      *****************************

  NA   - Mulliken gross atomic population
  ZA   - Total nuclear charge
  QA   - Mulliken gross atomic charge
  VA   - Mayer's total valence
  BVA  - Mayer's bonded valence
  FA   - Mayer's free valence

  ATOM       NA         ZA         QA         VA         BVA        FA
  0 C      6.3603     6.0000    -0.3603     3.8475     3.8475    -0.0000
  1 H      0.8199     1.0000     0.1801     0.9313     0.9313     0.0000
  2 C      6.5059     6.0000    -0.5059     3.7721     3.7721     0.0000
  3 C      6.1490     6.0000    -0.1490     3.7705     3.7705     0.0000
  4 C      6.1962     6.0000    -0.1962     3.8278     3.8278     0.0000
  5 C      6.1507     6.0000    -0.1507     3.8083     3.8083     0.0000
  6 H      0.8380     1.0000     0.1620     0.9440     0.9440     0.0000
  7 H      0.8292     1.0000     0.1708     0.9396     0.9396     0.0000
  8 H      0.8300     1.0000     0.1700     0.9228     0.9228     0.0000
  9 H      0.8402     1.0000     0.1598     0.9316     0.9316     0.0000
 10 H      0.8280     1.0000     0.1720     0.9389     0.9389     0.0000
 11 H      0.8264     1.0000     0.1736     0.9388     0.9388     0.0000
 12 H      0.8262     1.0000     0.1738     0.9372     0.9372     0.0000

  Mayer bond orders larger than 0.100000
B(  0-C ,  5-C ) :   1.8844 B(  0-C ,  6-H ) :   0.9627 B(  0-C ,  7-H ) :   0.9620 
B(  1-H ,  2-C ) :   0.9467 B(  2-C ,  3-C ) :   0.9562 B(  2-C ,  8-H ) :   0.9451 
B(  2-C ,  9-H ) :   0.9591 B(  3-C ,  4-C ) :   1.8882 B(  3-C , 10-H ) :   0.9585 
B(  4-C ,  5-C ) :   1.0422 B(  4-C , 11-H ) :   0.9568 B(  5-C , 12-H ) :   0.9575 


-------
TIMINGS
-------

Total SCF time: 0 days 0 hours 0 min 0 sec 

Total time                  ....       0.660 sec
Sum of individual times     ....       0.617 sec  ( 93.5%)

SCF preparation             ....       0.251 sec  ( 38.0%)
Fock matrix formation       ....       0.311 sec  ( 47.1%)
  Startup                   ....       0.001 sec  (  0.4% of F)
  Coulomb+Exchange Fock     ....       0.329 sec  (105.9% of F)
Diagonalization             ....       0.000 sec  (  0.0%)
Density matrix formation    ....       0.008 sec  (  1.2%)
Total Energy calculation    ....       0.005 sec  (  0.7%)
Population analysis         ....       0.004 sec  (  0.7%)
Orbital Transformation      ....       0.004 sec  (  0.7%)
Orbital Orthonormalization  ....       0.000 sec  (  0.0%)
DIIS solution               ....       0.021 sec  (  3.1%)
SOSCF solution              ....       0.013 sec  (  2.0%)
Finished LeanSCF after   0.7 sec

Maximum memory used throughout the entire LEANSCF-calculation: 6.4 MB

-------------------------   --------------------
FINAL SINGLE POINT ENERGY      -193.879217218838
-------------------------   --------------------



           ************************************************************
           *        Program running with 8 parallel MPI-processes     *
           *              working on a common directory               *
           ************************************************************

------------------------------------------------------------------------------
                              ORCA PROPERTY CALCULATIONS
------------------------------------------------------------------------------

GBWName                                 ... h-shift_089.gbw
Number of atoms                         ...     13
Number of basis functions               ...     61
Max core memory                         ...   1200 MB

Electric properties:
Dipole moment                           ... YES
Quadrupole moment                       ...  NO
Static polarizability (Dipole/Dipole)   ...  NO
Static polarizability (Dipole/Quad.)    ...  NO
Static polarizability (Quad./Quad.)     ...  NO
Static polarizability (Velocity)        ...  NO
Static hyperpolarizability              ...  NO

Atomic electric properties:
Dipole moment                           ...  NO
Quadrupole moment                       ...  NO
Static polarizability                   ...  NO

Choice of electric origin               ... Center of mass
Position of electric origin             ...     1.638268    -1.414144     1.907745

General magnetic properties:
Magnetizability                         ...  NO

EPR properties:
g-Tensor (aka g-matrix)                 ...  NO
Zero-Field splitting spin-orbit         ...  NO
Zero-field splitting spin-spin          ...  NO
Hyperfine couplings                     ...  NO (   0 nuclei)
Quadrupole couplings                    ...  NO (   0 nuclei)
Contact density                         ...  NO (   0 nuclei)

NMR properties:
Chemical shifts                         ...  NO (   0 nuclei)
Spin-rotation constants                 ...  NO (   0 nuclei)
Spin-spin couplings                     ...  NO (   0 nuclei,    0 pairs)

Choice of magnetic origin               ... GIAO
Position of magnetic origin             ...     0.000000     0.000000     0.000000

Properties with geometric perturbations:
SCF Hessian                             ...  NO
IR spectrum                             ...  NO
VCD spectrum                            ...  NO
X-ray spectroscopy properties:
SCF XES/XAS/RIXS spectra                ...  NO

SCF SOC stabilization energy            ...  NO
Diagonal Born-Oppenheimer correction    ...  NO

-------------
DIPOLE MOMENT
-------------

Method             : SCF
Type of density    : Electron Density
Multiplicity       :   1
Irrep              :   0
Energy             :  -193.8792172188381642 Eh
Basis              : AO
                                X                 Y                 Z
Electronic contribution:     -1.543137263      -1.814277623       0.754526939
Nuclear contribution   :      1.650687304       1.839786925      -0.758963363
                        -----------------------------------------
Total Dipole Moment    :      0.107550041       0.025509301      -0.004436423
                        -----------------------------------------
Magnitude (a.u.)       :      0.110622862
Magnitude (Debye)      :      0.281180970



--------------------
Rotational spectrum 
--------------------
 
Rotational constants in cm-1:             0.290567             0.134874             0.095434 
Rotational constants in MHz :          8710.974416          4043.413156          2861.051374 

Dipole components along the rotational axes: 
x,y,z [a.u.] :     0.097656     0.044890     0.026185 
x,y,z [Debye]:     0.248221     0.114101     0.066557 

 

Dipole moment calculation done in   0.0 sec 

Maximum memory used throughout the entire PROP-calculation: 2.2 MB

--------------------------------
SUGGESTED CITATIONS FOR THIS RUN
--------------------------------

Below you find a list of papers that are relevant to this ORCA run
We neither can nor want to force you to cite these papers, but we appreciate if you do
You receive ORCA, which is the product of decades of hard work by many enthusiastic individuals, for free
The only thing we kindly ask in return is that you cite our papers,
We deeply appreciate it, if you show your appreciation for ORCA by not just citing the generic ORCA reference.

Please note that relegating all ORCA citations to the supporting information does *not* help us.
SI sections are not indexed - citations you put there will not count into any citation statistics
But we need these citations in order to attract the funding resources that allow us to do what we are doing

Therefore, if you are a happy ORCA user, please consider citing a few of the papers listed below in the main body of your paper

In addition to the list printed below, the program has created the file h-shift_089.bibtex that contains the list in bibtex format
You can import this file easily into all common literature databanks and citation aid programs


List of essential papers. We consider these as the minimum necessary citations

  1. Neese, F.
     Software update: the ORCA program system, version 6.0
     WIRES Comput. Molec. Sci. 2025 15(1), e70019
     doi.org/10.1002/wcms.7019

List of papers to cite with high priority. The work reported in these papers was absolutely
necessary for this run to complete.
Our perspective: the developers of density functionals and basis sets usually get cited in chemistry papers
Good! But without the algorithms to do something with them, the functionals or basis sets would not do anything.
Hence, in our opinion, the algorithm design and method developments papers are equally worthy of getting cited

  1. Neese, F.
     The SHARK Integral Generation and Digestion System
     J. Comp. Chem. 2022 44(3), 381
     doi.org/10.1002/jcc.26942

List of suggested additional citations. These are papers that are important in the 'surrounding' of 
of this run, or papers that preceded the highly important papers. If you like your results we are grateful for a citation.

  1. Neese, F.
     The ORCA program system
     WIRES Comput. Molec. Sci. 2012 2(1), 73-78
     doi.org/10.1002/wcms.81
  2. Neese, F.
     Software update: the ORCA program system, version 4.0
     WIRES Comput. Molec. Sci. 2018 8(1), 1-6
     doi.org/10.1002/wcms.1327
  3. Neese, F.; Wennmohs, F.; Becker, U.; Riplinger, C.
     The ORCA quantum chemistry program package
     J. Chem. Phys. 2020 152(22), 224108
     doi.org/10.1063/5.0004608
  4. Neese, F.
     Software update: The ORCA program system—Version 5.0
     WIRES Comput. Molec. Sci. 2022 12(1), e1606
     doi.org/10.1002/wcms.1606

List of optional additional citations

  1. Neese, F.
     Approximate second-order SCF convergence for spin unrestricted wavefunctions
     Chem. Phys. Lett. 2000 325(1-3), 93-98
     doi.org/10.1016/s0009-2614(00)00662-x

Timings for individual modules:

Sum of individual times          ...        2.264 sec (=   0.038 min)
Startup calculation              ...        0.668 sec (=   0.011 min)  29.5 %
SCF iterations                   ...        1.219 sec (=   0.020 min)  53.8 %
Property calculations            ...        0.377 sec (=   0.006 min)  16.7 %
                             ****ORCA TERMINATED NORMALLY****
TOTAL RUN TIME: 0 days 0 hours 0 minutes 2 seconds 758 msec
