
                                 *****************
                                 * O   R   C   A *
                                 *****************

                                            #,                                       
                                            ###                                      
                                            ####                                     
                                            #####                                    
                                            ######                                   
                                           ########,                                 
                                     ,,################,,,,,                         
                               ,,#################################,,                 
                          ,,##########################################,,             
                       ,#########################################, ''#####,          
                    ,#############################################,,   '####,        
                  ,##################################################,,,,####,       
                ,###########''''           ''''###############################       
              ,#####''   ,,,,##########,,,,          '''####'''          '####       
            ,##' ,,,,###########################,,,                        '##       
           ' ,,###''''                  '''############,,,                           
         ,,##''                                '''############,,,,        ,,,,,,###''
      ,#''                                            '''#######################'''  
     '                                                          ''''####''''         
             ,#######,   #######,   ,#######,      ##                                
            ,#'     '#,  ##    ##  ,#'     '#,    #''#        ,####,    ,#,          
            ##       ##  ##   ,#'  ##            #'  '#       #'       ,# #          
            ##       ##  #######   ##           ,######,      #####,      #          
            '#,     ,#'  ##    ##  '#,     ,#' ,#      #,     #,   #      #          
             '#######'   ##     ##  '#######'  #'      '#     '####' #    #          



                #########################################################
                #                        -***-                          #
                #          Department of theory and spectroscopy        #
                #                                                       #
                #                      Frank Neese                      #
                #                                                       #
                #     Directorship, Architecture, Infrastructure        #
                #                    SHARK, DRIVERS                     #
                #        Core code/Algorithms in most modules           #
                #                                                       #
                #        Max Planck Institute fuer Kohlenforschung      #
                #                Kaiser Wilhelm Platz 1                 #
                #                 D-45470 Muelheim/Ruhr                 #
                #                      Germany                          #
                #                                                       #
                #                  All rights reserved                  #
                #                        -***-                          #
                #########################################################


                         Program Version 6.1.0  -  RELEASE   -
                                (GIT: $679e74b$)
                          ($2025-06-10 18:02:51 +0200$)


 With contributions from (in alphabetic order):
[Max-Planck-Institut fuer Kohlenforschung]                               
  Daniel Aravena         : Magnetic Suceptibility                        
  Michael Atanasov       : Ab Initio Ligand Field Theory (pilot matlab implementation)
  Alexander A. Auer      : GIAO ZORA, VPT2 properties, NMR spectrum      
  Ute Becker             : All parallelization in ORCA, NUMFREQ, NUMCALC 
  Giovanni Bistoni       : ED, misc. LED, open-shell LED, HFLD           
  Dmytro Bykov           : pre 5.0 version of the SCF Hessian            
  Marcos Casanova-Páez   : Triplet and SCS-CIS(D). UHF-(DLPNO)-IP/EA/STEOM-CCSD. UHF-CVS-IP/STEOM-CCSD   
  Vijay G. Chilkuri      : MRCI spin determinant printing, contributions to CSF-ICE 
  Pauline Colinet        : FMM embedding                                 
  Dipayan Datta          : RHF DLPNO-CCSD density                        
  Achintya Kumar Dutta   : EOM-CC, STEOM-CC                              
  Nicolas Foglia         : Exact transition moments, OPA infrastructure, MCD improvements    
  Dmitry Ganyushin       : Spin-Orbit,Spin-Spin,Magnetic field MRCI      
  Miquel Garcia-Rates    : C-PCM and meta-GGA Hessian, CCSD/C-PCM, Gaussian charge scheme 
  Tiago L. C. Gouveia    : GS-ROHF, GS-ROCIS                             
  Yang Guo               : DLPNO-NEVPT2, F12-NEVPT2, CIM, IAO-localization        
  Andreas Hansen         : Spin unrestricted coupled pair/coupled cluster methods 
  Ingolf Harden          : AUTO-CI MPn and infrastructure                
  Benjamin Helmich-Paris : MC-RPA, TRAH-(SCF,CASSCF), AVAS, COSX integrals, SCF dyn. polar., MC-PDFT, srDFT 
  Lee Huntington         : MR-EOM, pCC                                   
  Robert Izsak           : Overlap fitted RIJCOSX, COSX-SCS-MP3, EOM     
  Riya Kayal             : Wick's Theorem for AUTO-CI, AUTO-CI UHF-CCSDT 
  Emily Kempfer          : AUTO-CI RHF CISDT and CCSDT, approximate NEVPT4
  Christian Kollmar      : KDIIS, OOCD, Brueckner-CCSD(T), CCSD density, CASPT2, CASPT2-K, improved NEVPT2 
  Axel Koslowski         : Symmetry handling                             
  Simone Kossmann        : meta-GGA functionals, TD-DFT gradient, OOMP2, (MP2 Hessian; deprecated post 5.0) 
  Lucas Lang             : DCDCAS, Hyperfine gauge corrections, ICE-SOC+SSC
  Marvin Lechner         : AUTO-CI (C++ implementation), FIC-MRCC        
  Spencer Leger          : CASSCF response                               
  Dagmar Lenk            : GEPOL surface, SMD, ORCA-2-JSON               
  Dimitrios Liakos       : Extrapolation schemes; Compound Job, Property file
  Dimitrios Manganas     : Further ROCIS development; embedding schemes. LFT, Crystal Embedding 
  Dimitrios Pantazis     : SARC Basis sets                               
  Anastasios Papadopoulos: AUTO-CI, single reference methods and gradients 
  Taras Petrenko         : pre 6.0 DFT Hessian and TD-DFT gradient,  ECA, NRVS 
  Petra Pikulova         : Analytic Raman intensities                    
  Peter Pinski           : DLPNO-MP2, DLPNO-MP2 Gradient                 
  Shashank Vittal Rao    : ES-AILFT, MagRelax                            
  Christoph Reimann      : Effective Core Potentials                     
  Marius Retegan         : Local ZFS, SOC                                
  Christoph Riplinger    : Optimizer, TS searches, QM/MM, DLPNO-CCSD(T), (RO)-DLPNO pert. Triples 
  Michael Roemelt        : Original ROCIS implementation, recursive CI coupling coefficients
  Masaaki Saitow         : Open-shell DLPNO-CCSD energy and density      
  Barbara Sandhoefer     : DKH picture change effects                    
  Yorick L. A. Schmerwitz: GMF and freeze-and-release deltaSCF, NEB S-IDPP initial path                    
  Kantharuban Sivalingam : CASSCF convergence/infrastructure, NEVPT2, NEVPT3, NEVPT4(SD), FIC-MRCI and CEPA variants
  Bernardo de Souza      : ESD, SOC TD-DFT                               
  Georgi L. Stoychev     : AutoAux, RI-MP2 NMR, DLPNO-MP2 response, X2C  
  Van Anh Tran           : RI-MP2 g-tensors                              
  Willem Van den Heuvel  : Paramagnetic NMR                              
  Zikuan Wang            : NOTCH, Electric field optimization            
  Frank Wennmohs         : Technical directorship and infrastructure     
  Hang Xu                : AUTO-CI-Response properties                   
                                                                         
[FACCTs GmbH]                                                            
  Markus Bursch, Nicolas Foglia, Miquel Garcia-Rates, Ingolf Harden, Hagen Neugebauer, Anastasios Papadopoulos, 
  Christoph Riplinger, Bernardo de Souza, Georgi L. Stoychev                                                    
                                                                 
  APM, various basis sets, CI-OPT, improved COSX, DLPNO-Multilevel,           
  DOCKER, DRACO, updates on ESD, Fragmentator, GOAT, IRC, LR-CPCM, L-BFGS, MBIS, meta-GGA TD-DFT gradient, ML-optimized integration grids, 
  MM, NACMEs, nearIR, NEB, NEB-TS, NL-DFT gradient (VV10), 2- and 3-layer-ONIOM, interface openCOSMO-RS, QMMM,   
  Crystal-QMMM, RESP, rigid body optimization, SF, symmetry and pop. for TD-DFT, various functionals, SOLVATOR                                   
                                                                         
[Other institutions]                                                     
  V. Asgeirsson          : NEB                                           
  Christoph Bannwarth    : sTDA-DFT, sTD-DFT, PBEh-3c, B97-3c, D3        
  Giovanni Bistoni       : ETS/NOCV, ADLD/ADEX, COVALED                  
  Martin Brehm           : Molecular dynamics                            
  Ronald Cardenas        : ETS/NOCV                                      
  Martina Colucci        : COVALED                                       
  Sebastian Ehlert       : rSCAN, r2SCAN, r2SCAN-3c, D4, dhf basis sets  
  Marvin Friede          : D4 for Fr, Ra, Ac-Lr                          
  Lars Goerigk           : TD-DFT with DH, B97 family of functionals     
  Stefan Grimme          : VdW corrections, initial TS optimization, DFT functionals, gCP, sTDA/sTD-DF 
  Waldemar Hujo          : DFT-NL                                        
  H. Jonsson             : NEB                                           
  Holger Kruse           : gCP                                           
  Marcel Mueller         : wB97X-3c, vDZP basis set                      
  Hagen Neugebauer       : wr2SCAN, Native XTB                           
  Gianluca Regni         : ADLD/ADEX                                     
  Tobias Risthaus        : pre 6.0 range-separated hybrid DFT and stability analysis
  Lukas Wittmann         : regularized MP2, r2SCAN double-hybrids, wr2SCAN        
                                                                         
We gratefully acknowledge several colleagues who have allowed us to      
interface, adapt or use parts of their codes:                            
  Ed Valeev, F. Pavosevic, A. Kumar             : LibInt (2-el integral package), F12 methods 
  Garnet Chan, S. Sharma, J. Yang, R. Olivares  : DMRG                   
  Ulf Ekstrom                                   : XCFun DFT Library      
  Mihaly Kallay                                 : mrcc  (arbitrary order and MRCC methods)
  Frank Weinhold                                : gennbo (NPA and NBO analysis)           
  Simon Mueller                                 : openCOSMO-RS                            
  Christopher J. Cramer and Donald G. Truhlar   : smd solvation model                     
  S Lehtola, MJT Oliveira, MAL Marques          : LibXC Library                           
  Liviu Ungur et al                             : ANISO software                          


 Your calculation uses the libint2 library for the computation of 2-el integrals
 For citations please refer to: http://libint.valeyev.net

 Your ORCA version has been built with support for libXC version: 7.0.0
 For citations please refer to: https://libxc.gitlab.io

 This ORCA versions uses:
   CBLAS   interface :  Fast vector & matrix operations
   LAPACKE interface :  Fast linear algebra routines
   SCALAPACK package :  Parallel linear algebra routines
   Shared memory     :  Shared parallel matrices
   BLAS/LAPACK       :  OpenBLAS 0.3.29  USE64BITINT DYNAMIC_ARCH NO_AFFINITY Zen SINGLE_THREADED
        Core in use  :  Zen
   Copyright (c) 2011-2014, The OpenBLAS Project


  ***********************************
  * Starting time: Sun Apr  5 13:01:24 2026
  * Host name:     QC1
  * Process ID:    8457
  * Working dir.:  /home/user/QC/h-shift/split_2
  ***********************************

NOTE: MaxCore=1200 MB was set to SCF,MP2,MDCI,CIPSI,MRCI,RASCI and CIS
      => If you want to overwrite this, your respective input block should be placed after the MaxCore statement
================================================================================

----- Orbital basis set information -----
Your calculation utilizes the basis: 6-31G
   H-He, Li-Ne : W. J. Hehre, R. Ditchfield and J.A. Pople, J. Chem. Phys. 56, 2257 (1972).
                 Note: He and Ne are unpublished basis sets taken from the Gaussian program.
                 Note: Li and B from J. D. Dill and J. A. Pople, J. Chem. Phys. 62, 2921 (1975).
   Na - Ar     : M. M. Francl, W. J. Pietro, W. J. Hehre, J. S. Binkley, M. S. Gordon, 
                 D. J. DeFrees and J. A. Pople, J. Chem. Phys. 77, 3654 (1982).
   K - Zn      : V. A. Rassolov, J. A. Pople, M. A. Ratner, and T. L. Windus, J. Chem. Phys. 109, 1223 (1998).

================================================================================
                                        WARNINGS
                       Please study these warnings very carefully!
================================================================================


================================================================================
                                       INPUT FILE
================================================================================
NAME = h-shift_042.inp
|  1> ! HF 6-31G
|  2> %maxcore 1200
|  3> %pal nprocs 8 end
|  4> * xyz 0 1
|  5> C    0.09961700   0.01718700  -0.04258300
|  6> H    1.20357400  -0.04576700  -0.11982000
|  7> C    2.42757100   0.01914600   1.30475300
|  8> C    1.91942200  -1.11004400   1.83800500
|  9> C    0.55277900  -1.58688600   1.76066000
| 10> C   -0.26338700  -1.16032000   0.78045500
| 11> H   -0.46310400   0.06704200  -0.96520800
| 12> H    0.00233900   0.96793700   0.47156100
| 13> H    1.91502600   0.95675600   1.31419400
| 14> H    3.44902900   0.06688600   1.00200100
| 15> H    2.61643700  -1.83429000   2.21018600
| 16> H    0.31767700  -2.48848600   2.29028700
| 17> H   -1.06120700  -1.80120800   0.45589700
| 18> *
| 19> 
| 20>                          ****END OF INPUT****
================================================================================

                       ****************************
                       * Single Point Calculation *
                       ****************************

---------------------------------
CARTESIAN COORDINATES (ANGSTROEM)
---------------------------------
  C      0.099617    0.017187   -0.042583
  H      1.203574   -0.045767   -0.119820
  C      2.427571    0.019146    1.304753
  C      1.919422   -1.110044    1.838005
  C      0.552779   -1.586886    1.760660
  C     -0.263387   -1.160320    0.780455
  H     -0.463104    0.067042   -0.965208
  H      0.002339    0.967937    0.471561
  H      1.915026    0.956756    1.314194
  H      3.449029    0.066886    1.002001
  H      2.616437   -1.834290    2.210186
  H      0.317677   -2.488486    2.290287
  H     -1.061207   -1.801208    0.455897

----------------------------
CARTESIAN COORDINATES (A.U.)
----------------------------
  NO LB      ZA    FRAG     MASS         X           Y           Z
   0 C     6.0000    0    12.011    0.188249    0.032479   -0.080470
   1 H     1.0000    0     1.008    2.274425   -0.086487   -0.226427
   2 C     6.0000    0    12.011    4.587444    0.036181    2.465626
   3 C     6.0000    0    12.011    3.627182   -2.097679    3.473326
   4 C     6.0000    0    12.011    1.044601   -2.998780    3.327165
   5 C     6.0000    0    12.011   -0.497729   -2.192687    1.474846
   6 H     1.0000    0     1.008   -0.875140    0.126691   -1.823979
   7 H     1.0000    0     1.008    0.004420    1.829136    0.891121
   8 H     1.0000    0     1.008    3.618875    1.808007    2.483467
   9 H     1.0000    0     1.008    6.517720    0.126396    1.893507
  10 H     1.0000    0     1.008    4.944349   -3.466306    4.176646
  11 H     1.0000    0     1.008    0.600323   -4.702557    4.328015
  12 H     1.0000    0     1.008   -2.005391   -3.403790    0.861520

--------------------------------
INTERNAL COORDINATES (ANGSTROEM)
--------------------------------
 C      0   0   0     0.000000000000     0.00000000     0.00000000
 H      1   0   0     1.108444774508     0.00000000     0.00000000
 C      2   1   0     1.879305878751   126.43311550     0.00000000
 C      3   2   1     1.348199969517    91.45612453    62.57335283
 C      4   3   2     1.449508065324   127.57399456   329.31498114
 C      5   4   3     1.344948822051   120.44420235    21.86018720
 H      1   2   3     1.081839791971   117.46699892   173.83797445
 H      1   2   3     1.085233903138    99.90666825    56.86846994
 H      3   2   1     1.068599093021    74.01485849   298.12520222
 H      3   2   1     1.066449401926   114.21588237   187.44104824
 H      4   3   2     1.071858607981   117.26899207   137.17969577
 H      5   4   3     1.071755694892   117.20610212   182.98236433
 H      6   5   4     1.073588411035   118.81319725   152.32281348

---------------------------
INTERNAL COORDINATES (A.U.)
---------------------------
 C      0   0   0     0.000000000000     0.00000000     0.00000000
 H      1   0   0     2.094657058396     0.00000000     0.00000000
 C      2   1   0     3.551373432707   126.43311550     0.00000000
 C      3   2   1     2.547728716148    91.45612453    62.57335283
 C      4   3   2     2.739173272372   127.57399456   329.31498114
 C      5   4   3     2.541584937817   120.44420235    21.86018720
 H      1   2   3     2.044380927603   117.46699892   173.83797445
 H      1   2   3     2.050794868177    99.90666825    56.86846994
 H      3   2   1     2.019359632767    74.01485849   298.12520222
 H      3   2   1     2.015297305324   114.21588237   187.44104824
 H      4   3   2     2.025519223369   117.26899207   137.17969577
 H      5   4   3     2.025324745816   117.20610212   182.98236433
 H      6   5   4     2.028788077407   118.81319725   152.32281348

---------------------
BASIS SET INFORMATION
---------------------
There are 2 groups of distinct atoms

 Group   1 Type C   : 10s4p contracted to 3s2p pattern {631/31}
 Group   2 Type H   : 4s contracted to 2s pattern {31}

Atom   0C    basis set group =>   1
Atom   1H    basis set group =>   2
Atom   2C    basis set group =>   1
Atom   3C    basis set group =>   1
Atom   4C    basis set group =>   1
Atom   5C    basis set group =>   1
Atom   6H    basis set group =>   2
Atom   7H    basis set group =>   2
Atom   8H    basis set group =>   2
Atom   9H    basis set group =>   2
Atom  10H    basis set group =>   2
Atom  11H    basis set group =>   2
Atom  12H    basis set group =>   2


           ************************************************************
           *        Program running with 8 parallel MPI-processes     *
           *              working on a common directory               *
           ************************************************************
------------------------------------------------------------------------------
                             ORCA STARTUP CALCULATIONS
------------------------------------------------------------------------------
------------------------------------------------------------------------------
                   ___                                                        
                  /   \      - P O W E R E D   B Y -                         
                 /     \                                                     
                 |  |  |   _    _      __       _____    __    __             
                 |  |  |  | |  | |    /  \     |  _  \  |  |  /  |          
                  \  \/   | |  | |   /    \    | | | |  |  | /  /          
                 / \  \   | |__| |  /  /\  \   | |_| |  |  |/  /          
                |  |  |   |  __  | /  /__\  \  |    /   |      \           
                |  |  |   | |  | | |   __   |  |    \   |  |\   \          
                \     /   | |  | | |  |  |  |  | |\  \  |  | \   \       
                 \___/    |_|  |_| |__|  |__|  |_| \__\ |__|  \__/        
                                                                              
                      - O R C A' S   B I G   F R I E N D -                    
                                      &                                       
                       - I N T E G R A L  F E E D E R -                       
                                                                              
 v1 FN, 2020, v2 2021, v3 2022-2024                                           
------------------------------------------------------------------------------


----------------------
SHARK INTEGRAL PACKAGE
----------------------

Number of atoms                             ...     13
Number of basis functions                   ...     61
Number of shells                            ...     41
Maximum angular momentum                    ...      1
Integral batch strategy                     ... SHARK/LIBINT Hybrid
RI-J (if used) integral strategy            ... SPLIT-RIJ (Revised 2003 algorithm where possible)
Printlevel                                  ...      1
Contraction scheme used                     ... SEGMENTED contraction
Prescreening option                         ... SCHWARTZ
   Thresh                                   ... 1.000e-10
   Tcut                                     ... 1.000e-11
   Tpresel                                  ... 1.000e-11 
Coulomb Range Separation                    ... NOT USED
Exchange Range Separation                   ... NOT USED
Multipole approximations                    ... NOT USED
Finite Nucleus Model                        ... NOT USED
CABS basis                                  ... NOT available
Auxiliary Coulomb fitting basis             ... NOT available
Auxiliary J/K fitting basis                 ... NOT available
Auxiliary Correlation fitting basis         ... NOT available
Auxiliary 'external' fitting basis          ... NOT available

Checking pre-screening integrals            ... done (  0.0 sec) Dimension = 41
   => SHARK Basis and OBASIS are compatible. Storing Pre-screening
Shell pair information
Shell pair cut-off parameter TPreSel        ...   1.0e-11
Total number of shell pairs                 ...       861
Shell pairs after pre-screening             ...       848
Total number of primitive shell pairs       ...      5382
Primitive shell pairs kept                  ...      3785
          la=0 lb=0:    483 shell pairs
          la=1 lb=0:    310 shell pairs
          la=1 lb=1:     55 shell pairs

Checking whether 4 symmetric matrices of dimension 61 fit in memory
:Max Core in MB      =   1200.00
 MB in use           =      2.05
 MB left             =   1197.95
 MB needed           =      0.06
 Data fit in memory  = YES
Calculating Nuclear repulsion               ... done (  0.0 sec) ENN=    164.506979177300 Eh

Diagonalization of the overlap matrix:
Smallest eigenvalue                        ... 3.481e-03
Time for diagonalization                   ...    0.001 sec
Threshold for overlap eigenvalues          ... 1.000e-07
Number of eigenvalues below threshold      ... 0
Time for construction of square roots      ...    0.000 sec
Total time needed                          ...    0.002 sec

-------------------
DFT GRID GENERATION
-------------------

General Integration Accuracy     IntAcc      ... 4.388
Radial Grid Type                 RadialGrid  ... OptM3 with GC (2021)
Angular Grid (max. ang.)         AngularGrid ... 4 (Lebedev-302)
Angular grid pruning method      GridPruning ... 4 (adaptive)
Weight generation scheme         WeightScheme... mBecke (2022)
Basis function cutoff            BFCut       ... 1.0000e-10
Integration weight cutoff        WCut        ... 1.0000e-14
Partially contracted basis set               ... off
Rotationally invariant grid construction     ... off
Angular grids for H and He will be reduced by one unit

Total number of grid points                  ...    55960
Total number of batches                      ...      883
Average number of points per batch           ...       63
Average number of grid points per atom       ...     4305
Grids setup in   0.3 sec
Initializing property integral containers    ... done (  0.0 sec)

SHARK setup successfully completed in   0.3 seconds

Maximum memory used throughout the entire STARTUP-calculation: 11.8 MB


           ************************************************************
           *        Program running with 8 parallel MPI-processes     *
           *              working on a common directory               *
           ************************************************************
-------------------------------------------------------------------------------
                                 ORCA GUESS
                   Start orbitals & Density for SCF / CASSCF
-------------------------------------------------------------------------------

------------
SCF SETTINGS
------------
Hamiltonian:
 Ab initio Hamiltonian  Method          .... Hartree-Fock(GTOs)


General Settings:
 Integral files         IntName         .... h-shift_042
 Hartree-Fock type      HFTyp           .... RHF
 Total Charge           Charge          ....    0
 Multiplicity           Mult            ....    1
 Number of Electrons    NEL             ....   38
 Basis Dimension        Dim             ....   61
 Nuclear Repulsion      ENuc            ....    164.5069791773 Eh

Convergence Acceleration:
 AO-DIIS                CNVDIIS         .... on
   Start iteration      DIISMaxIt       ....    12
   Startup error        DIISStart       ....  0.200000
   # of expansion vecs  DIISMaxEq       ....     5
   Bias factor          DIISBfac        ....   1.050
   Max. coefficient     DIISMaxC        ....  10.000
 MO-DIIS                CNVKDIIS        .... off
 Trust-Rad. Augm. Hess. CNVTRAH         .... auto
   Auto Start mean grad. ratio tolernc. ....  1.125000
   Auto Start start iteration           ....    50
   Auto Start num. interpolation iter.  ....    10
   Max. Number of Micro iterations      ....    24
   Max. Number of Macro iterations      .... Maxiter - #DIIS iter
   Number of Davidson start vectors     ....     2
   Converg. threshold    (grad. norm)   ....   5.000e-05
   Grad. Scal. Fac. for Micro threshold ....   0.100
   Minimum threshold for Micro iter.    ....   1.000e-02
   NR start threshold (gradient norm)   ....   1.000e-04
   Initial trust radius                 ....   0.400
   Minimum AH scaling param. (alpha)    ....   1.000
   Maximum AH scaling param. (alpha)    .... 1000.000
   Quad. conv. algorithm                .... NR
   White noise on init. David. guess    .... on
   Maximum white noise                  ....   0.010
   Pseudo random numbers                .... off
   Inactive MOs                         .... canonical
   Orbital update algorithm             .... Taylor
   Preconditioner                       .... Diag
   Full preconditioner red. dimension   ....   250
 SOSCF                 CNVSOSCF           .... on
   Start iteration     SOSCFMaxIt         ....   150
   Startup grad/error  SOSCFStart         ....  0.003300
   Hessian update      SOSCFHessUp        .... L-BFGS
   Autom. constraints  SOSCFAutoConstrain .... off
 Level Shifting         CNVShift        .... on
   Level shift para.    LevelShift      ....    0.2500
   Turn off err/grad.   ShiftErr        ....    0.0010
 Zerner damping         CNVZerner       .... off
 Static damping         CNVDamp         .... on
   Fraction old density DampFac         ....    0.7000
   Max. Damping (<1)    DampMax         ....    0.9800
   Min. Damping (>=0)   DampMin         ....    0.0000
   Turn off err/grad.   DampErr         ....    0.1000

SCF Procedure:
 Maximum # iterations   MaxIter         ....   125
 SCF integral mode      SCFMode         .... Direct
   Integral package                     .... SHARK and LIBINT hybrid scheme
 Reset frequency        DirectResetFreq ....    20
 Integral Threshold     Thresh          ....  1.000e-10 Eh
 Primitive CutOff       TCut            ....  1.000e-11 Eh

Convergence Tolerance:
 Convergence Check Mode ConvCheckMode   .... Total+1el-Energy
 Convergence forced     ConvForced      .... 0
 Energy Change          TolE            ....  1.000e-06 Eh
 1-El. energy change                    ....  1.000e-03 Eh
 Orbital Gradient       TolG            ....  5.000e-05
 Orbital Rotation angle TolX            ....  5.000e-05
 DIIS Error             TolErr          ....  1.000e-06

------------------------------
INITIAL GUESS: MODEL POTENTIAL
------------------------------
Loading Hartree-Fock densities                     ... done
Calculating cut-offs                               ... done
Initializing the effective Hamiltonian             ... done
Setting up the integral package (SHARK)            ... done
Starting the Coulomb interaction                   ... done (   0.0 sec)
Making the grid                                    ... done (   0.1 sec)
Mapping shells                                     ... done
Starting the XC term evaluation                    ... done (   0.0 sec)
Transforming the Hamiltonian                       ... done (   0.0 sec)
Diagonalizing the Hamiltonian                      ... done (   0.0 sec)
Back transforming the eigenvectors                 ... done (   0.0 sec)
Now organizing SCF variables                       ... done
                      ------------------
                      INITIAL GUESS DONE (   0.1 sec)
                      ------------------
             **** ENERGY FILE WAS UPDATED (h-shift_042.en.tmp) ****
Finished Guess after   0.3 sec
Maximum memory used throughout the entire GUESS-calculation: 4.2 MB


           ************************************************************
           *        Program running with 8 parallel MPI-processes     *
           *              working on a common directory               *
           ************************************************************

-------------------------------------------------------------------------------------------
                                      ORCA LEAN-SCF
                              memory conserving SCF solver
-------------------------------------------------------------------------------------------

----------------------------------------D-I-I-S--------------------------------------------
Iteration    Energy (Eh)           Delta-E    RMSDP     MaxDP     DIISErr   Damp  Time(sec)
-------------------------------------------------------------------------------------------
               ***  Starting incremental Fock matrix formation  ***
    1    -193.6080675761493808     0.00e+00  1.59e-02  5.06e-02  1.76e-01  0.700   0.1
    2    -193.6875870078421258    -7.95e-02  1.26e-02  3.84e-02  1.16e-01  0.700   0.1
                               ***Turning on AO-DIIS***
    3    -193.7366893945724087    -4.91e-02  7.65e-03  1.97e-02  6.97e-02  0.700   0.1
    4    -193.7677308115747223    -3.10e-02  1.82e-02  4.20e-02  4.74e-02  0.000   0.1
                              *** Initializing SOSCF ***
---------------------------------------S-O-S-C-F--------------------------------------
Iteration    Energy (Eh)           Delta-E    RMSDP     MaxDP     MaxGrad    Time(sec)
--------------------------------------------------------------------------------------
    5    -193.8350645132867385    -6.73e-02  1.84e-03  3.00e-03  2.98e-03     0.1
               *** Restarting incremental Fock matrix formation ***
    6    -193.8352323010608984    -1.68e-04  1.11e-03  2.52e-03  2.01e-03     0.1
    7    -193.8352989523828001    -6.67e-05  9.44e-04  2.51e-03  9.53e-04     0.0
    8    -193.8353188472150919    -1.99e-05  1.24e-04  3.14e-04  1.78e-04     0.1
    9    -193.8353193426240182    -4.95e-07  5.26e-05  1.10e-04  4.66e-05     0.0
                 **** Energy Check signals convergence ****

               *****************************************************
               *                     SUCCESS                       *
               *           SCF CONVERGED AFTER   9 CYCLES          *
               *****************************************************

             **** ENERGY FILE WAS UPDATED (h-shift_042.en.tmp) ****

----------------
TOTAL SCF ENERGY
----------------

Total Energy       :       -193.83531947779449 Eh           -5274.52719 eV

Components:
Nuclear Repulsion  :        164.50697917729985 Eh            4476.46248 eV
Electronic Energy  :       -358.34229865509434 Eh           -9750.98968 eV
One Electron Energy:       -585.88115792295935 Eh          -15942.63682 eV
Two Electron Energy:        227.53885926786501 Eh            6191.64714 eV

Virial components:
Potential Energy   :       -388.09824622368512 Eh          -10560.69017 eV
Kinetic Energy     :        194.26292674589064 Eh            5286.16298 eV
Virial Ratio       :          1.99779882206420

---------------
SCF CONVERGENCE
---------------

  Last Energy change         ...    4.9541e-07  Tolerance :   1.0000e-06
  Last MAX-Density change    ...    1.0998e-04  Tolerance :   1.0000e-05
  Last RMS-Density change    ...    5.2573e-05  Tolerance :   1.0000e-06
  Last DIIS Error            ...    2.9801e-03  Tolerance :   1.0000e-06
  Last Orbital Gradient      ...    4.6606e-05  Tolerance :   5.0000e-05
  Last Orbital Rotation      ...    4.5904e-05  Tolerance :   5.0000e-05


----------------
ORBITAL ENERGIES
----------------

  NO   OCC          E(Eh)            E(eV) 
   0   2.0000     -11.237941      -305.7999 
   1   2.0000     -11.237120      -305.7776 
   2   2.0000     -11.227729      -305.5221 
   3   2.0000     -11.222238      -305.3726 
   4   2.0000     -11.209300      -305.0206 
   5   2.0000      -1.114264       -30.3207 
   6   2.0000      -1.014366       -27.6023 
   7   2.0000      -0.945614       -25.7315 
   8   2.0000      -0.811067       -22.0703 
   9   2.0000      -0.726748       -19.7758 
  10   2.0000      -0.676071       -18.3968 
  11   2.0000      -0.597857       -16.2685 
  12   2.0000      -0.582491       -15.8504 
  13   2.0000      -0.559843       -15.2341 
  14   2.0000      -0.552101       -15.0234 
  15   2.0000      -0.507961       -13.8223 
  16   2.0000      -0.487243       -13.2585 
  17   2.0000      -0.388164       -10.5625 
  18   2.0000      -0.303601        -8.2614 
  19   0.0000       0.126012         3.4290 
  20   0.0000       0.207245         5.6394 
  21   0.0000       0.245091         6.6693 
  22   0.0000       0.277148         7.5416 
  23   0.0000       0.292441         7.9577 
  24   0.0000       0.326828         8.8934 
  25   0.0000       0.336557         9.1582 
  26   0.0000       0.355658         9.6779 
  27   0.0000       0.381561        10.3828 
  28   0.0000       0.385268        10.4837 
  29   0.0000       0.434921        11.8348 
*Only the first 10 virtual orbitals were printed.

                    ********************************
                    * MULLIKEN POPULATION ANALYSIS *
                    ********************************

-----------------------
MULLIKEN ATOMIC CHARGES
-----------------------
   0 C :   -0.528040
   1 H :    0.200232
   2 C :   -0.408763
   3 C :   -0.158811
   4 C :   -0.198542
   5 C :   -0.131733
   6 H :    0.156694
   7 H :    0.173958
   8 H :    0.190878
   9 H :    0.167101
  10 H :    0.177862
  11 H :    0.176535
  12 H :    0.182630
Sum of atomic charges:    0.0000000

--------------------------------
MULLIKEN REDUCED ORBITAL CHARGES
--------------------------------
  0 C s       :     3.376195  s :     3.376195
      pz      :     1.061212  p :     3.151845
      px      :     1.105718
      py      :     0.984915

  1 H s       :     0.799768  s :     0.799768

  2 C s       :     3.297859  s :     3.297859
      pz      :     1.011152  p :     3.110904
      px      :     1.088668
      py      :     1.011083

  3 C s       :     3.199746  s :     3.199746
      pz      :     0.974735  p :     2.959065
      px      :     0.977530
      py      :     1.006800

  4 C s       :     3.199286  s :     3.199286
      pz      :     1.005566  p :     2.999256
      px      :     0.930512
      py      :     1.063177

  5 C s       :     3.210118  s :     3.210118
      pz      :     0.933073  p :     2.921615
      px      :     1.009654
      py      :     0.978888

  6 H s       :     0.843306  s :     0.843306

  7 H s       :     0.826042  s :     0.826042

  8 H s       :     0.809122  s :     0.809122

  9 H s       :     0.832899  s :     0.832899

 10 H s       :     0.822138  s :     0.822138

 11 H s       :     0.823465  s :     0.823465

 12 H s       :     0.817370  s :     0.817370



                     *******************************
                     * LOEWDIN POPULATION ANALYSIS *
                     *******************************

----------------------
LOEWDIN ATOMIC CHARGES
----------------------
   0 C :   -0.331862
   1 H :    0.149591
   2 C :   -0.270025
   3 C :   -0.114622
   4 C :   -0.155633
   5 C :   -0.100328
   6 H :    0.110134
   7 H :    0.114882
   8 H :    0.123807
   9 H :    0.116921
  10 H :    0.119469
  11 H :    0.117764
  12 H :    0.119904

-------------------------------
LOEWDIN REDUCED ORBITAL CHARGES
-------------------------------
  0 C s       :     2.982906  s :     2.982906
      pz      :     1.117224  p :     3.348957
      px      :     1.143163
      py      :     1.088569

  1 H s       :     0.850409  s :     0.850409

  2 C s       :     2.994614  s :     2.994614
      pz      :     1.050617  p :     3.275411
      px      :     1.117157
      py      :     1.107637

  3 C s       :     2.944665  s :     2.944665
      pz      :     0.988442  p :     3.169958
      px      :     1.076748
      py      :     1.104768

  4 C s       :     2.942454  s :     2.942454
      pz      :     1.079171  p :     3.213180
      px      :     1.060850
      py      :     1.073159

  5 C s       :     2.953962  s :     2.953962
      pz      :     1.034565  p :     3.146365
      px      :     1.059026
      py      :     1.052775

  6 H s       :     0.889866  s :     0.889866

  7 H s       :     0.885118  s :     0.885118

  8 H s       :     0.876193  s :     0.876193

  9 H s       :     0.883079  s :     0.883079

 10 H s       :     0.880531  s :     0.880531

 11 H s       :     0.882236  s :     0.882236

 12 H s       :     0.880096  s :     0.880096



                      *****************************
                      * MAYER POPULATION ANALYSIS *
                      *****************************

  NA   - Mulliken gross atomic population
  ZA   - Total nuclear charge
  QA   - Mulliken gross atomic charge
  VA   - Mayer's total valence
  BVA  - Mayer's bonded valence
  FA   - Mayer's free valence

  ATOM       NA         ZA         QA         VA         BVA        FA
  0 C      6.5280     6.0000    -0.5280     3.7501     3.7501    -0.0000
  1 H      0.7998     1.0000     0.2002     0.9107     0.9107     0.0000
  2 C      6.4088     6.0000    -0.4088     3.8047     3.8047     0.0000
  3 C      6.1588     6.0000    -0.1588     3.7918     3.7918     0.0000
  4 C      6.1985     6.0000    -0.1985     3.8102     3.8102     0.0000
  5 C      6.1317     6.0000    -0.1317     3.7400     3.7400     0.0000
  6 H      0.8433     1.0000     0.1567     0.9410     0.9410     0.0000
  7 H      0.8260     1.0000     0.1740     0.9190     0.9190    -0.0000
  8 H      0.8091     1.0000     0.1909     0.9252     0.9252     0.0000
  9 H      0.8329     1.0000     0.1671     0.9404     0.9404     0.0000
 10 H      0.8221     1.0000     0.1779     0.9356     0.9356     0.0000
 11 H      0.8235     1.0000     0.1765     0.9389     0.9389     0.0000
 12 H      0.8174     1.0000     0.1826     0.9381     0.9381     0.0000

  Mayer bond orders larger than 0.100000
B(  0-C ,  1-H ) :   0.8838 B(  0-C ,  5-C ) :   0.9846 B(  0-C ,  6-H ) :   0.9624 
B(  0-C ,  7-H ) :   0.9438 B(  2-C ,  3-C ) :   1.7779 B(  2-C ,  8-H ) :   0.9573 
B(  2-C ,  9-H ) :   0.9590 B(  3-C ,  4-C ) :   1.1111 B(  3-C , 10-H ) :   0.9575 
B(  4-C ,  5-C ) :   1.7950 B(  4-C , 11-H ) :   0.9575 B(  5-C , 12-H ) :   0.9550 


-------
TIMINGS
-------

Total SCF time: 0 days 0 hours 0 min 0 sec 

Total time                  ....       0.767 sec
Sum of individual times     ....       0.709 sec  ( 92.5%)

SCF preparation             ....       0.249 sec  ( 32.5%)
Fock matrix formation       ....       0.404 sec  ( 52.6%)
  Startup                   ....       0.001 sec  (  0.3% of F)
  Coulomb+Exchange Fock     ....       0.438 sec  (108.5% of F)
Diagonalization             ....       0.000 sec  (  0.0%)
Density matrix formation    ....       0.008 sec  (  1.0%)
Total Energy calculation    ....       0.005 sec  (  0.6%)
Population analysis         ....       0.005 sec  (  0.6%)
Orbital Transformation      ....       0.005 sec  (  0.6%)
Orbital Orthonormalization  ....       0.000 sec  (  0.0%)
DIIS solution               ....       0.021 sec  (  2.7%)
SOSCF solution              ....       0.014 sec  (  1.8%)
Finished LeanSCF after   0.8 sec

Maximum memory used throughout the entire LEANSCF-calculation: 6.5 MB

-------------------------   --------------------
FINAL SINGLE POINT ENERGY      -193.835319477794
-------------------------   --------------------



           ************************************************************
           *        Program running with 8 parallel MPI-processes     *
           *              working on a common directory               *
           ************************************************************

------------------------------------------------------------------------------
                              ORCA PROPERTY CALCULATIONS
------------------------------------------------------------------------------

GBWName                                 ... h-shift_042.gbw
Number of atoms                         ...     13
Number of basis functions               ...     61
Max core memory                         ...   1200 MB

Electric properties:
Dipole moment                           ... YES
Quadrupole moment                       ...  NO
Static polarizability (Dipole/Dipole)   ...  NO
Static polarizability (Dipole/Quad.)    ...  NO
Static polarizability (Quad./Quad.)     ...  NO
Static polarizability (Velocity)        ...  NO
Static hyperpolarizability              ...  NO

Atomic electric properties:
Dipole moment                           ...  NO
Quadrupole moment                       ...  NO
Static polarizability                   ...  NO

Choice of electric origin               ... Center of mass
Position of electric origin             ...     1.801195    -1.388105     2.065910

General magnetic properties:
Magnetizability                         ...  NO

EPR properties:
g-Tensor (aka g-matrix)                 ...  NO
Zero-Field splitting spin-orbit         ...  NO
Zero-field splitting spin-spin          ...  NO
Hyperfine couplings                     ...  NO (   0 nuclei)
Quadrupole couplings                    ...  NO (   0 nuclei)
Contact density                         ...  NO (   0 nuclei)

NMR properties:
Chemical shifts                         ...  NO (   0 nuclei)
Spin-rotation constants                 ...  NO (   0 nuclei)
Spin-spin couplings                     ...  NO (   0 nuclei,    0 pairs)

Choice of magnetic origin               ... GIAO
Position of magnetic origin             ...     0.000000     0.000000     0.000000

Properties with geometric perturbations:
SCF Hessian                             ...  NO
IR spectrum                             ...  NO
VCD spectrum                            ...  NO
X-ray spectroscopy properties:
SCF XES/XAS/RIXS spectra                ...  NO

SCF SOC stabilization energy            ...  NO
Diagonal Born-Oppenheimer correction    ...  NO

-------------
DIPOLE MOMENT
-------------

Method             : SCF
Type of density    : Electron Density
Multiplicity       :   1
Irrep              :   0
Energy             :  -193.8353194777944850 Eh
Basis              : AO
                                X                 Y                 Z
Electronic contribution:     -0.311949675      -1.719201683       1.805013269
Nuclear contribution   :      0.332638654       1.656161311      -1.957750929
                        -----------------------------------------
Total Dipole Moment    :      0.020688979      -0.063040372      -0.152737660
                        -----------------------------------------
Magnitude (a.u.)       :      0.166526019
Magnitude (Debye)      :      0.423275502



--------------------
Rotational spectrum 
--------------------
 
Rotational constants in cm-1:             0.272643             0.165059             0.106592 
Rotational constants in MHz :          8173.645926          4948.349822          3195.541057 

Dipole components along the rotational axes: 
x,y,z [a.u.] :    -0.051615     0.037839    -0.153737 
x,y,z [Debye]:    -0.131195     0.096180    -0.390768 

 

Dipole moment calculation done in   0.0 sec 

Maximum memory used throughout the entire PROP-calculation: 2.2 MB

--------------------------------
SUGGESTED CITATIONS FOR THIS RUN
--------------------------------

Below you find a list of papers that are relevant to this ORCA run
We neither can nor want to force you to cite these papers, but we appreciate if you do
You receive ORCA, which is the product of decades of hard work by many enthusiastic individuals, for free
The only thing we kindly ask in return is that you cite our papers,
We deeply appreciate it, if you show your appreciation for ORCA by not just citing the generic ORCA reference.

Please note that relegating all ORCA citations to the supporting information does *not* help us.
SI sections are not indexed - citations you put there will not count into any citation statistics
But we need these citations in order to attract the funding resources that allow us to do what we are doing

Therefore, if you are a happy ORCA user, please consider citing a few of the papers listed below in the main body of your paper

In addition to the list printed below, the program has created the file h-shift_042.bibtex that contains the list in bibtex format
You can import this file easily into all common literature databanks and citation aid programs


List of essential papers. We consider these as the minimum necessary citations

  1. Neese, F.
     Software update: the ORCA program system, version 6.0
     WIRES Comput. Molec. Sci. 2025 15(1), e70019
     doi.org/10.1002/wcms.7019

List of papers to cite with high priority. The work reported in these papers was absolutely
necessary for this run to complete.
Our perspective: the developers of density functionals and basis sets usually get cited in chemistry papers
Good! But without the algorithms to do something with them, the functionals or basis sets would not do anything.
Hence, in our opinion, the algorithm design and method developments papers are equally worthy of getting cited

  1. Neese, F.
     The SHARK Integral Generation and Digestion System
     J. Comp. Chem. 2022 44(3), 381
     doi.org/10.1002/jcc.26942

List of suggested additional citations. These are papers that are important in the 'surrounding' of 
of this run, or papers that preceded the highly important papers. If you like your results we are grateful for a citation.

  1. Neese, F.
     The ORCA program system
     WIRES Comput. Molec. Sci. 2012 2(1), 73-78
     doi.org/10.1002/wcms.81
  2. Neese, F.
     Software update: the ORCA program system, version 4.0
     WIRES Comput. Molec. Sci. 2018 8(1), 1-6
     doi.org/10.1002/wcms.1327
  3. Neese, F.; Wennmohs, F.; Becker, U.; Riplinger, C.
     The ORCA quantum chemistry program package
     J. Chem. Phys. 2020 152(22), 224108
     doi.org/10.1063/5.0004608
  4. Neese, F.
     Software update: The ORCA program system—Version 5.0
     WIRES Comput. Molec. Sci. 2022 12(1), e1606
     doi.org/10.1002/wcms.1606

List of optional additional citations

  1. Neese, F.
     Approximate second-order SCF convergence for spin unrestricted wavefunctions
     Chem. Phys. Lett. 2000 325(1-3), 93-98
     doi.org/10.1016/s0009-2614(00)00662-x

Timings for individual modules:

Sum of individual times          ...        2.369 sec (=   0.039 min)
Startup calculation              ...        0.660 sec (=   0.011 min)  27.8 %
SCF iterations                   ...        1.336 sec (=   0.022 min)  56.4 %
Property calculations            ...        0.374 sec (=   0.006 min)  15.8 %
                             ****ORCA TERMINATED NORMALLY****
TOTAL RUN TIME: 0 days 0 hours 0 minutes 2 seconds 862 msec
