[Molden Format]
[Title]
 Molden file created by orca_2mkl for BaseName=h-shift_058

[Atoms] AU
C    1   6         -0.6115380537         0.0547000127         0.0734838904 
H    2   1          3.6468842001        -0.0335955512         0.1237468262 
C    3   6          4.4722561042         0.0317530682         1.9929580932 
C    4   6          3.5146959673        -2.1945351799         3.4607575143 
C    5   6          1.1329456193        -3.0105038067         3.2925397630 
C    6   6         -0.6187209027        -2.1370837259         1.3189438038 
H    7   1         -1.4652426216         0.2142382518        -1.7559996641 
H    8   1          0.3164214130         1.7212324826         0.7412223993 
H    9   1          3.8494552827         1.8023678742         2.8273232039 
H   10   1          6.4992689520         0.0823561546         1.8141408680 
H   11   1          4.8587032088        -3.2526911080         4.5541965190 
H   12   1          0.5749453968        -4.6579935064         4.3427475030 
H   13   1         -1.8267245543        -3.6093126651         0.6141704422 
[GTO]
  1 0
s   6 1.0 
     3047.5249000000         0.5363343823
      457.3695100000         0.9894506076
      103.9486900000         1.5972822308
       29.2101550000         2.0791870615
        9.2866630000         1.7741742532
        3.1639270000         0.6125798260
s   3 1.0 
        7.8682724000        -0.3995563516
        1.8812885000        -0.1841552393
        0.5442493000         0.5163903794
p   3 1.0 
        7.8682724000         1.2960827175
        1.8812885000         0.9937536282
        0.5442493000         0.4959527138
s   1 1.0 
        0.1687144000         0.1876178721
p   1 1.0 
        0.1687144000         0.1541275509

  2 0
s   3 1.0 
       18.7311370000         0.2149354183
        2.8253937000         0.3645711272
        0.6401217000         0.4150514277
s   1 1.0 
        0.1612778000         0.1813806839

  3 0
s   6 1.0 
     3047.5249000000         0.5363343823
      457.3695100000         0.9894506076
      103.9486900000         1.5972822308
       29.2101550000         2.0791870615
        9.2866630000         1.7741742532
        3.1639270000         0.6125798260
s   3 1.0 
        7.8682724000        -0.3995563516
        1.8812885000        -0.1841552393
        0.5442493000         0.5163903794
p   3 1.0 
        7.8682724000         1.2960827175
        1.8812885000         0.9937536282
        0.5442493000         0.4959527138
s   1 1.0 
        0.1687144000         0.1876178721
p   1 1.0 
        0.1687144000         0.1541275509

  4 0
s   6 1.0 
     3047.5249000000         0.5363343823
      457.3695100000         0.9894506076
      103.9486900000         1.5972822308
       29.2101550000         2.0791870615
        9.2866630000         1.7741742532
        3.1639270000         0.6125798260
s   3 1.0 
        7.8682724000        -0.3995563516
        1.8812885000        -0.1841552393
        0.5442493000         0.5163903794
p   3 1.0 
        7.8682724000         1.2960827175
        1.8812885000         0.9937536282
        0.5442493000         0.4959527138
s   1 1.0 
        0.1687144000         0.1876178721
p   1 1.0 
        0.1687144000         0.1541275509

  5 0
s   6 1.0 
     3047.5249000000         0.5363343823
      457.3695100000         0.9894506076
      103.9486900000         1.5972822308
       29.2101550000         2.0791870615
        9.2866630000         1.7741742532
        3.1639270000         0.6125798260
s   3 1.0 
        7.8682724000        -0.3995563516
        1.8812885000        -0.1841552393
        0.5442493000         0.5163903794
p   3 1.0 
        7.8682724000         1.2960827175
        1.8812885000         0.9937536282
        0.5442493000         0.4959527138
s   1 1.0 
        0.1687144000         0.1876178721
p   1 1.0 
        0.1687144000         0.1541275509

  6 0
s   6 1.0 
     3047.5249000000         0.5363343823
      457.3695100000         0.9894506076
      103.9486900000         1.5972822308
       29.2101550000         2.0791870615
        9.2866630000         1.7741742532
        3.1639270000         0.6125798260
s   3 1.0 
        7.8682724000        -0.3995563516
        1.8812885000        -0.1841552393
        0.5442493000         0.5163903794
p   3 1.0 
        7.8682724000         1.2960827175
        1.8812885000         0.9937536282
        0.5442493000         0.4959527138
s   1 1.0 
        0.1687144000         0.1876178721
p   1 1.0 
        0.1687144000         0.1541275509

  7 0
s   3 1.0 
       18.7311370000         0.2149354183
        2.8253937000         0.3645711272
        0.6401217000         0.4150514277
s   1 1.0 
        0.1612778000         0.1813806839

  8 0
s   3 1.0 
       18.7311370000         0.2149354183
        2.8253937000         0.3645711272
        0.6401217000         0.4150514277
s   1 1.0 
        0.1612778000         0.1813806839

  9 0
s   3 1.0 
       18.7311370000         0.2149354183
        2.8253937000         0.3645711272
        0.6401217000         0.4150514277
s   1 1.0 
        0.1612778000         0.1813806839

 10 0
s   3 1.0 
       18.7311370000         0.2149354183
        2.8253937000         0.3645711272
        0.6401217000         0.4150514277
s   1 1.0 
        0.1612778000         0.1813806839

 11 0
s   3 1.0 
       18.7311370000         0.2149354183
        2.8253937000         0.3645711272
        0.6401217000         0.4150514277
s   1 1.0 
        0.1612778000         0.1813806839

 12 0
s   3 1.0 
       18.7311370000         0.2149354183
        2.8253937000         0.3645711272
        0.6401217000         0.4150514277
s   1 1.0 
        0.1612778000         0.1813806839

 13 0
s   3 1.0 
       18.7311370000         0.2149354183
        2.8253937000         0.3645711272
        0.6401217000         0.4150514277
s   1 1.0 
        0.1612778000         0.1813806839

[5D]
[7F]
[9G]
[MO]
 Sym=     1a
 Ene= -1.12366662727667E+01
 Spin= Alpha
 Occup= 2.000000
  1      -0.004458494636
  2      -0.000052544127
  3       0.000003434579
  4      -0.000004352570
  5       0.000041986553
  6      -0.000685400084
  7      -0.000045665356
  8       0.000027267081
  9      -0.000351404381
 10       0.000203047041
 11      -0.000435565809
 12      -0.012950198895
 13       0.000051200568
 14      -0.000010169325
 15      -0.000161305214
 16       0.000059446378
 17      -0.003535998971
 18       0.000967316092
 19       0.002202429342
 20      -0.001042204653
 21      -0.986038525211
 22      -0.024593614941
 23       0.000152867214
 24      -0.000036146920
 25       0.000112798807
 26       0.017128573399
 27      -0.001561829129
 28       0.001031446941
 29      -0.001536642056
 30      -0.104864362384
 31      -0.001618428590
 32       0.000188475296
 33       0.000129539503
 34      -0.000003981262
 35      -0.005395762290
 36      -0.002352528755
 37      -0.001954453422
 38       0.000730492974
 39      -0.093845695727
 40      -0.002098494093
 41       0.000113767066
 42      -0.000084374380
 43       0.000106548152
 44       0.001772030039
 45       0.000275887653
 46       0.000444876798
 47       0.000104801528
 48      -0.000003701310
 49      -0.000117240408
 50       0.000004683221
 51       0.000394643086
 52       0.000203124538
 53      -0.000848158690
 54       0.000084066602
 55      -0.000161653543
 56       0.000254385308
 57      -0.002097332503
 58       0.000071135977
 59      -0.000774665462
 60       0.000041410414
 61      -0.000168064476
 Sym=     1a
 Ene= -1.12363517915291E+01
 Spin= Alpha
 Occup= 2.000000
  1      -0.051652598321
  2      -0.000535492001
  3      -0.000052115193
  4      -0.000190192265
  5       0.000147358066
  6      -0.005098202801
  7      -0.000431821934
  8       0.002059307016
  9      -0.001868993738
 10       0.000088076090
 11      -0.000636875426
 12       0.001521651476
 13       0.000019459445
 14      -0.000040657135
 15      -0.000046083590
 16       0.000034059415
 17       0.000586404078
 18      -0.000251570378
 19      -0.000052220041
 20      -0.000333793751
 21       0.098458349944
 22       0.002790827180
 23      -0.000181363437
 24      -0.000027331570
 25      -0.000101789379
 26      -0.002110019844
 27       0.000949220857
 28       0.000157856985
 29       0.000483620771
 30      -0.037774687594
 31      -0.000449149784
 32      -0.000145764887
 33       0.000047991759
 34      -0.000118684293
 35      -0.002641030234
 36       0.001764746008
 37      -0.000912513415
 38       0.001544551265
 39      -0.989195620442
 40      -0.024779836446
 41      -0.000191453223
 42      -0.000087427138
 43       0.000068646422
 44       0.016998627031
 45       0.001439339030
 46       0.001341263777
 47       0.000171408876
 48       0.000086566755
 49      -0.000511183565
 50       0.000260537782
 51      -0.000000310493
 52      -0.000046035045
 53       0.000147651054
 54      -0.000012881343
 55       0.000033809886
 56      -0.000077782194
 57      -0.000202436379
 58       0.000074686242
 59      -0.000223193318
 60       0.000232609866
 61      -0.002249017866
 Sym=     1a
 Ene= -1.12285774092158E+01
 Spin= Alpha
 Occup= 2.000000
  1       0.006046073760
  2       0.000265306009
  3       0.000026153465
  4      -0.000107953138
  5       0.000154050504
  6       0.000916606735
  7       0.000259711807
  8      -0.000068591051
  9      -0.000082188083
 10      -0.000026412534
 11      -0.000198062410
 12       0.002499422365
 13       0.000071788950
 14      -0.000097252760
 15      -0.000093375723
 16       0.000105239763
 17       0.001613217100
 18      -0.000264417357
 19      -0.000636881372
 20      -0.000014435736
 21       0.101281592553
 22       0.003514710663
 23      -0.000227948780
 24      -0.000024858513
 25      -0.000056104080
 26      -0.009345560768
 27       0.003347751398
 28      -0.000080413262
 29       0.001524250187
 30      -0.989913824208
 31      -0.025150013218
 32      -0.000177894585
 33      -0.000133922465
 34       0.000297883831
 35       0.019582615934
 36       0.001673303250
 37       0.002417460147
 38      -0.002401865405
 39       0.047726567728
 40       0.001827781096
 41       0.000133656646
 42      -0.000045904494
 43       0.000107758398
 44      -0.006202821393
 45      -0.002448511531
 46       0.000052891433
 47      -0.001669221103
 48      -0.000054493622
 49      -0.000275802833
 50       0.000027399750
 51      -0.000215553658
 52       0.000008690997
 53       0.000144152910
 54      -0.000066663655
 55      -0.000225765651
 56       0.000040067514
 57      -0.000253969313
 58       0.000275247671
 59      -0.001737563262
 60       0.000090007865
 61      -0.000338524255
 Sym=     1a
 Ene= -1.12207095620836E+01
 Spin= Alpha
 Occup= 2.000000
  1       0.994786979779
  2       0.025082445789
  3       0.000167186469
  4      -0.000217040920
  5       0.000041287756
  6      -0.017168198120
  7      -0.000693652816
  8       0.001690746440
  9      -0.000915892363
 10      -0.000129569418
 11       0.001748637664
 12      -0.000374310096
 13      -0.000080709514
 14       0.000149141829
 15      -0.000017411006
 16      -0.000069385580
 17      -0.000152318307
 18      -0.000726315410
 19      -0.000058855156
 20       0.001092210586
 21       0.000101258061
 22       0.000073518472
 23       0.000032791801
 24      -0.000017660461
 25       0.000032351878
 26      -0.000524777524
 27      -0.000093441711
 28      -0.000558929375
 29       0.000233590146
 30       0.003576245768
 31       0.000006362414
 32       0.000071908243
 33      -0.000082808844
 34       0.000092102664
 35      -0.000309888691
 36      -0.000247493352
 37       0.000130097638
 38      -0.000208909177
 39      -0.052634432698
 40      -0.002120926563
 41       0.000033737054
 42      -0.000264363633
 43       0.000134992513
 44       0.006894035484
 45       0.000107103341
 46       0.002732179700
 47      -0.001533059372
 48      -0.000185242851
 49       0.002717562858
 50      -0.000061011952
 51       0.002776542031
 52      -0.000027088317
 53      -0.000664302156
 54       0.000086220362
 55       0.000486599263
 56      -0.000016392956
 57      -0.000091185047
 58       0.000039921490
 59       0.000271546129
 60      -0.000119923028
 61      -0.000002709595
 Sym=     1a
 Ene= -1.12118319740846E+01
 Spin= Alpha
 Occup= 2.000000
  1       0.000373281611
  2      -0.000073142724
  3      -0.000077318371
  4      -0.000026342146
  5      -0.000132338265
  6       0.000378675557
  7       0.000351045176
  8      -0.000170683473
  9       0.000947003636
 10       0.000067640749
 11       0.003473822459
 12       0.996113857688
 13       0.026222843207
 14      -0.000113587835
 15      -0.000028493943
 16       0.000048313202
 17      -0.019331019353
 18       0.000752219189
 19       0.000772764649
 20      -0.000424430191
 21      -0.013384032822
 22      -0.000756941953
 23      -0.000077339116
 24      -0.000097608031
 25       0.000064199664
 26       0.004070273525
 27       0.001440730522
 28       0.002123235001
 29      -0.001242100122
 30       0.001162671708
 31      -0.000189216943
 32      -0.000111075592
 33      -0.000087031228
 34       0.000023792077
 35       0.000746273229
 36       0.000690798283
 37       0.000516309958
 38      -0.000107231356
 39       0.000161444720
 40       0.000006911405
 41      -0.000069648865
 42      -0.000043770624
 43      -0.000014895653
 44      -0.000708563895
 45      -0.000168137719
 46      -0.000409029932
 47       0.000025626146
 48       0.000105588489
 49       0.000519855003
 50      -0.000029867268
 51      -0.000256540094
 52       0.000069653935
 53       0.003331542222
 54       0.000025689271
 55       0.003067354071
 56      -0.000156255817
 57      -0.000022888517
 58       0.000041444009
 59       0.000486805168
 60      -0.000020050880
 61      -0.000008100209
 Sym=     1a
 Ene= -1.10505027660930E+00
 Spin= Alpha
 Occup= 2.000000
  1      -0.074224531312
  2       0.144040097606
  3       0.010289695294
  4      -0.053581521410
  5       0.035163720169
  6       0.099856518252
  7       0.002237135978
  8      -0.002789222424
  9      -0.002234937283
 10       0.043333867178
 11      -0.000275879234
 12      -0.071558631348
 13       0.131678567144
 14      -0.025836025916
 15      -0.033868618335
 16       0.015926105393
 17       0.127311005833
 18      -0.016161039954
 19      -0.004341497844
 20      -0.000326097663
 21      -0.113933476656
 22       0.226126755643
 23      -0.066041890171
 24      -0.001114192770
 25      -0.027581870508
 26       0.134703557913
 27       0.001402623205
 28      -0.004154971749
 29       0.002455470675
 30      -0.124243702346
 31       0.244865359499
 32       0.042713307032
 33       0.039983372891
 34      -0.035225712401
 35       0.161791129610
 36       0.001333930014
 37       0.002831299310
 38      -0.005926527894
 39      -0.108795590309
 40       0.215126285765
 41       0.040925270544
 42       0.024801942476
 43       0.009686152250
 44       0.137711712778
 45       0.007155146697
 46       0.000318085580
 47       0.002898638871
 48       0.032372858634
 49       0.000887105209
 50       0.039617440036
 51       0.006277918148
 52       0.036184521788
 53       0.000055626414
 54       0.032365355470
 55       0.006223548471
 56       0.051984413858
 57       0.003979040676
 58       0.056740384331
 59       0.007012809892
 60       0.052235415789
 61       0.008171427067
 Sym=     1a
 Ene= -1.01770877994411E+00
 Spin= Alpha
 Occup= 2.000000
  1      -0.123894678232
  2       0.242598026608
  3      -0.005054672987
  4      -0.078276340849
  5       0.035225042421
  6       0.190599649530
  7       0.002176899779
  8      -0.003652543981
  9       0.004303946386
 10      -0.049581210969
 11      -0.005240024715
 12       0.097139003687
 13      -0.185221710080
 14       0.010797784353
 15       0.032536637586
 16      -0.022900416504
 17      -0.171816519273
 18      -0.000323086347
 19       0.001548535862
 20      -0.003444390283
 21       0.101330335032
 22      -0.201437575366
 23      -0.000171604326
 24      -0.021095546336
 25       0.019575103900
 26      -0.150332728189
 27       0.000587642957
 28      -0.004840533592
 29       0.005026070971
 30       0.021117690201
 31      -0.041772882622
 32      -0.101963153925
 33      -0.002924041673
 34      -0.042587987071
 35      -0.026370495841
 36      -0.006798670963
 37       0.011279943096
 38      -0.010084633934
 39      -0.117595267265
 40       0.234796276621
 41      -0.015049369832
 42       0.073971718213
 43      -0.060681774571
 44       0.164734296720
 45      -0.008550279550
 46      -0.005441205936
 47      -0.007401276339
 48       0.071592993153
 49       0.016529229145
 50       0.062539731619
 51       0.005936863311
 52      -0.055474050507
 53      -0.005354104409
 54      -0.057846640807
 55      -0.009056708608
 56      -0.062455410443
 57      -0.016606191445
 58      -0.010479549893
 59       0.003212098986
 60       0.070774432702
 61       0.012360984676
 Sym=     1a
 Ene= -9.42846420597223E-01
 Spin= Alpha
 Occup= 2.000000
  1       0.077975324844
  2      -0.151336974422
  3      -0.004735068929
  4       0.005840782675
  5      -0.001241221480
  6      -0.138305498513
  7      -0.007769549150
  8      -0.001865181094
  9      -0.000390245675
 10      -0.101945435932
 11      -0.020695475657
 12       0.138556161427
 13      -0.259697356453
 14      -0.007372932531
 15      -0.020751732809
 16       0.015165780649
 17      -0.295024417823
 18       0.007660747679
 19      -0.001392340580
 20       0.002482681868
 21      -0.029088492186
 22       0.054878514051
 23      -0.125527656720
 24      -0.113256615334
 25       0.043756444458
 26       0.072553341842
 27      -0.018712461146
 28      -0.008585534004
 29       0.001252036084
 30      -0.119603469537
 31       0.237814503691
 32       0.034134208138
 33      -0.016069496905
 34       0.009431802035
 35       0.187325383684
 36      -0.004818686918
 37      -0.016064348215
 38       0.004345357569
 39      -0.002952627163
 40       0.006855480753
 41       0.040103104481
 42      -0.088644143779
 43       0.086267037039
 44       0.009208029039
 45       0.012139728829
 46      -0.005256729486
 47       0.014988527902
 48      -0.056317749078
 49      -0.017787992020
 50      -0.062439865056
 51      -0.019076625855
 52      -0.099268870057
 53      -0.024029445456
 54      -0.099958668320
 55      -0.028041728390
 56       0.020398070187
 57       0.007338464200
 58       0.091462006276
 59       0.025182470422
 60       0.007337569829
 61       0.006592436979
 Sym=     1a
 Ene= -8.11703959249820E-01
 Spin= Alpha
 Occup= 2.000000
  1      -0.101685171540
  2       0.201927054463
  3      -0.001688879744
  4       0.077997445759
  5      -0.050389436267
  6       0.192381428490
  7       0.001141031752
  8       0.031220882247
  9      -0.019439935336
 10      -0.055784430480
 11      -0.022499645984
 12       0.062725060151
 13      -0.119524689103
 14      -0.028841653268
 15      -0.065568494594
 16       0.042798161498
 17      -0.149564111917
 18      -0.016205639604
 19      -0.015317006768
 20       0.008812671072
 21      -0.092298582120
 22       0.185264356229
 23      -0.011300903951
 24      -0.073815259145
 25       0.057907060045
 26       0.180969640242
 27       0.015761611382
 28      -0.014981200811
 29       0.018572489169
 30       0.027694861719
 31      -0.057295982171
 32       0.196148086491
 33       0.020597515364
 34       0.088985475995
 35      -0.047493658569
 36       0.046239053777
 37       0.006014399943
 38       0.019821067288
 39       0.085602969122
 40      -0.174589838790
 41      -0.011236354348
 42       0.149779074514
 43      -0.083954978704
 44      -0.164144275139
 45      -0.000757551886
 46       0.049528982092
 47      -0.023928905983
 48       0.113508589694
 49       0.048335616801
 50       0.108586287195
 51       0.041443203972
 52      -0.062679708566
 53      -0.025388136992
 54      -0.066491618893
 55      -0.022526486995
 56       0.109762860511
 57       0.044030950823
 58      -0.037162398648
 59      -0.016858020992
 60      -0.109618180174
 61      -0.046007655591
 Sym=     1a
 Ene= -7.21514468059578E-01
 Spin= Alpha
 Occup= 2.000000
  1      -0.036629694508
  2       0.072057115282
  3       0.070729605516
  4       0.194795980258
  5      -0.020251493770
  6       0.080442887029
  7       0.027579063834
  8       0.062038907623
  9      -0.009347936239
 10       0.076962121728
 11       0.040421259047
 12      -0.017957776690
 13       0.029548427796
 14      -0.041426777159
 15       0.111809052436
 16      -0.094243149120
 17       0.056212784599
 18      -0.022230626651
 19       0.040413159407
 20      -0.035239389490
 21       0.074294192693
 22      -0.151003644298
 23      -0.182508995875
 24       0.003950688698
 25      -0.046198905654
 26      -0.159587524961
 27      -0.072851708676
 28       0.010190002006
 29      -0.022359968117
 30      -0.079543885362
 31       0.162269680029
 32      -0.027544691317
 33      -0.034735973942
 34       0.031118438332
 35       0.162899458671
 36      -0.026039199772
 37      -0.035372337713
 38       0.018414502267
 39       0.070375426714
 40      -0.142416200895
 41       0.122225727039
 42       0.021578480562
 43       0.129285611518
 44      -0.143913127810
 45       0.046395230581
 46       0.035445255663
 47       0.036772404547
 48       0.038867617056
 49       0.018920332884
 50       0.140236088162
 51       0.085071588646
 52       0.056159995256
 53       0.029871447433
 54      -0.002084985239
 55      -0.002824772501
 56      -0.152091862536
 57      -0.076599899960
 58       0.105720001177
 59       0.043395411777
 60      -0.137719744606
 61      -0.066279737869
 Sym=     1a
 Ene= -6.69883771686229E-01
 Spin= Alpha
 Occup= 2.000000
  1       0.022269892370
  2      -0.044347495922
  3       0.087694050270
  4      -0.077749943736
  5       0.163836412090
  6      -0.062041938862
  7       0.038392857830
  8      -0.018907632504
  9       0.058623981400
 10       0.016865435964
 11       0.011545670830
 12       0.018691170933
 13      -0.035541611680
 14      -0.145592799831
 15      -0.069393664739
 16       0.006967535411
 17      -0.053389517498
 18      -0.068538436061
 19      -0.024295045926
 20      -0.001327031968
 21      -0.021800875913
 22       0.045050387557
 23      -0.129680406681
 24       0.097950542872
 25      -0.110651230224
 26       0.032190867758
 27      -0.036371250375
 28       0.038527766721
 29      -0.040338967842
 30       0.021291029959
 31      -0.040618924593
 32       0.094988643224
 33       0.238057644471
 34      -0.145307617267
 35      -0.060942616531
 36       0.038209934234
 37       0.098223068563
 38      -0.055960423235
 39      -0.023528242422
 40       0.049420455330
 41       0.123444431249
 42       0.135916569276
 43       0.034031001865
 44       0.045754660710
 45       0.043526756375
 46       0.043512420133
 47       0.009984986380
 48      -0.131440469065
 49      -0.082861503263
 50      -0.004768760587
 51      -0.008683370223
 52      -0.024659772053
 53      -0.015072103001
 54      -0.102632181267
 55      -0.060472088126
 56      -0.086830704787
 57      -0.059539276267
 58      -0.187899254223
 59      -0.113513005532
 60      -0.080253836577
 61      -0.057770332212
 Sym=     1a
 Ene= -6.00100630506855E-01
 Spin= Alpha
 Occup= 2.000000
  1      -0.008624755933
  2       0.019414872250
  3       0.139314440555
  4       0.095827386249
  5       0.247569376250
  6       0.032282710841
  7       0.062931659764
  8       0.047331615365
  9       0.114835233491
 10      -0.077369797298
 11      -0.053579747092
 12       0.011054648657
 13      -0.022303947438
 14       0.116598136985
 15      -0.015198203418
 16       0.082435853781
 17      -0.026555590783
 18       0.041065214006
 19      -0.009767288024
 20       0.039894639207
 21       0.003973505858
 22      -0.009766986927
 23       0.246376749232
 24      -0.013278631006
 25       0.104560051808
 26      -0.010845776798
 27       0.106975180383
 28      -0.017004584640
 29       0.056131417354
 30       0.008991382799
 31      -0.021239901090
 32      -0.211307388683
 33      -0.036176629729
 34      -0.022595641050
 35       0.019566300662
 36      -0.059995651691
 37       0.010429766029
 38      -0.011478283336
 39      -0.018233173108
 40       0.042390887478
 41       0.101817274083
 42       0.098920836683
 43       0.146021709343
 44       0.025615796465
 45       0.022535014679
 46       0.025543166326
 47       0.058737531962
 48      -0.160591413590
 49      -0.112781664885
 50       0.142772740138
 51       0.092225157231
 52      -0.014530263422
 53      -0.004477241311
 54       0.058082761052
 55       0.051007478042
 56       0.139042273355
 57       0.094821530983
 58       0.037446872761
 59       0.037471553481
 60      -0.092596768145
 61      -0.075527139813
 Sym=     1a
 Ene= -5.83895575367243E-01
 Spin= Alpha
 Occup= 2.000000
  1      -0.007032426747
  2       0.019097261257
  3      -0.018731651864
  4      -0.281084153142
  5       0.166403378592
  6      -0.017852722297
  7      -0.012982956418
  8      -0.103014890928
  9       0.057609093473
 10       0.004961587844
 11       0.001614177778
 12      -0.008614555656
 13       0.012221151988
 14       0.089460969358
 15       0.192929144241
 16      -0.049459363777
 17       0.040243372185
 18       0.039350251942
 19       0.081276246188
 20      -0.016465022775
 21       0.022697683967
 22      -0.045776859565
 23      -0.131828939118
 24      -0.131794090988
 25       0.108999133888
 26      -0.079685782016
 27      -0.051304410227
 28      -0.049382906084
 29       0.047512542378
 30      -0.012809099042
 31       0.026434232523
 32       0.140204720492
 33      -0.050356561190
 34       0.166264580908
 35       0.024941541741
 36       0.050118773258
 37      -0.023516837945
 38       0.072811431430
 39      -0.006431945910
 40       0.015989691638
 41      -0.030607357627
 42       0.298262310155
 43      -0.153108597129
 44      -0.006998294885
 45      -0.005068702511
 46       0.108862311485
 47      -0.043284901874
 48      -0.097896982330
 49      -0.077154457852
 50      -0.107760887687
 51      -0.077087761724
 52       0.082398750152
 53       0.062166328445
 54       0.071677108120
 55       0.051826887107
 56      -0.003780177942
 57       0.001211091258
 58       0.071459197019
 59       0.048376336506
 60      -0.086606370810
 61      -0.064031385243
 Sym=     1a
 Ene= -5.67720734297470E-01
 Spin= Alpha
 Occup= 2.000000
  1      -0.003809531814
  2       0.007098541427
  3       0.030777602167
  4      -0.050589275527
  5       0.007448266056
  6       0.007535388263
  7       0.017979966197
  8      -0.016628935269
  9      -0.009420198395
 10       0.157039286977
 11       0.126324371158
 12      -0.000419406319
 13       0.001735958958
 14       0.153511721447
 15      -0.217698757105
 16      -0.309934207956
 17       0.000043370513
 18       0.079711587144
 19      -0.112982005675
 20      -0.154114433887
 21       0.009875702318
 22      -0.019238768532
 23       0.030865909306
 24      -0.108665519136
 25      -0.077513114949
 26      -0.035219550506
 27       0.018204058907
 28      -0.050835899478
 29      -0.040117754991
 30      -0.004506113664
 31       0.007608559012
 32       0.021088211016
 33      -0.048413307506
 34      -0.051366144896
 35       0.016249551168
 36       0.017703311227
 37      -0.028863962428
 38      -0.034986688110
 39       0.002493152517
 40      -0.006513199207
 41       0.066407070537
 42       0.049258291631
 43      -0.018685769192
 44      -0.007272853640
 45       0.038195884358
 46       0.025982423289
 47      -0.008906396152
 48      -0.011486651014
 49      -0.013167728432
 50      -0.021366073153
 51      -0.026992098926
 52      -0.242719796025
 53      -0.189694046042
 54       0.117131304096
 55       0.087793379387
 56       0.010384172608
 57       0.009920834500
 58       0.009118658273
 59       0.007200921911
 60      -0.049869775426
 61      -0.034639203356
 Sym=     1a
 Ene= -5.44964100983271E-01
 Spin= Alpha
 Occup= 2.000000
  1       0.016540566148
  2      -0.036430501898
  3       0.103581574387
  4       0.060454213219
  5       0.117851431685
  6      -0.024244052128
  7       0.070195433074
  8       0.027825808986
  9       0.072982054362
 10       0.183738576569
 11       0.141924596404
 12       0.006616772820
 13      -0.018112815402
 14      -0.257769415976
 15       0.070120577296
 16      -0.189887049474
 17       0.014065857103
 18      -0.155800139999
 19       0.031135253790
 20      -0.097126983622
 21      -0.007327238707
 22       0.015379636533
 23       0.054312743340
 24      -0.119074884636
 25       0.070283194681
 26       0.009081122295
 27       0.042020155252
 28      -0.079638513605
 29       0.049537439282
 30       0.034482673417
 31      -0.076545105135
 32       0.040407295620
 33      -0.107974269900
 34       0.068863164226
 35      -0.070008727277
 36       0.019523317460
 37      -0.025122826174
 38       0.007892642333
 39      -0.007170098449
 40       0.013469355313
 41      -0.120950556977
 42      -0.086251641267
 43      -0.099744688944
 44       0.008372275761
 45      -0.073277847202
 46      -0.064669470265
 47      -0.060869356344
 48      -0.123152767627
 49      -0.086527142358
 50       0.093640366401
 51       0.072416440304
 52       0.036880116184
 53       0.027251787413
 54      -0.175729488106
 55      -0.133519305453
 56       0.102362598351
 57       0.064057046753
 58       0.031787216394
 59       0.040550591486
 60       0.126957064182
 61       0.086484540505
 Sym=     1a
 Ene= -5.08102407402388E-01
 Spin= Alpha
 Occup= 2.000000
  1       0.011643468997
  2      -0.025698921656