[Molden Format]
[Title]
 Molden file created by orca_2mkl for BaseName=h-shift_008

[Atoms] AU
C    1   6         -0.0345328554         0.0196285854        -0.3516988205 
H    2   1          1.8873564173         0.0356270068        -1.0572715363 
C    3   6          4.8979906151         0.0085302238         2.9220192702 
C    4   6          3.8995235767        -2.2515217612         3.3741079018 
C    5   6          1.2505224897        -3.0391841802         3.0882792652 
C    6   6         -0.4419256845        -2.1188251920         1.4696910370 
H    7   1         -1.3079966203        -0.0967728753        -1.9438176548 
H    8   1         -0.3586076593         1.8311295060         0.5641134866 
H    9   1          3.7911118781         1.6142154020         2.3807412342 
H   10   1          6.8925341885         0.3254202889         3.0986746486 
H   11   1          5.1502520465        -3.7304837945         4.0078672451 
H   12   1          0.6862861709        -4.6020935176         4.2639119082 
H   13   1         -2.2831860123        -2.9850662032         1.4277542346 
[GTO]
  1 0
s   6 1.0 
     3047.5249000000         0.5363343823
      457.3695100000         0.9894506076
      103.9486900000         1.5972822308
       29.2101550000         2.0791870615
        9.2866630000         1.7741742532
        3.1639270000         0.6125798260
s   3 1.0 
        7.8682724000        -0.3995563516
        1.8812885000        -0.1841552393
        0.5442493000         0.5163903794
p   3 1.0 
        7.8682724000         1.2960827175
        1.8812885000         0.9937536282
        0.5442493000         0.4959527138
s   1 1.0 
        0.1687144000         0.1876178721
p   1 1.0 
        0.1687144000         0.1541275509

  2 0
s   3 1.0 
       18.7311370000         0.2149354183
        2.8253937000         0.3645711272
        0.6401217000         0.4150514277
s   1 1.0 
        0.1612778000         0.1813806839

  3 0
s   6 1.0 
     3047.5249000000         0.5363343823
      457.3695100000         0.9894506076
      103.9486900000         1.5972822308
       29.2101550000         2.0791870615
        9.2866630000         1.7741742532
        3.1639270000         0.6125798260
s   3 1.0 
        7.8682724000        -0.3995563516
        1.8812885000        -0.1841552393
        0.5442493000         0.5163903794
p   3 1.0 
        7.8682724000         1.2960827175
        1.8812885000         0.9937536282
        0.5442493000         0.4959527138
s   1 1.0 
        0.1687144000         0.1876178721
p   1 1.0 
        0.1687144000         0.1541275509

  4 0
s   6 1.0 
     3047.5249000000         0.5363343823
      457.3695100000         0.9894506076
      103.9486900000         1.5972822308
       29.2101550000         2.0791870615
        9.2866630000         1.7741742532
        3.1639270000         0.6125798260
s   3 1.0 
        7.8682724000        -0.3995563516
        1.8812885000        -0.1841552393
        0.5442493000         0.5163903794
p   3 1.0 
        7.8682724000         1.2960827175
        1.8812885000         0.9937536282
        0.5442493000         0.4959527138
s   1 1.0 
        0.1687144000         0.1876178721
p   1 1.0 
        0.1687144000         0.1541275509

  5 0
s   6 1.0 
     3047.5249000000         0.5363343823
      457.3695100000         0.9894506076
      103.9486900000         1.5972822308
       29.2101550000         2.0791870615
        9.2866630000         1.7741742532
        3.1639270000         0.6125798260
s   3 1.0 
        7.8682724000        -0.3995563516
        1.8812885000        -0.1841552393
        0.5442493000         0.5163903794
p   3 1.0 
        7.8682724000         1.2960827175
        1.8812885000         0.9937536282
        0.5442493000         0.4959527138
s   1 1.0 
        0.1687144000         0.1876178721
p   1 1.0 
        0.1687144000         0.1541275509

  6 0
s   6 1.0 
     3047.5249000000         0.5363343823
      457.3695100000         0.9894506076
      103.9486900000         1.5972822308
       29.2101550000         2.0791870615
        9.2866630000         1.7741742532
        3.1639270000         0.6125798260
s   3 1.0 
        7.8682724000        -0.3995563516
        1.8812885000        -0.1841552393
        0.5442493000         0.5163903794
p   3 1.0 
        7.8682724000         1.2960827175
        1.8812885000         0.9937536282
        0.5442493000         0.4959527138
s   1 1.0 
        0.1687144000         0.1876178721
p   1 1.0 
        0.1687144000         0.1541275509

  7 0
s   3 1.0 
       18.7311370000         0.2149354183
        2.8253937000         0.3645711272
        0.6401217000         0.4150514277
s   1 1.0 
        0.1612778000         0.1813806839

  8 0
s   3 1.0 
       18.7311370000         0.2149354183
        2.8253937000         0.3645711272
        0.6401217000         0.4150514277
s   1 1.0 
        0.1612778000         0.1813806839

  9 0
s   3 1.0 
       18.7311370000         0.2149354183
        2.8253937000         0.3645711272
        0.6401217000         0.4150514277
s   1 1.0 
        0.1612778000         0.1813806839

 10 0
s   3 1.0 
       18.7311370000         0.2149354183
        2.8253937000         0.3645711272
        0.6401217000         0.4150514277
s   1 1.0 
        0.1612778000         0.1813806839

 11 0
s   3 1.0 
       18.7311370000         0.2149354183
        2.8253937000         0.3645711272
        0.6401217000         0.4150514277
s   1 1.0 
        0.1612778000         0.1813806839

 12 0
s   3 1.0 
       18.7311370000         0.2149354183
        2.8253937000         0.3645711272
        0.6401217000         0.4150514277
s   1 1.0 
        0.1612778000         0.1813806839

 13 0
s   3 1.0 
       18.7311370000         0.2149354183
        2.8253937000         0.3645711272
        0.6401217000         0.4150514277
s   1 1.0 
        0.1612778000         0.1813806839

[5D]
[7F]
[9G]
[MO]
 Sym=     1a
 Ene= -1.12361264021540E+01
 Spin= Alpha
 Occup= 2.000000
  1       0.000320675186
  2      -0.000015159537
  3      -0.000010938756
  4       0.000044198812
  5      -0.000052566786
  6       0.000058674722
  7      -0.000330508733
  8      -0.000214355303
  9       0.000280804609
 10      -0.000099990399
 11       0.000543367188
 12       0.058373952982
 13       0.000603316401
 14       0.000089837516
 15       0.000173792536
 16      -0.000066932107
 17       0.005559172828
 18      -0.001992885920
 19      -0.001992492092
 20       0.000302996773
 21       0.992825540939
 22       0.024853890566
 23      -0.000070974023
 24       0.000161022363
 25      -0.000075286256
 26      -0.017360042258
 27       0.001416091723
 28      -0.001781246606
 29       0.000780442682
 30       0.046149873060
 31       0.000481093294
 32      -0.000181333213
 33      -0.000069678190
 34      -0.000030548349
 35       0.003965649395
 36       0.002340353347
 37       0.001401329911
 38       0.000087368341
 39       0.032118506142
 40       0.000554113372
 41      -0.000198505223
 42       0.000041097043
 43      -0.000062471344
 44      -0.000607982084
 45       0.000472298566
 46      -0.000401150846
 47       0.000248131975
 48      -0.000000134866
 49      -0.000000292045
 50       0.000003071929
 51      -0.000012580683
 52      -0.000276884127
 53      -0.000325237221
 54      -0.000080781515
 55       0.000495535729
 56      -0.000266503273
 57       0.002053253893
 58      -0.000083297016
 59       0.000445841396
 60       0.000041263084
 61       0.000470162930
 Sym=     1a
 Ene= -1.12353018127702E+01
 Spin= Alpha
 Occup= 2.000000
  1      -0.016509502508
  2       0.000002644529
  3      -0.000023134976
  4      -0.000161083688
  5       0.000036391554
  6      -0.003668561084
  7      -0.000166835488
  8       0.002170291410
  9      -0.001443354744
 10       0.000200309320
 11      -0.000092016701
 12       0.002697806679
 13       0.000070545041
 14      -0.000042248994
 15       0.000029352652
 16      -0.000001436127
 17      -0.000203081842
 18       0.000253721537
 19      -0.000152642397
 20       0.000055889831
 21       0.036739073060
 22       0.001075014740
 23      -0.000183236334
 24      -0.000031477688
 25      -0.000049544261
 26       0.000102030112
 27      -0.000271604142
 28       0.000224638367
 29      -0.000210764724
 30      -0.103509913106
 31      -0.001588271965
 32      -0.000137767625
 33       0.000128018596
 34      -0.000178103738
 35      -0.005242322519
 36       0.000967643285
 37      -0.002001954475
 38       0.002337479370
 39      -0.989910938105
 40      -0.024716570860
 41      -0.000160760850
 42      -0.000023215753
 43      -0.000060639751
 44       0.017213348644
 45       0.002246250064
 46       0.000875118568
 47       0.000044468175
 48       0.000091993464
 49      -0.000197023279
 50       0.000199850845
 51      -0.000899259378
 52       0.000005458170
 53       0.000350757657
 54      -0.000012238774
 55      -0.000105471334
 56      -0.000005153746
 57       0.000072924637
 58       0.000047993086
 59      -0.000797757672
 60       0.000265831046
 61      -0.002073554117
 Sym=     1a
 Ene= -1.12274084271263E+01
 Spin= Alpha
 Occup= 2.000000
  1       0.003832825147
  2       0.000077006623
  3      -0.000006968579
  4      -0.000114150393
  5       0.000140257615
  6       0.001796483107
  7       0.000300704418
  8      -0.000646257119
  9       0.000449886172
 10      -0.000064829559
 11      -0.000182570903
 12       0.008036830692
 13       0.000359663648
 14      -0.000158705652
 15      -0.000130682730
 16       0.000047519506
 17       0.000784315486
 18      -0.000017961714
 19       0.000126441612
 20      -0.000262271772
 21       0.042358733806
 22       0.001714795242
 23      -0.000163519702
 24      -0.000035331265
 25      -0.000032981364
 26      -0.006045662696
 27       0.002926430875
 28      -0.000070052129
 29       0.000985326474
 30      -0.989684766988
 31      -0.025131922727
 32      -0.000069476488
 33      -0.000174206575
 34       0.000208643195
 35       0.019575058442
 36       0.000860856775
 37       0.002706769915
 38      -0.002368013436
 39       0.105621898759
 40       0.003686035389
 41       0.000212243525
 42      -0.000034350705
 43       0.000122940708
 44      -0.009480039666
 45      -0.003566496978
 46      -0.000197601754
 47      -0.001302368052
 48      -0.000058820511
 49      -0.000112671204
 50      -0.000041858445
 51       0.000146865086
 52       0.000038001639
 53      -0.000320500573
 54      -0.000043486043
 55      -0.000320111555
 56       0.000064123792
 57      -0.000347687730
 58       0.000297852470
 59      -0.001699354167
 60      -0.000003902126
 61      -0.000345077807
 Sym=     1a
 Ene= -1.12218542771922E+01
 Spin= Alpha
 Occup= 2.000000
  1      -0.000376799492
  2      -0.000034500374
  3      -0.000001546456
  4      -0.000009763758
  5      -0.000101255708
  6       0.000028177952
  7      -0.000364320012
  8      -0.000055925177
  9       0.000637530660
 10      -0.000151078038
 11       0.000949715386
 12       0.994385745491
 13       0.024777814605
 14      -0.000085798021
 15      -0.000200356389
 16      -0.000012054638
 17      -0.016522504364
 18       0.000890999434
 19       0.001671580380
 20      -0.000180153011
 21      -0.059311178516
 22      -0.002324339637
 23      -0.000122064209
 24      -0.000298377898
 25       0.000044432632
 26       0.006842606775
 27       0.001188532512
 28       0.002844054550
 29      -0.000586528658
 30       0.005553842224
 31       0.000031506610
 32      -0.000106702878
 33      -0.000080542240
 34      -0.000002295809
 35      -0.000508072804
 36       0.000414394374
 37      -0.000038007688
 38       0.000139906038
 39      -0.000039443913
 40       0.000017593057
 41      -0.000038877396
 42      -0.000019331887
 43      -0.000017623906
 44      -0.000021055207
 45       0.000126100201
 46      -0.000378693698
 47       0.000360961956
 48       0.000008116808
 49       0.000199014561
 50       0.000031390946
 51      -0.000475296089
 52      -0.000151377223
 53       0.002741875076
 54      -0.000210374638
 55       0.002654712669
 56      -0.000113967152
 57      -0.000004989612
 58       0.000034843882
 59       0.000195441860
 60      -0.000005537261
 61      -0.000006374519
 Sym=     1a
 Ene= -1.12160953282840E+01
 Spin= Alpha
 Occup= 2.000000
  1       0.996061442286
  2       0.026114278311
  3      -0.000020247101
  4       0.000012621922
  5       0.000086751622
  6      -0.019221984064
  7       0.000129110507
  8       0.000724401982
  9      -0.000873228137
 10       0.000075364450
 11       0.003194732728
 12       0.000371388235
 13      -0.000017323094
 14       0.000127836357
 15      -0.000001934830
 16       0.000013356344
 17       0.000267006683
 18      -0.000692800415
 19      -0.000323633444
 20       0.000025660528
 21       0.000113816157
 22       0.000024789014
 23       0.000041729113
 24      -0.000037214616
 25       0.000033671914
 26      -0.000420877356
 27      -0.000093537564
 28      -0.000450304459
 29       0.000177747040
 30       0.002076949883
 31      -0.000136216188
 32       0.000055134656
 33      -0.000098949142
 34       0.000121733927
 35       0.000582393726
 36      -0.000594346510
 37       0.000377384614
 38      -0.000584617987
 39      -0.016989619871
 40      -0.000860382696
 41      -0.000014895151
 42      -0.000115592103
 43       0.000117543734
 44       0.004060704387
 45       0.000081534892
 46       0.002271186583
 47      -0.002094909610
 48       0.000043233760
 49       0.003135510516
 50       0.000071032915
 51       0.003300264851
 52      -0.000051554026
 53       0.000011203905
 54       0.000045002580
 55       0.000448437340
 56      -0.000029057449
 57      -0.000028335115
 58       0.000028804004
 59       0.000420231430
 60      -0.000123958472
 61       0.000087278036
 Sym=     1a
 Ene= -1.09928297185185E+00
 Spin= Alpha
 Occup= 2.000000
  1       0.067478120029
  2      -0.125558827489
  3      -0.001501787709
  4       0.031290458527
  5      -0.029905100570
  6      -0.118610998102
  7      -0.006079079834
  8       0.003527665477
  9      -0.009714443639
 10      -0.037495028205
 11      -0.001953706285
 12       0.075742797646
 13      -0.148104080798
 14       0.034034820250
 15       0.057354417377
 16      -0.008685538779
 17      -0.100637959980
 18      -0.000716104050
 19       0.003186504550
 20       0.000591055205
 21       0.110970081823
 22      -0.220316438702
 23       0.031633831432
 24      -0.030925753881
 25       0.018074837049
 26      -0.139393215559
 27       0.005979314006
 28       0.000329142454
 29       0.002087016084
 30       0.126393359372
 31      -0.249463142362
 32       0.002851048325
 33      -0.041990121078
 34       0.043503108750
 35      -0.164090699653
 36      -0.004165697674
 37      -0.004119618135
 38       0.002547058596
 39       0.113591338481
 40      -0.225567083944
 41      -0.059604209219
 42       0.006850742687
 43      -0.032757288281
 44      -0.137506358192
 45       0.003935993667
 46       0.004441164311
 47      -0.002615056868
 48      -0.031754081409
 49      -0.004712518125
 50      -0.034160264840
 51      -0.000286085441
 52      -0.039665532687
 53      -0.007218113004
 54      -0.033296749134
 55      -0.001936047132
 56      -0.053237400774
 57      -0.008231779760
 58      -0.059710007924
 59      -0.008735352368
 60      -0.053265509889
 61      -0.004396727810
 Sym=     1a
 Ene= -1.02215274355719E+00
 Spin= Alpha
 Occup= 2.000000
  1       0.100818355534
  2      -0.191562476322
  3       0.009451087857
  4       0.029934024780
  5      -0.024718695663
  6      -0.179670240733
  7       0.002918012732
  8       0.000891491315
  9      -0.001600489925
 10      -0.054639102693
 11      -0.005512357503
 12      -0.120983539429
 13       0.237496592491
 14      -0.026823710177
 15      -0.078690159909
 16       0.018307999355
 17       0.182649230448
 18      -0.004337936220
 19      -0.002924200642
 20       0.000624940130
 21      -0.115276242483
 22       0.230205515642
 23       0.053777403060
 24       0.077420353063
 25      -0.009060266716
 26       0.158838063454
 27       0.011877665455
 28      -0.004242556043
 29       0.005157116201
 30       0.021047323350
 31      -0.041895381803
 32       0.099113426703
 33      -0.007526772885
 34       0.051892257219
 35      -0.026783251433
 36       0.015384072306
 37       0.011504784838
 38      -0.001090220985
 39       0.102091519148
 40      -0.202630234355
 41      -0.011985639945
 42      -0.020423739690
 43       0.014611810497
 44      -0.147621367325
 45      -0.002459990285
 46      -0.006038626370
 47       0.004459916918
 48      -0.060024876307
 49      -0.008734442661
 50      -0.058363434412
 51      -0.005611631683
 52       0.061416981230
 53       0.006099464266
 54       0.068809882771
 55       0.015693325811
 56       0.067723407552
 57       0.011181177678
 58      -0.010312641863
 59       0.003822603301
 60      -0.062835158444
 61      -0.016492727884
 Sym=     1a
 Ene= -9.41075866445132E-01
 Spin= Alpha
 Occup= 2.000000
  1       0.139204871820
  2      -0.262263833509
  3       0.002411617533
  4      -0.019730590469
  5       0.016969169223
  6      -0.293471829665
  7      -0.001041266570
  8      -0.002159477161
  9      -0.003025396564
 10      -0.098281356051
 11      -0.022832803655
 12       0.079493392792
 13      -0.155908376358
 14       0.001335095664
 15       0.014602047413
 16      -0.001935463063
 17      -0.135530559859
 18       0.002579373980
 19      -0.001976397824
 20       0.003365641564
 21       0.005629807345
 22      -0.010043635670
 23      -0.096687369991
 24      -0.088349323048
 25       0.007958507254
 26      -0.006636590097
 27      -0.019892091253
 28      -0.005962200385
 29      -0.002683986921
 30      -0.118218779763
 31       0.235188023763
 32      -0.040397687334
 33      -0.010763086032
 34      -0.015045883853
 35       0.182676860977
 36      -0.002598168587
 37      -0.015247119029
 38       0.009059921202
 39      -0.029779160394
 40       0.055973156397
 41       0.051652984013
 42      -0.114753519352
 43       0.128525309707
 44       0.074390529795
 45       0.011541143083
 46      -0.010252581562
 47       0.015614867418
 48      -0.102064540482
 49      -0.028046754441
 50      -0.099721720866
 51      -0.024595447639
 52      -0.058249609427
 53      -0.016382971666
 54      -0.057965939758
 55      -0.018664911473
 56      -0.000179598986
 57       0.003909027038
 58       0.091032871099
 59       0.025288123087
 60       0.020462943782
 61       0.007288128913
 Sym=     1a
 Ene= -8.14663299559655E-01
 Spin= Alpha
 Occup= 2.000000
  1       0.058828345282
  2      -0.111295214249
  3      -0.014326769823
  4      -0.062816111263
  5       0.054178402010
  6      -0.144716044280
  7       0.002830524652
  8      -0.014323540815
  9       0.017144375958
 10      -0.059609844704
 11      -0.023279471559
 12      -0.102260570923
 13       0.203644013742
 14       0.040677446566
 15       0.080628428491
 16      -0.015640836597
 17       0.189877068648
 18       0.015374442485
 19       0.031926460772
 20      -0.006156672858
 21       0.086303991074
 22      -0.176296534380
 23       0.082100308047
 24       0.151925019627
 25      -0.031522480642
 26      -0.162328382994
 27       0.019374205477
 28       0.050504560157
 29      -0.012055890701
 30       0.031331225302
 31      -0.065448115842
 32      -0.195000061394
 33       0.031993866758
 34      -0.097901348738
 35      -0.054602724875
 36      -0.046778639280
 37       0.008170258851
 38      -0.023830021338
 39      -0.091557012336
 40       0.183030804763
 41      -0.036262385541
 42      -0.063957920506
 43       0.049643292409
 44       0.177472658544
 45      -0.023329254702
 46      -0.008519063302
 47       0.000640766925
 48      -0.060548975283
 49      -0.020524425055
 50      -0.058873315769
 51      -0.023657284690
 52       0.109436552190
 53       0.043180114761
 54       0.113181318768
 55       0.048326054351
 56      -0.108154923918
 57      -0.044455733893
 58      -0.041492332127
 59      -0.018842812550
 60       0.106314110862
 61       0.043651806577
 Sym=     1a
 Ene= -7.15797606899047E-01
 Spin= Alpha
 Occup= 2.000000
  1      -0.022594663627
  2       0.040388895586
  3       0.091775818350
  4       0.108919191708
  5      -0.050964954774
  6       0.065411888155
  7       0.034397943175
  8       0.038977348238
  9      -0.016069700007
 10       0.080548189796
 11       0.044890575077
 12      -0.039983968503
 13       0.080377010021
 14      -0.024356172907
 15       0.199060552724
 16      -0.057076641680
 17       0.081472430490
 18      -0.004167602355
 19       0.066028925576
 20      -0.019536171746
 21       0.069776982093
 22      -0.142032974513
 23      -0.178682561949
 24       0.028233432130
 25      -0.036677268402
 26      -0.140617700529
 27      -0.059878220577
 28       0.041955245630
 29      -0.023857592596
 30      -0.077413093089
 31       0.158447913095
 32      -0.003285427590
 33      -0.028794441200
 34       0.039443762003
 35       0.151677775164
 36       0.004835597456
 37      -0.034921310741
 38       0.035857764005
 39       0.073425721504
 40      -0.149439449890
 41       0.164143359303
 42      -0.005715536464
 43       0.088730248136
 44      -0.152731707415
 45       0.074170733153
 46       0.003633298937
 47       0.035869339016
 48       0.005931068185
 49       0.000006309199
 50       0.053312449487
 51       0.029691723533
 52       0.142661092728
 53       0.087690281325
 54       0.042397997555
 55       0.020416068393
 56      -0.142517072987
 57      -0.068382064097
 58       0.100304029023
 59       0.040678521749
 60      -0.151944701678
 61      -0.076898742876
 Sym=     1a
 Ene= -6.66589393618922E-01
 Spin= Alpha
 Occup= 2.000000
  1       0.015843980984
  2      -0.028605908255
  3       0.090283969381
  4      -0.065554122262
  5       0.104441554536
  6      -0.048760531241
  7       0.046375700079
  8      -0.022611249829
  9       0.043046891285
 10       0.016293151492
 11       0.010139308037
 12       0.021475134820
 13      -0.042612862217
 14      -0.193722647857
 15      -0.090178513325
 16      -0.017655921303
 17      -0.061244623138
 18      -0.074933794798
 19      -0.022696162719
 20      -0.013042877993
 21      -0.025655191091
 22       0.055236988494
 23      -0.096868264695
 24       0.142943891054
 25      -0.084109448715
 26       0.047172419260
 27      -0.029716516803
 28       0.044870062644
 29      -0.028923679847
 30       0.020044120705
 31      -0.038651591492
 32       0.067976622023
 33       0.231472512186
 34      -0.166428098087
 35      -0.049313730669
 36       0.025316557295
 37       0.097180831047
 38      -0.069489927735
 39      -0.024096823034
 40       0.050754123047
 41       0.169107978802
 42       0.086406559544
 43       0.004979082689
 44       0.036321610345
 45       0.050191231217
 46       0.037233235093
 47      -0.007307539827
 48      -0.092575355949
 49      -0.056138180319
 50      -0.028921141345
 51      -0.016464204876
 52       0.000735936725
 53      -0.004671973980
 54      -0.139317790252
 55      -0.087269551965
 56      -0.080916873907
 57      -0.059773750784
 58      -0.187267192998
 59      -0.114233501660
 60      -0.081775619557
 61      -0.058192142361
 Sym=     1a
 Ene= -6.04895914457896E-01
 Spin= Alpha
 Occup= 2.000000
  1      -0.010177289374
  2       0.019047765638
  3       0.175902958548
  4       0.033125949433
  5      -0.002506515278
  6       0.032380284404
  7       0.078039718434
  8       0.014939961454
  9      -0.006714376014
 10       0.106525308764
 11       0.071373891137
 12       0.006902192774
 13      -0.015066893557
 14       0.248221492514
 15      -0.105663914427
 16       0.039041372397
 17      -0.029020976540
 18       0.114044538016
 19      -0.047525408645
 20       0.014621005285
 21       0.013485291729
 22      -0.031251229903
 23       0.196616792244
 24      -0.056765879693
 25       0.012864515579
 26      -0.022473217832
 27       0.070271466461
 28      -0.012313261374
 29      -0.004754470316
 30      -0.009871119461
 31       0.021847309791
 32      -0.176265714361
 33       0.039550419500
 34      -0.154058104942
 35      -0.007983803550
 36      -0.052060722848
 37      -0.002604235970
 38      -0.044770977880
 39      -0.003233711726
 40       0.009326101691
 41       0.249592295376
 42      -0.034364420537
 43       0.114101187657
 44      -0.002025580105
 45       0.106394996111
 46      -0.007338638411
 47       0.039489493263
 48      -0.060082672260
 49      -0.049580730503
 50       0.006894088529
 51       0.000190969836
 52      -0.142530802528
 53      -0.092186789574
 54       0.134134663873
 55       0.092926827683
 56       0.086679718491
 57       0.068792551723
 58      -0.033101617547
 59      -0.030766965919
 60      -0.131308644412
 61      -0.092113977943
 Sym=     1a
 Ene= -5.85125880081564E-01
 Spin= Alpha
 Occup= 2.000000
  1       0.005915343134
  2      -0.006161648800
  3       0.025587379654
  4      -0.177707604130
  5       0.133171889134
  6      -0.036190826171
  7       0.013558387838
  8      -0.074493996719
  9       0.054945708036
 10      -0.017733983467
 11      -0.010203150586
 12       0.007360257947
 13      -0.019641854401
 14       0.157890850853
 15       0.282147084510
 16      -0.060775811033
 17       0.016259635601
 18       0.053831493710
 19       0.100536412919
 20      -0.024462261585
 21       0.008184119796
 22      -0.019381879228
 23      -0.118963303725
 24      -0.308081085258
 25       0.044793425913
 26       0.003554426778
 27      -0.028756478922
 28      -0.110986076376
 29       0.015514178785
 30       0.009352548676
 31      -0.018176032137
 32       0.196047315056
 33       0.045630623737
 34      -0.017366999026
 35      -0.019390226389
 36       0.080795117705
 37       0.018171460316
 38      -0.012926080463
 39      -0.025000676483
 40       0.051109382854
 41       0.032019755151
 42       0.143674745817
 43      -0.158182309699
 44       0.086353045347
 45       0.019848499945
 46       0.056935437047
 47      -0.064708549127
 48      -0.076236388939
 49      -0.056418257413
 50      -0.068989760970
 51      -0.051933641358
 52       0.089861940636
 53       0.066071120854
 54       0.116907723251
 55       0.091873090376
 56       0.097408124058
 57       0.073011751010
 58      -0.073947815519
 59      -0.051774697158
 60      -0.024021789271
 61      -0.020333125190
 Sym=     1a
 Ene= -5.67065065523600E-01
 Spin= Alpha
 Occup= 2.000000
  1       0.000393198317
  2      -0.001854602460
  3      -0.094583220195
  4       0.255003611487
  5       0.315704604799
  6       0.000307838171
  7      -0.049902745877
  8       0.130483842863
  9       0.158210126914
 10      -0.132551344441
 11      -0.103182821594
 12       0.005212677833
 13      -0.010648697529
 14       0.024578163637
 15       0.018560520237
 16       0.019187550890
 17      -0.014530784259
 18       0.006114910319
 19       0.003174353220
 20       0.015475847088
 21      -0.000615013152
 22       0.001442741344
 23       0.024806259892
 24      -0.032347662821
 25       0.045232287323
 26       0.002457118433
 27       0.010978340682
 28      -0.014462470919
 29       0.021981615007
 30       0.003075107222
 31      -0.003904677434
 32      -0.032843035966
 33       0.045786321816
 34       0.044100979559
 35      -0.023913331606
 36      -0.014311821617
 37       0.021218700569
 38       0.039666612303
 39      -0.005263782916
 40       0.008474468399
 41      -0.019081526244
 42       0.098996962948
 43       0.086443285551
 44       0.030624277053
 45      -0.002361213196
 46       0.046412946121
 47       0.048544451533
 48      -0.136890058760
 49      -0.106828724751
 50       0.255124544992
 51       0.198971792662
 52      -0.000139100485
 53       0.009990644468
 54       0.012505704676
 55       0.011920541199
 56       0.036710528183
 57       0.027657861100
 58      -0.003330108349
 59      -0.006167078953
 60      -0.012042800474
 61      -0.010506107597
 Sym=     1a
 Ene= -5.39953446540733E-01
 Spin= Alpha
 Occup= 2.000000
  1       0.005287786456
  2      -0.013564564537
  3       0.311198676686
  4       0.056384992496
  5       0.048323338308
  6       0.005303914973
  7       0.176878101988
  8       0.025601621553
  9       0.037102197865
 10       0.188443005480
 11       0.147489557610
 12       0.010053469483
 13      -0.022446692874
 14      -0.172621117221
 15       0.073897684471
 16      -0.054132888545
 17      -0.007752068585
 18      -0.106264553448
 19       0.034602401463
 20      -0.035866446610
 21      -0.007867319183
 22       0.014251504763
 23       0.126476026381
 24      -0.083523120942
 25       0.039947993184
 26       0.016547830813
 27       0.079580396882
 28      -0.062378981257
 29       0.028001976697
 30       0.035459501552
 31      -0.079391881689
 32      -0.064715562230
 33      -0.104884728063
 34       0.037966343452
 35      -0.072641422746
 36      -0.017445576427
 37      -0.024827001993
 38      -0.000818653004
 39      -0.007770445355
 40       0.015130204837
 41      -0.119777201723
 42      -0.087806185424
 43       0.001480901364
 44       0.017492266010
 45      -0.076151240723
 46      -0.057145834698
 47       0.003108946135
 48      -0.171447035254
 49      -0.132562197211
 50       0.012147672645
 51       0.012164755026
 52       0.117841403602
 53       0.090173091803
 54      -0.127292976381
 55      -0.091445066510
 56       0.115991853663
 57       0.079174099434
 58       0.037647174982
 59       0.046644545624
 60       0.110707191623
 61       0.076267335384
 Sym=     1a
 Ene= -5.06644748047612E-01
 Spin= Alpha
 Occup= 2.000000
  1       0.016401062011
  2      -0.036828831842