
                                 *****************
                                 * O   R   C   A *
                                 *****************

                                            #,                                       
                                            ###                                      
                                            ####                                     
                                            #####                                    
                                            ######                                   
                                           ########,                                 
                                     ,,################,,,,,                         
                               ,,#################################,,                 
                          ,,##########################################,,             
                       ,#########################################, ''#####,          
                    ,#############################################,,   '####,        
                  ,##################################################,,,,####,       
                ,###########''''           ''''###############################       
              ,#####''   ,,,,##########,,,,          '''####'''          '####       
            ,##' ,,,,###########################,,,                        '##       
           ' ,,###''''                  '''############,,,                           
         ,,##''                                '''############,,,,        ,,,,,,###''
      ,#''                                            '''#######################'''  
     '                                                          ''''####''''         
             ,#######,   #######,   ,#######,      ##                                
            ,#'     '#,  ##    ##  ,#'     '#,    #''#        ,####,    ,#,          
            ##       ##  ##   ,#'  ##            #'  '#       #'       ,# #          
            ##       ##  #######   ##           ,######,      #####,      #          
            '#,     ,#'  ##    ##  '#,     ,#' ,#      #,     #,   #      #          
             '#######'   ##     ##  '#######'  #'      '#     '####' #    #          



                #########################################################
                #                        -***-                          #
                #          Department of theory and spectroscopy        #
                #                                                       #
                #                      Frank Neese                      #
                #                                                       #
                #     Directorship, Architecture, Infrastructure        #
                #                    SHARK, DRIVERS                     #
                #        Core code/Algorithms in most modules           #
                #                                                       #
                #        Max Planck Institute fuer Kohlenforschung      #
                #                Kaiser Wilhelm Platz 1                 #
                #                 D-45470 Muelheim/Ruhr                 #
                #                      Germany                          #
                #                                                       #
                #                  All rights reserved                  #
                #                        -***-                          #
                #########################################################


                         Program Version 6.1.0  -  RELEASE   -
                                (GIT: $679e74b$)
                          ($2025-06-10 18:02:51 +0200$)


 With contributions from (in alphabetic order):
[Max-Planck-Institut fuer Kohlenforschung]                               
  Daniel Aravena         : Magnetic Suceptibility                        
  Michael Atanasov       : Ab Initio Ligand Field Theory (pilot matlab implementation)
  Alexander A. Auer      : GIAO ZORA, VPT2 properties, NMR spectrum      
  Ute Becker             : All parallelization in ORCA, NUMFREQ, NUMCALC 
  Giovanni Bistoni       : ED, misc. LED, open-shell LED, HFLD           
  Dmytro Bykov           : pre 5.0 version of the SCF Hessian            
  Marcos Casanova-Páez   : Triplet and SCS-CIS(D). UHF-(DLPNO)-IP/EA/STEOM-CCSD. UHF-CVS-IP/STEOM-CCSD   
  Vijay G. Chilkuri      : MRCI spin determinant printing, contributions to CSF-ICE 
  Pauline Colinet        : FMM embedding                                 
  Dipayan Datta          : RHF DLPNO-CCSD density                        
  Achintya Kumar Dutta   : EOM-CC, STEOM-CC                              
  Nicolas Foglia         : Exact transition moments, OPA infrastructure, MCD improvements    
  Dmitry Ganyushin       : Spin-Orbit,Spin-Spin,Magnetic field MRCI      
  Miquel Garcia-Rates    : C-PCM and meta-GGA Hessian, CCSD/C-PCM, Gaussian charge scheme 
  Tiago L. C. Gouveia    : GS-ROHF, GS-ROCIS                             
  Yang Guo               : DLPNO-NEVPT2, F12-NEVPT2, CIM, IAO-localization        
  Andreas Hansen         : Spin unrestricted coupled pair/coupled cluster methods 
  Ingolf Harden          : AUTO-CI MPn and infrastructure                
  Benjamin Helmich-Paris : MC-RPA, TRAH-(SCF,CASSCF), AVAS, COSX integrals, SCF dyn. polar., MC-PDFT, srDFT 
  Lee Huntington         : MR-EOM, pCC                                   
  Robert Izsak           : Overlap fitted RIJCOSX, COSX-SCS-MP3, EOM     
  Riya Kayal             : Wick's Theorem for AUTO-CI, AUTO-CI UHF-CCSDT 
  Emily Kempfer          : AUTO-CI RHF CISDT and CCSDT, approximate NEVPT4
  Christian Kollmar      : KDIIS, OOCD, Brueckner-CCSD(T), CCSD density, CASPT2, CASPT2-K, improved NEVPT2 
  Axel Koslowski         : Symmetry handling                             
  Simone Kossmann        : meta-GGA functionals, TD-DFT gradient, OOMP2, (MP2 Hessian; deprecated post 5.0) 
  Lucas Lang             : DCDCAS, Hyperfine gauge corrections, ICE-SOC+SSC
  Marvin Lechner         : AUTO-CI (C++ implementation), FIC-MRCC        
  Spencer Leger          : CASSCF response                               
  Dagmar Lenk            : GEPOL surface, SMD, ORCA-2-JSON               
  Dimitrios Liakos       : Extrapolation schemes; Compound Job, Property file
  Dimitrios Manganas     : Further ROCIS development; embedding schemes. LFT, Crystal Embedding 
  Dimitrios Pantazis     : SARC Basis sets                               
  Anastasios Papadopoulos: AUTO-CI, single reference methods and gradients 
  Taras Petrenko         : pre 6.0 DFT Hessian and TD-DFT gradient,  ECA, NRVS 
  Petra Pikulova         : Analytic Raman intensities                    
  Peter Pinski           : DLPNO-MP2, DLPNO-MP2 Gradient                 
  Shashank Vittal Rao    : ES-AILFT, MagRelax                            
  Christoph Reimann      : Effective Core Potentials                     
  Marius Retegan         : Local ZFS, SOC                                
  Christoph Riplinger    : Optimizer, TS searches, QM/MM, DLPNO-CCSD(T), (RO)-DLPNO pert. Triples 
  Michael Roemelt        : Original ROCIS implementation, recursive CI coupling coefficients
  Masaaki Saitow         : Open-shell DLPNO-CCSD energy and density      
  Barbara Sandhoefer     : DKH picture change effects                    
  Yorick L. A. Schmerwitz: GMF and freeze-and-release deltaSCF, NEB S-IDPP initial path                    
  Kantharuban Sivalingam : CASSCF convergence/infrastructure, NEVPT2, NEVPT3, NEVPT4(SD), FIC-MRCI and CEPA variants
  Bernardo de Souza      : ESD, SOC TD-DFT                               
  Georgi L. Stoychev     : AutoAux, RI-MP2 NMR, DLPNO-MP2 response, X2C  
  Van Anh Tran           : RI-MP2 g-tensors                              
  Willem Van den Heuvel  : Paramagnetic NMR                              
  Zikuan Wang            : NOTCH, Electric field optimization            
  Frank Wennmohs         : Technical directorship and infrastructure     
  Hang Xu                : AUTO-CI-Response properties                   
                                                                         
[FACCTs GmbH]                                                            
  Markus Bursch, Nicolas Foglia, Miquel Garcia-Rates, Ingolf Harden, Hagen Neugebauer, Anastasios Papadopoulos, 
  Christoph Riplinger, Bernardo de Souza, Georgi L. Stoychev                                                    
                                                                 
  APM, various basis sets, CI-OPT, improved COSX, DLPNO-Multilevel,           
  DOCKER, DRACO, updates on ESD, Fragmentator, GOAT, IRC, LR-CPCM, L-BFGS, MBIS, meta-GGA TD-DFT gradient, ML-optimized integration grids, 
  MM, NACMEs, nearIR, NEB, NEB-TS, NL-DFT gradient (VV10), 2- and 3-layer-ONIOM, interface openCOSMO-RS, QMMM,   
  Crystal-QMMM, RESP, rigid body optimization, SF, symmetry and pop. for TD-DFT, various functionals, SOLVATOR                                   
                                                                         
[Other institutions]                                                     
  V. Asgeirsson          : NEB                                           
  Christoph Bannwarth    : sTDA-DFT, sTD-DFT, PBEh-3c, B97-3c, D3        
  Giovanni Bistoni       : ETS/NOCV, ADLD/ADEX, COVALED                  
  Martin Brehm           : Molecular dynamics                            
  Ronald Cardenas        : ETS/NOCV                                      
  Martina Colucci        : COVALED                                       
  Sebastian Ehlert       : rSCAN, r2SCAN, r2SCAN-3c, D4, dhf basis sets  
  Marvin Friede          : D4 for Fr, Ra, Ac-Lr                          
  Lars Goerigk           : TD-DFT with DH, B97 family of functionals     
  Stefan Grimme          : VdW corrections, initial TS optimization, DFT functionals, gCP, sTDA/sTD-DF 
  Waldemar Hujo          : DFT-NL                                        
  H. Jonsson             : NEB                                           
  Holger Kruse           : gCP                                           
  Marcel Mueller         : wB97X-3c, vDZP basis set                      
  Hagen Neugebauer       : wr2SCAN, Native XTB                           
  Gianluca Regni         : ADLD/ADEX                                     
  Tobias Risthaus        : pre 6.0 range-separated hybrid DFT and stability analysis
  Lukas Wittmann         : regularized MP2, r2SCAN double-hybrids, wr2SCAN        
                                                                         
We gratefully acknowledge several colleagues who have allowed us to      
interface, adapt or use parts of their codes:                            
  Ed Valeev, F. Pavosevic, A. Kumar             : LibInt (2-el integral package), F12 methods 
  Garnet Chan, S. Sharma, J. Yang, R. Olivares  : DMRG                   
  Ulf Ekstrom                                   : XCFun DFT Library      
  Mihaly Kallay                                 : mrcc  (arbitrary order and MRCC methods)
  Frank Weinhold                                : gennbo (NPA and NBO analysis)           
  Simon Mueller                                 : openCOSMO-RS                            
  Christopher J. Cramer and Donald G. Truhlar   : smd solvation model                     
  S Lehtola, MJT Oliveira, MAL Marques          : LibXC Library                           
  Liviu Ungur et al                             : ANISO software                          


 Your calculation uses the libint2 library for the computation of 2-el integrals
 For citations please refer to: http://libint.valeyev.net

 Your ORCA version has been built with support for libXC version: 7.0.0
 For citations please refer to: https://libxc.gitlab.io

 This ORCA versions uses:
   CBLAS   interface :  Fast vector & matrix operations
   LAPACKE interface :  Fast linear algebra routines
   SCALAPACK package :  Parallel linear algebra routines
   Shared memory     :  Shared parallel matrices
   BLAS/LAPACK       :  OpenBLAS 0.3.29  USE64BITINT DYNAMIC_ARCH NO_AFFINITY Zen SINGLE_THREADED
        Core in use  :  Zen
   Copyright (c) 2011-2014, The OpenBLAS Project


  ***********************************
  * Starting time: Sun Apr  5 12:59:51 2026
  * Host name:     QC1
  * Process ID:    3482
  * Working dir.:  /home/user/QC/h-shift/split_2
  ***********************************

NOTE: MaxCore=1200 MB was set to SCF,MP2,MDCI,CIPSI,MRCI,RASCI and CIS
      => If you want to overwrite this, your respective input block should be placed after the MaxCore statement
================================================================================

----- Orbital basis set information -----
Your calculation utilizes the basis: 6-31G
   H-He, Li-Ne : W. J. Hehre, R. Ditchfield and J.A. Pople, J. Chem. Phys. 56, 2257 (1972).
                 Note: He and Ne are unpublished basis sets taken from the Gaussian program.
                 Note: Li and B from J. D. Dill and J. A. Pople, J. Chem. Phys. 62, 2921 (1975).
   Na - Ar     : M. M. Francl, W. J. Pietro, W. J. Hehre, J. S. Binkley, M. S. Gordon, 
                 D. J. DeFrees and J. A. Pople, J. Chem. Phys. 77, 3654 (1982).
   K - Zn      : V. A. Rassolov, J. A. Pople, M. A. Ratner, and T. L. Windus, J. Chem. Phys. 109, 1223 (1998).

================================================================================
                                        WARNINGS
                       Please study these warnings very carefully!
================================================================================


================================================================================
                                       INPUT FILE
================================================================================
NAME = h-shift_009.inp
|  1> ! HF 6-31G
|  2> %maxcore 1200
|  3> %pal nprocs 8 end
|  4> * xyz 0 1
|  5> C   -0.01501700   0.01087300  -0.18273100
|  6> H    1.00192200   0.01837800  -0.55433300
|  7> C    2.58922200   0.00519400   1.54311900
|  8> C    2.06259000  -1.19077800   1.78706800
|  9> C    0.65931300  -1.60840600   1.63667000
| 10> C   -0.23467400  -1.12307400   0.77707800
| 11> H   -0.68815900  -0.04779000  -1.02842600
| 12> H   -0.18658600   0.96742100   0.30333500
| 13> H    2.00357500   0.85508700   1.25794700
| 14> H    3.64569500   0.17175300   1.63064200
| 15> H    2.72338300  -1.97165900   2.12099900
| 16> H    0.36165300  -2.43547400   2.25852700
| 17> H   -1.20714300  -1.58357000   0.75049600
| 18> *
| 19> 
| 20>                          ****END OF INPUT****
================================================================================

                       ****************************
                       * Single Point Calculation *
                       ****************************

---------------------------------
CARTESIAN COORDINATES (ANGSTROEM)
---------------------------------
  C     -0.015017    0.010873   -0.182731
  H      1.001922    0.018378   -0.554333
  C      2.589222    0.005194    1.543119
  C      2.062590   -1.190778    1.787068
  C      0.659313   -1.608406    1.636670
  C     -0.234674   -1.123074    0.777078
  H     -0.688159   -0.047790   -1.028426
  H     -0.186586    0.967421    0.303335
  H      2.003575    0.855087    1.257947
  H      3.645695    0.171753    1.630642
  H      2.723383   -1.971659    2.120999
  H      0.361653   -2.435474    2.258527
  H     -1.207143   -1.583570    0.750496

----------------------------
CARTESIAN COORDINATES (A.U.)
----------------------------
  NO LB      ZA    FRAG     MASS         X           Y           Z
   0 C     6.0000    0    12.011   -0.028378    0.020547   -0.345312
   1 H     1.0000    0     1.008    1.893358    0.034729   -1.047538
   2 C     6.0000    0    12.011    4.892920    0.009815    2.916072
   3 C     6.0000    0    12.011    3.897730   -2.250244    3.377069
   4 C     6.0000    0    12.011    1.245921   -3.039447    3.092858
   5 C     6.0000    0    12.011   -0.443470   -2.122302    1.468465
   6 H     1.0000    0     1.008   -1.300432   -0.090310   -1.943443
   7 H     1.0000    0     1.008   -0.352596    1.828161    0.573220
   8 H     1.0000    0     1.008    3.786208    1.615880    2.377175
   9 H     1.0000    0     1.008    6.889365    0.324566    3.081467
  10 H     1.0000    0     1.008    5.146448   -3.725896    4.008107
  11 H     1.0000    0     1.008    0.683425   -4.602379    4.267997
  12 H     1.0000    0     1.008   -2.281170   -2.992514    1.418232

--------------------------------
INTERNAL COORDINATES (ANGSTROEM)
--------------------------------
 C      0   0   0     0.000000000000     0.00000000     0.00000000
 H      1   0   0     1.082732331257     0.00000000     0.00000000
 C      2   1   0     2.630399209276   107.04188963     0.00000000
 C      3   2   1     1.329361276256    84.93877687    64.13675303
 C      4   3   2     1.471808086510   127.89643007   319.89493623
 C      5   4   3     1.331787638048   127.05363508    29.06108685
 H      1   2   3     1.082479345188   108.43971713   183.56443875
 H      1   2   3     1.086591070468   107.20115482    67.89620114
 H      3   2   1     1.070805112820    56.88150118   288.69417334
 H      3   2   1     1.073097095206   131.17447119   191.65367947
 H      4   3   2     1.076072691676   117.80987479   138.78913194
 H      5   4   3     1.076730737312   114.99360337   205.22372321
 H      6   5   4     1.076317390318   117.80903980   176.09220647

---------------------------
INTERNAL COORDINATES (A.U.)
---------------------------
 C      0   0   0     0.000000000000     0.00000000     0.00000000
 H      1   0   0     2.046067582419     0.00000000     0.00000000
 C      2   1   0     4.970734128415   107.04188963     0.00000000
 C      3   2   1     2.512128745164    84.93877687    64.13675303
 C      4   3   2     2.781314205195   127.89643007   319.89493623
 C      5   4   3     2.516713904452   127.05363508    29.06108685
 H      1   2   3     2.045589508031   108.43971713   183.56443875
 H      1   2   3     2.053359542749   107.20115482    67.89620114
 H      3   2   1     2.023528406033    56.88150118   288.69417334
 H      3   2   1     2.027859625045   131.17447119   191.65367947
 H      4   3   2     2.033482687459   117.80987479   138.78913194
 H      5   4   3     2.034726213495   114.99360337   205.22372321
 H      6   5   4     2.033945100878   117.80903980   176.09220647

---------------------
BASIS SET INFORMATION
---------------------
There are 2 groups of distinct atoms

 Group   1 Type C   : 10s4p contracted to 3s2p pattern {631/31}
 Group   2 Type H   : 4s contracted to 2s pattern {31}

Atom   0C    basis set group =>   1
Atom   1H    basis set group =>   2
Atom   2C    basis set group =>   1
Atom   3C    basis set group =>   1
Atom   4C    basis set group =>   1
Atom   5C    basis set group =>   1
Atom   6H    basis set group =>   2
Atom   7H    basis set group =>   2
Atom   8H    basis set group =>   2
Atom   9H    basis set group =>   2
Atom  10H    basis set group =>   2
Atom  11H    basis set group =>   2
Atom  12H    basis set group =>   2


           ************************************************************
           *        Program running with 8 parallel MPI-processes     *
           *              working on a common directory               *
           ************************************************************
------------------------------------------------------------------------------
                             ORCA STARTUP CALCULATIONS
------------------------------------------------------------------------------
------------------------------------------------------------------------------
                   ___                                                        
                  /   \      - P O W E R E D   B Y -                         
                 /     \                                                     
                 |  |  |   _    _      __       _____    __    __             
                 |  |  |  | |  | |    /  \     |  _  \  |  |  /  |          
                  \  \/   | |  | |   /    \    | | | |  |  | /  /          
                 / \  \   | |__| |  /  /\  \   | |_| |  |  |/  /          
                |  |  |   |  __  | /  /__\  \  |    /   |      \           
                |  |  |   | |  | | |   __   |  |    \   |  |\   \          
                \     /   | |  | | |  |  |  |  | |\  \  |  | \   \       
                 \___/    |_|  |_| |__|  |__|  |_| \__\ |__|  \__/        
                                                                              
                      - O R C A' S   B I G   F R I E N D -                    
                                      &                                       
                       - I N T E G R A L  F E E D E R -                       
                                                                              
 v1 FN, 2020, v2 2021, v3 2022-2024                                           
------------------------------------------------------------------------------


----------------------
SHARK INTEGRAL PACKAGE
----------------------

Number of atoms                             ...     13
Number of basis functions                   ...     61
Number of shells                            ...     41
Maximum angular momentum                    ...      1
Integral batch strategy                     ... SHARK/LIBINT Hybrid
RI-J (if used) integral strategy            ... SPLIT-RIJ (Revised 2003 algorithm where possible)
Printlevel                                  ...      1
Contraction scheme used                     ... SEGMENTED contraction
Prescreening option                         ... SCHWARTZ
   Thresh                                   ... 1.000e-10
   Tcut                                     ... 1.000e-11
   Tpresel                                  ... 1.000e-11 
Coulomb Range Separation                    ... NOT USED
Exchange Range Separation                   ... NOT USED
Multipole approximations                    ... NOT USED
Finite Nucleus Model                        ... NOT USED
CABS basis                                  ... NOT available
Auxiliary Coulomb fitting basis             ... NOT available
Auxiliary J/K fitting basis                 ... NOT available
Auxiliary Correlation fitting basis         ... NOT available
Auxiliary 'external' fitting basis          ... NOT available

Checking pre-screening integrals            ... done (  0.0 sec) Dimension = 41
   => SHARK Basis and OBASIS are compatible. Storing Pre-screening
Shell pair information
Shell pair cut-off parameter TPreSel        ...   1.0e-11
Total number of shell pairs                 ...       861
Shell pairs after pre-screening             ...       846
Total number of primitive shell pairs       ...      5382
Primitive shell pairs kept                  ...      3724
          la=0 lb=0:    481 shell pairs
          la=1 lb=0:    310 shell pairs
          la=1 lb=1:     55 shell pairs

Checking whether 4 symmetric matrices of dimension 61 fit in memory
:Max Core in MB      =   1200.00
 MB in use           =      2.04
 MB left             =   1197.96
 MB needed           =      0.06
 Data fit in memory  = YES
Calculating Nuclear repulsion               ... done (  0.0 sec) ENN=    160.290052018096 Eh

Diagonalization of the overlap matrix:
Smallest eigenvalue                        ... 3.364e-03
Time for diagonalization                   ...    0.001 sec
Threshold for overlap eigenvalues          ... 1.000e-07
Number of eigenvalues below threshold      ... 0
Time for construction of square roots      ...    0.000 sec
Total time needed                          ...    0.002 sec

-------------------
DFT GRID GENERATION
-------------------

General Integration Accuracy     IntAcc      ... 4.388
Radial Grid Type                 RadialGrid  ... OptM3 with GC (2021)
Angular Grid (max. ang.)         AngularGrid ... 4 (Lebedev-302)
Angular grid pruning method      GridPruning ... 4 (adaptive)
Weight generation scheme         WeightScheme... mBecke (2022)
Basis function cutoff            BFCut       ... 1.0000e-10
Integration weight cutoff        WCut        ... 1.0000e-14
Partially contracted basis set               ... off
Rotationally invariant grid construction     ... off
Angular grids for H and He will be reduced by one unit

Total number of grid points                  ...    56073
Total number of batches                      ...      883
Average number of points per batch           ...       63
Average number of grid points per atom       ...     4313
Grids setup in   0.2 sec
Initializing property integral containers    ... done (  0.0 sec)

SHARK setup successfully completed in   0.3 seconds

Maximum memory used throughout the entire STARTUP-calculation: 11.8 MB


           ************************************************************
           *        Program running with 8 parallel MPI-processes     *
           *              working on a common directory               *
           ************************************************************
-------------------------------------------------------------------------------
                                 ORCA GUESS
                   Start orbitals & Density for SCF / CASSCF
-------------------------------------------------------------------------------

------------
SCF SETTINGS
------------
Hamiltonian:
 Ab initio Hamiltonian  Method          .... Hartree-Fock(GTOs)


General Settings:
 Integral files         IntName         .... h-shift_009
 Hartree-Fock type      HFTyp           .... RHF
 Total Charge           Charge          ....    0
 Multiplicity           Mult            ....    1
 Number of Electrons    NEL             ....   38
 Basis Dimension        Dim             ....   61
 Nuclear Repulsion      ENuc            ....    160.2900520181 Eh

Convergence Acceleration:
 AO-DIIS                CNVDIIS         .... on
   Start iteration      DIISMaxIt       ....    12
   Startup error        DIISStart       ....  0.200000
   # of expansion vecs  DIISMaxEq       ....     5
   Bias factor          DIISBfac        ....   1.050
   Max. coefficient     DIISMaxC        ....  10.000
 MO-DIIS                CNVKDIIS        .... off
 Trust-Rad. Augm. Hess. CNVTRAH         .... auto
   Auto Start mean grad. ratio tolernc. ....  1.125000
   Auto Start start iteration           ....    50
   Auto Start num. interpolation iter.  ....    10
   Max. Number of Micro iterations      ....    24
   Max. Number of Macro iterations      .... Maxiter - #DIIS iter
   Number of Davidson start vectors     ....     2
   Converg. threshold    (grad. norm)   ....   5.000e-05
   Grad. Scal. Fac. for Micro threshold ....   0.100
   Minimum threshold for Micro iter.    ....   1.000e-02
   NR start threshold (gradient norm)   ....   1.000e-04
   Initial trust radius                 ....   0.400
   Minimum AH scaling param. (alpha)    ....   1.000
   Maximum AH scaling param. (alpha)    .... 1000.000
   Quad. conv. algorithm                .... NR
   White noise on init. David. guess    .... on
   Maximum white noise                  ....   0.010
   Pseudo random numbers                .... off
   Inactive MOs                         .... canonical
   Orbital update algorithm             .... Taylor
   Preconditioner                       .... Diag
   Full preconditioner red. dimension   ....   250
 SOSCF                 CNVSOSCF           .... on
   Start iteration     SOSCFMaxIt         ....   150
   Startup grad/error  SOSCFStart         ....  0.003300
   Hessian update      SOSCFHessUp        .... L-BFGS
   Autom. constraints  SOSCFAutoConstrain .... off
 Level Shifting         CNVShift        .... on
   Level shift para.    LevelShift      ....    0.2500
   Turn off err/grad.   ShiftErr        ....    0.0010
 Zerner damping         CNVZerner       .... off
 Static damping         CNVDamp         .... on
   Fraction old density DampFac         ....    0.7000
   Max. Damping (<1)    DampMax         ....    0.9800
   Min. Damping (>=0)   DampMin         ....    0.0000
   Turn off err/grad.   DampErr         ....    0.1000

SCF Procedure:
 Maximum # iterations   MaxIter         ....   125
 SCF integral mode      SCFMode         .... Direct
   Integral package                     .... SHARK and LIBINT hybrid scheme
 Reset frequency        DirectResetFreq ....    20
 Integral Threshold     Thresh          ....  1.000e-10 Eh
 Primitive CutOff       TCut            ....  1.000e-11 Eh

Convergence Tolerance:
 Convergence Check Mode ConvCheckMode   .... Total+1el-Energy
 Convergence forced     ConvForced      .... 0
 Energy Change          TolE            ....  1.000e-06 Eh
 1-El. energy change                    ....  1.000e-03 Eh
 Orbital Gradient       TolG            ....  5.000e-05
 Orbital Rotation angle TolX            ....  5.000e-05
 DIIS Error             TolErr          ....  1.000e-06

------------------------------
INITIAL GUESS: MODEL POTENTIAL
------------------------------
Loading Hartree-Fock densities                     ... done
Calculating cut-offs                               ... done
Initializing the effective Hamiltonian             ... done
Setting up the integral package (SHARK)            ... done
Starting the Coulomb interaction                   ... done (   0.0 sec)
Making the grid                                    ... done (   0.1 sec)
Mapping shells                                     ... done
Starting the XC term evaluation                    ... done (   0.0 sec)
Transforming the Hamiltonian                       ... done (   0.0 sec)
Diagonalizing the Hamiltonian                      ... done (   0.0 sec)
Back transforming the eigenvectors                 ... done (   0.0 sec)
Now organizing SCF variables                       ... done
                      ------------------
                      INITIAL GUESS DONE (   0.1 sec)
                      ------------------
             **** ENERGY FILE WAS UPDATED (h-shift_009.en.tmp) ****
Finished Guess after   0.3 sec
Maximum memory used throughout the entire GUESS-calculation: 4.2 MB


           ************************************************************
           *        Program running with 8 parallel MPI-processes     *
           *              working on a common directory               *
           ************************************************************

-------------------------------------------------------------------------------------------
                                      ORCA LEAN-SCF
                              memory conserving SCF solver
-------------------------------------------------------------------------------------------

----------------------------------------D-I-I-S--------------------------------------------
Iteration    Energy (Eh)           Delta-E    RMSDP     MaxDP     DIISErr   Damp  Time(sec)
-------------------------------------------------------------------------------------------
               ***  Starting incremental Fock matrix formation  ***
    1    -193.6472048131973054     0.00e+00  1.57e-02  5.37e-02  1.90e-01  0.700   0.0
    2    -193.7282844197177099    -8.11e-02  1.25e-02  4.07e-02  1.24e-01  0.700   0.0
                               ***Turning on AO-DIIS***
    3    -193.7784320918435412    -5.01e-02  7.71e-03  2.05e-02  7.44e-02  0.700   0.0
    4    -193.8101243901488431    -3.17e-02  1.83e-02  4.36e-02  5.04e-02  0.000   0.0
                              *** Initializing SOSCF ***
---------------------------------------S-O-S-C-F--------------------------------------
Iteration    Energy (Eh)           Delta-E    RMSDP     MaxDP     MaxGrad    Time(sec)
--------------------------------------------------------------------------------------
    5    -193.8786806345105163    -6.86e-02  1.69e-03  2.83e-03  2.80e-03     0.0
               *** Restarting incremental Fock matrix formation ***
    6    -193.8788005468161089    -1.20e-04  8.61e-04  1.81e-03  1.34e-03     0.0
    7    -193.8788353057659322    -3.48e-05  5.30e-04  1.17e-03  5.39e-04     0.0
    8    -193.8788418546810419    -6.55e-06  6.95e-05  1.84e-04  1.32e-04     0.0
    9    -193.8788420635129057    -2.09e-07  3.12e-05  7.73e-05  3.52e-05     0.0
                 **** Energy Check signals convergence ****

               *****************************************************
               *                     SUCCESS                       *
               *           SCF CONVERGED AFTER   9 CYCLES          *
               *****************************************************

             **** ENERGY FILE WAS UPDATED (h-shift_009.en.tmp) ****

----------------
TOTAL SCF ENERGY
----------------

Total Energy       :       -193.87884211803257 Eh           -5275.71151 eV

Components:
Nuclear Repulsion  :        160.29005201809647 Eh            4361.71406 eV
Electronic Energy  :       -354.16889413612904 Eh           -9637.42557 eV
One Electron Energy:       -577.54248003471696 Eh          -15715.72985 eV
Two Electron Energy:        223.37358589858792 Eh            6078.30429 eV

Virial components:
Potential Energy   :       -388.03722798574842 Eh          -10559.02978 eV
Kinetic Energy     :        194.15838586771585 Eh            5283.31828 eV
Virial Ratio       :          1.99856022829797

---------------
SCF CONVERGENCE
---------------

  Last Energy change         ...    2.0883e-07  Tolerance :   1.0000e-06
  Last MAX-Density change    ...    7.7327e-05  Tolerance :   1.0000e-05
  Last RMS-Density change    ...    3.1239e-05  Tolerance :   1.0000e-06
  Last DIIS Error            ...    2.7954e-03  Tolerance :   1.0000e-06
  Last Orbital Gradient      ...    3.5226e-05  Tolerance :   5.0000e-05
  Last Orbital Rotation      ...    3.4871e-05  Tolerance :   5.0000e-05


----------------
ORBITAL ENERGIES
----------------

  NO   OCC          E(Eh)            E(eV) 
   0   2.0000     -11.236015      -305.7475 
   1   2.0000     -11.235215      -305.7257 
   2   2.0000     -11.227429      -305.5139 
   3   2.0000     -11.221847      -305.3620 
   4   2.0000     -11.215972      -305.2021 
   5   2.0000      -1.099210       -29.9110 
   6   2.0000      -1.022080       -27.8122 
   7   2.0000      -0.940957       -25.6047 
   8   2.0000      -0.814560       -22.1653 
   9   2.0000      -0.716289       -19.4912 
  10   2.0000      -0.666537       -18.1374 
  11   2.0000      -0.604728       -16.4555 
  12   2.0000      -0.585018       -15.9191 
  13   2.0000      -0.567305       -15.4371 
  14   2.0000      -0.540088       -14.6965 
  15   2.0000      -0.506731       -13.7889 
  16   2.0000      -0.468666       -12.7530 
  17   2.0000      -0.413230       -11.2446 
  18   2.0000      -0.315776        -8.5927 
  19   0.0000       0.132511         3.6058 
  20   0.0000       0.234213         6.3733 
  21   0.0000       0.253982         6.9112 
  22   0.0000       0.263541         7.1713 
  23   0.0000       0.291751         7.9390 
  24   0.0000       0.319158         8.6847 
  25   0.0000       0.337724         9.1899 
  26   0.0000       0.346571         9.4307 
  27   0.0000       0.357669         9.7327 
  28   0.0000       0.367412         9.9978 
  29   0.0000       0.427468        11.6320 
*Only the first 10 virtual orbitals were printed.

                    ********************************
                    * MULLIKEN POPULATION ANALYSIS *
                    ********************************

-----------------------
MULLIKEN ATOMIC CHARGES
-----------------------
   0 C :   -0.506774
   1 H :    0.180390
   2 C :   -0.361032
   3 C :   -0.150507
   4 C :   -0.195995
   5 C :   -0.149033
   6 H :    0.159596
   7 H :    0.170378
   8 H :    0.171130
   9 H :    0.161845
  10 H :    0.173593
  11 H :    0.173727
  12 H :    0.172681
Sum of atomic charges:    0.0000000

--------------------------------
MULLIKEN REDUCED ORBITAL CHARGES
--------------------------------
  0 C s       :     3.366257  s :     3.366257
      pz      :     1.029652  p :     3.140516
      px      :     1.111393
      py      :     0.999471

  1 H s       :     0.819610  s :     0.819610

  2 C s       :     3.265732  s :     3.265732
      pz      :     1.019328  p :     3.095300
      px      :     1.081015
      py      :     0.994957

  3 C s       :     3.193960  s :     3.193960
      pz      :     0.999123  p :     2.956548
      px      :     0.962960
      py      :     0.994465

  4 C s       :     3.192468  s :     3.192468
      pz      :     1.017404  p :     3.003526
      px      :     0.921398
      py      :     1.064724

  5 C s       :     3.209698  s :     3.209698
      pz      :     0.944764  p :     2.939335
      px      :     1.037848
      py      :     0.956723

  6 H s       :     0.840404  s :     0.840404

  7 H s       :     0.829622  s :     0.829622

  8 H s       :     0.828870  s :     0.828870

  9 H s       :     0.838155  s :     0.838155

 10 H s       :     0.826407  s :     0.826407

 11 H s       :     0.826273  s :     0.826273

 12 H s       :     0.827319  s :     0.827319



                     *******************************
                     * LOEWDIN POPULATION ANALYSIS *
                     *******************************

----------------------
LOEWDIN ATOMIC CHARGES
----------------------
   0 C :   -0.318616
   1 H :    0.123544
   2 C :   -0.244872
   3 C :   -0.114170
   4 C :   -0.149150
   5 C :   -0.108730
   6 H :    0.111481
   7 H :    0.117230
   8 H :    0.117334
   9 H :    0.116275
  10 H :    0.116537
  11 H :    0.117058
  12 H :    0.116077

-------------------------------
LOEWDIN REDUCED ORBITAL CHARGES
-------------------------------
  0 C s       :     2.975985  s :     2.975985
      pz      :     1.104427  p :     3.342631
      px      :     1.144155
      py      :     1.094049

  1 H s       :     0.876456  s :     0.876456

  2 C s       :     2.988210  s :     2.988210
      pz      :     1.035352  p :     3.256662
      px      :     1.113871
      py      :     1.107439

  3 C s       :     2.945008  s :     2.945008
      pz      :     0.988034  p :     3.169161
      px      :     1.070752
      py      :     1.110376

  4 C s       :     2.940333  s :     2.940333
      pz      :     1.073465  p :     3.208816
      px      :     1.064605
      py      :     1.070746

  5 C s       :     2.951055  s :     2.951055
      pz      :     1.032039  p :     3.157675
      px      :     1.093960
      py      :     1.031677

  6 H s       :     0.888519  s :     0.888519

  7 H s       :     0.882770  s :     0.882770

  8 H s       :     0.882666  s :     0.882666

  9 H s       :     0.883725  s :     0.883725

 10 H s       :     0.883463  s :     0.883463

 11 H s       :     0.882942  s :     0.882942

 12 H s       :     0.883923  s :     0.883923



                      *****************************
                      * MAYER POPULATION ANALYSIS *
                      *****************************

  NA   - Mulliken gross atomic population
  ZA   - Total nuclear charge
  QA   - Mulliken gross atomic charge
  VA   - Mayer's total valence
  BVA  - Mayer's bonded valence
  FA   - Mayer's free valence

  ATOM       NA         ZA         QA         VA         BVA        FA
  0 C      6.5068     6.0000    -0.5068     3.7721     3.7721    -0.0000
  1 H      0.8196     1.0000     0.1804     0.9311     0.9311    -0.0000
  2 C      6.3610     6.0000    -0.3610     3.8469     3.8469     0.0000
  3 C      6.1505     6.0000    -0.1505     3.8089     3.8089     0.0000
  4 C      6.1960     6.0000    -0.1960     3.8272     3.8272    -0.0000
  5 C      6.1490     6.0000    -0.1490     3.7698     3.7698     0.0000
  6 H      0.8404     1.0000     0.1596     0.9319     0.9319    -0.0000
  7 H      0.8296     1.0000     0.1704     0.9226     0.9226     0.0000
  8 H      0.8289     1.0000     0.1711     0.9394     0.9394     0.0000
  9 H      0.8382     1.0000     0.1618     0.9440     0.9440     0.0000
 10 H      0.8264     1.0000     0.1736     0.9372     0.9372    -0.0000
 11 H      0.8263     1.0000     0.1737     0.9389     0.9389    -0.0000
 12 H      0.8273     1.0000     0.1727     0.9388     0.9388    -0.0000

  Mayer bond orders larger than 0.100000
B(  0-C ,  1-H ) :   0.9459 B(  0-C ,  5-C ) :   0.9569 B(  0-C ,  6-H ) :   0.9594 
B(  0-C ,  7-H ) :   0.9451 B(  2-C ,  3-C ) :   1.8834 B(  2-C ,  8-H ) :   0.9618 
B(  2-C ,  9-H ) :   0.9628 B(  3-C ,  4-C ) :   1.0433 B(  3-C , 10-H ) :   0.9576 
B(  4-C ,  5-C ) :   1.8868 B(  4-C , 11-H ) :   0.9569 B(  5-C , 12-H ) :   0.9583 


-------
TIMINGS
-------

Total SCF time: 0 days 0 hours 0 min 0 sec 

Total time                  ....       0.611 sec
Sum of individual times     ....       0.569 sec  ( 93.3%)

SCF preparation             ....       0.254 sec  ( 41.7%)
Fock matrix formation       ....       0.262 sec  ( 42.9%)
  Startup                   ....       0.001 sec  (  0.5% of F)
  Coulomb+Exchange Fock     ....       0.279 sec  (106.6% of F)
Diagonalization             ....       0.000 sec  (  0.0%)
Density matrix formation    ....       0.008 sec  (  1.2%)
Total Energy calculation    ....       0.004 sec  (  0.7%)
Population analysis         ....       0.005 sec  (  0.8%)
Orbital Transformation      ....       0.004 sec  (  0.7%)
Orbital Orthonormalization  ....       0.000 sec  (  0.0%)
DIIS solution               ....       0.019 sec  (  3.1%)
SOSCF solution              ....       0.013 sec  (  2.1%)
Finished LeanSCF after   0.6 sec

Maximum memory used throughout the entire LEANSCF-calculation: 6.4 MB

-------------------------   --------------------
FINAL SINGLE POINT ENERGY      -193.878842118033
-------------------------   --------------------



           ************************************************************
           *        Program running with 8 parallel MPI-processes     *
           *              working on a common directory               *
           ************************************************************

------------------------------------------------------------------------------
                              ORCA PROPERTY CALCULATIONS
------------------------------------------------------------------------------

GBWName                                 ... h-shift_009.gbw
Number of atoms                         ...     13
Number of basis functions               ...     61
Max core memory                         ...   1200 MB

Electric properties:
Dipole moment                           ... YES
Quadrupole moment                       ...  NO
Static polarizability (Dipole/Dipole)   ...  NO
Static polarizability (Dipole/Quad.)    ...  NO
Static polarizability (Quad./Quad.)     ...  NO
Static polarizability (Velocity)        ...  NO
Static hyperpolarizability              ...  NO

Atomic electric properties:
Dipole moment                           ...  NO
Quadrupole moment                       ...  NO
Static polarizability                   ...  NO

Choice of electric origin               ... Center of mass
Position of electric origin             ...     1.900530    -1.414134     2.041465

General magnetic properties:
Magnetizability                         ...  NO

EPR properties:
g-Tensor (aka g-matrix)                 ...  NO
Zero-Field splitting spin-orbit         ...  NO
Zero-field splitting spin-spin          ...  NO
Hyperfine couplings                     ...  NO (   0 nuclei)
Quadrupole couplings                    ...  NO (   0 nuclei)
Contact density                         ...  NO (   0 nuclei)

NMR properties:
Chemical shifts                         ...  NO (   0 nuclei)
Spin-rotation constants                 ...  NO (   0 nuclei)
Spin-spin couplings                     ...  NO (   0 nuclei,    0 pairs)

Choice of magnetic origin               ... GIAO
Position of magnetic origin             ...     0.000000     0.000000     0.000000

Properties with geometric perturbations:
SCF Hessian                             ...  NO
IR spectrum                             ...  NO
VCD spectrum                            ...  NO
X-ray spectroscopy properties:
SCF XES/XAS/RIXS spectra                ...  NO

SCF SOC stabilization energy            ...  NO
Diagonal Born-Oppenheimer correction    ...  NO

-------------
DIPOLE MOMENT
-------------

Method             : SCF
Type of density    : Electron Density
Multiplicity       :   1
Irrep              :   0
Energy             :  -193.8788421180325656 Eh
Basis              : AO
                                X                 Y                 Z
Electronic contribution:      0.306891036      -1.816744404       1.692784307
Nuclear contribution   :     -0.367200939       1.839544415      -1.785523774
                        -----------------------------------------
Total Dipole Moment    :     -0.060309903       0.022800011      -0.092739467
                        -----------------------------------------
Magnitude (a.u.)       :      0.112950138
Magnitude (Debye)      :      0.287096435



--------------------
Rotational spectrum 
--------------------
 
Rotational constants in cm-1:             0.289612             0.135899             0.095730 
Rotational constants in MHz :          8682.351933          4074.143474          2869.913391 

Dipole components along the rotational axes: 
x,y,z [a.u.] :     0.098661     0.045350    -0.031098 
x,y,z [Debye]:     0.250777     0.115270    -0.079044 

 

Dipole moment calculation done in   0.0 sec 

Maximum memory used throughout the entire PROP-calculation: 2.2 MB

--------------------------------
SUGGESTED CITATIONS FOR THIS RUN
--------------------------------

Below you find a list of papers that are relevant to this ORCA run
We neither can nor want to force you to cite these papers, but we appreciate if you do
You receive ORCA, which is the product of decades of hard work by many enthusiastic individuals, for free
The only thing we kindly ask in return is that you cite our papers,
We deeply appreciate it, if you show your appreciation for ORCA by not just citing the generic ORCA reference.

Please note that relegating all ORCA citations to the supporting information does *not* help us.
SI sections are not indexed - citations you put there will not count into any citation statistics
But we need these citations in order to attract the funding resources that allow us to do what we are doing

Therefore, if you are a happy ORCA user, please consider citing a few of the papers listed below in the main body of your paper

In addition to the list printed below, the program has created the file h-shift_009.bibtex that contains the list in bibtex format
You can import this file easily into all common literature databanks and citation aid programs


List of essential papers. We consider these as the minimum necessary citations

  1. Neese, F.
     Software update: the ORCA program system, version 6.0
     WIRES Comput. Molec. Sci. 2025 15(1), e70019
     doi.org/10.1002/wcms.7019

List of papers to cite with high priority. The work reported in these papers was absolutely
necessary for this run to complete.
Our perspective: the developers of density functionals and basis sets usually get cited in chemistry papers
Good! But without the algorithms to do something with them, the functionals or basis sets would not do anything.
Hence, in our opinion, the algorithm design and method developments papers are equally worthy of getting cited

  1. Neese, F.
     The SHARK Integral Generation and Digestion System
     J. Comp. Chem. 2022 44(3), 381
     doi.org/10.1002/jcc.26942

List of suggested additional citations. These are papers that are important in the 'surrounding' of 
of this run, or papers that preceded the highly important papers. If you like your results we are grateful for a citation.

  1. Neese, F.
     The ORCA program system
     WIRES Comput. Molec. Sci. 2012 2(1), 73-78
     doi.org/10.1002/wcms.81
  2. Neese, F.
     Software update: the ORCA program system, version 4.0
     WIRES Comput. Molec. Sci. 2018 8(1), 1-6
     doi.org/10.1002/wcms.1327
  3. Neese, F.; Wennmohs, F.; Becker, U.; Riplinger, C.
     The ORCA quantum chemistry program package
     J. Chem. Phys. 2020 152(22), 224108
     doi.org/10.1063/5.0004608
  4. Neese, F.
     Software update: The ORCA program system—Version 5.0
     WIRES Comput. Molec. Sci. 2022 12(1), e1606
     doi.org/10.1002/wcms.1606

List of optional additional citations

  1. Neese, F.
     Approximate second-order SCF convergence for spin unrestricted wavefunctions
     Chem. Phys. Lett. 2000 325(1-3), 93-98
     doi.org/10.1016/s0009-2614(00)00662-x

Timings for individual modules:

Sum of individual times          ...        2.214 sec (=   0.037 min)
Startup calculation              ...        0.644 sec (=   0.011 min)  29.1 %
SCF iterations                   ...        1.192 sec (=   0.020 min)  53.8 %
Property calculations            ...        0.379 sec (=   0.006 min)  17.1 %
                             ****ORCA TERMINATED NORMALLY****
TOTAL RUN TIME: 0 days 0 hours 0 minutes 2 seconds 712 msec
