
                                 *****************
                                 * O   R   C   A *
                                 *****************

                                            #,                                       
                                            ###                                      
                                            ####                                     
                                            #####                                    
                                            ######                                   
                                           ########,                                 
                                     ,,################,,,,,                         
                               ,,#################################,,                 
                          ,,##########################################,,             
                       ,#########################################, ''#####,          
                    ,#############################################,,   '####,        
                  ,##################################################,,,,####,       
                ,###########''''           ''''###############################       
              ,#####''   ,,,,##########,,,,          '''####'''          '####       
            ,##' ,,,,###########################,,,                        '##       
           ' ,,###''''                  '''############,,,                           
         ,,##''                                '''############,,,,        ,,,,,,###''
      ,#''                                            '''#######################'''  
     '                                                          ''''####''''         
             ,#######,   #######,   ,#######,      ##                                
            ,#'     '#,  ##    ##  ,#'     '#,    #''#        ,####,    ,#,          
            ##       ##  ##   ,#'  ##            #'  '#       #'       ,# #          
            ##       ##  #######   ##           ,######,      #####,      #          
            '#,     ,#'  ##    ##  '#,     ,#' ,#      #,     #,   #      #          
             '#######'   ##     ##  '#######'  #'      '#     '####' #    #          



                #########################################################
                #                        -***-                          #
                #          Department of theory and spectroscopy        #
                #                                                       #
                #                      Frank Neese                      #
                #                                                       #
                #     Directorship, Architecture, Infrastructure        #
                #                    SHARK, DRIVERS                     #
                #        Core code/Algorithms in most modules           #
                #                                                       #
                #        Max Planck Institute fuer Kohlenforschung      #
                #                Kaiser Wilhelm Platz 1                 #
                #                 D-45470 Muelheim/Ruhr                 #
                #                      Germany                          #
                #                                                       #
                #                  All rights reserved                  #
                #                        -***-                          #
                #########################################################


                         Program Version 6.1.0  -  RELEASE   -
                                (GIT: $679e74b$)
                          ($2025-06-10 18:02:51 +0200$)


 With contributions from (in alphabetic order):
[Max-Planck-Institut fuer Kohlenforschung]                               
  Daniel Aravena         : Magnetic Suceptibility                        
  Michael Atanasov       : Ab Initio Ligand Field Theory (pilot matlab implementation)
  Alexander A. Auer      : GIAO ZORA, VPT2 properties, NMR spectrum      
  Ute Becker             : All parallelization in ORCA, NUMFREQ, NUMCALC 
  Giovanni Bistoni       : ED, misc. LED, open-shell LED, HFLD           
  Dmytro Bykov           : pre 5.0 version of the SCF Hessian            
  Marcos Casanova-Páez   : Triplet and SCS-CIS(D). UHF-(DLPNO)-IP/EA/STEOM-CCSD. UHF-CVS-IP/STEOM-CCSD   
  Vijay G. Chilkuri      : MRCI spin determinant printing, contributions to CSF-ICE 
  Pauline Colinet        : FMM embedding                                 
  Dipayan Datta          : RHF DLPNO-CCSD density                        
  Achintya Kumar Dutta   : EOM-CC, STEOM-CC                              
  Nicolas Foglia         : Exact transition moments, OPA infrastructure, MCD improvements    
  Dmitry Ganyushin       : Spin-Orbit,Spin-Spin,Magnetic field MRCI      
  Miquel Garcia-Rates    : C-PCM and meta-GGA Hessian, CCSD/C-PCM, Gaussian charge scheme 
  Tiago L. C. Gouveia    : GS-ROHF, GS-ROCIS                             
  Yang Guo               : DLPNO-NEVPT2, F12-NEVPT2, CIM, IAO-localization        
  Andreas Hansen         : Spin unrestricted coupled pair/coupled cluster methods 
  Ingolf Harden          : AUTO-CI MPn and infrastructure                
  Benjamin Helmich-Paris : MC-RPA, TRAH-(SCF,CASSCF), AVAS, COSX integrals, SCF dyn. polar., MC-PDFT, srDFT 
  Lee Huntington         : MR-EOM, pCC                                   
  Robert Izsak           : Overlap fitted RIJCOSX, COSX-SCS-MP3, EOM     
  Riya Kayal             : Wick's Theorem for AUTO-CI, AUTO-CI UHF-CCSDT 
  Emily Kempfer          : AUTO-CI RHF CISDT and CCSDT, approximate NEVPT4
  Christian Kollmar      : KDIIS, OOCD, Brueckner-CCSD(T), CCSD density, CASPT2, CASPT2-K, improved NEVPT2 
  Axel Koslowski         : Symmetry handling                             
  Simone Kossmann        : meta-GGA functionals, TD-DFT gradient, OOMP2, (MP2 Hessian; deprecated post 5.0) 
  Lucas Lang             : DCDCAS, Hyperfine gauge corrections, ICE-SOC+SSC
  Marvin Lechner         : AUTO-CI (C++ implementation), FIC-MRCC        
  Spencer Leger          : CASSCF response                               
  Dagmar Lenk            : GEPOL surface, SMD, ORCA-2-JSON               
  Dimitrios Liakos       : Extrapolation schemes; Compound Job, Property file
  Dimitrios Manganas     : Further ROCIS development; embedding schemes. LFT, Crystal Embedding 
  Dimitrios Pantazis     : SARC Basis sets                               
  Anastasios Papadopoulos: AUTO-CI, single reference methods and gradients 
  Taras Petrenko         : pre 6.0 DFT Hessian and TD-DFT gradient,  ECA, NRVS 
  Petra Pikulova         : Analytic Raman intensities                    
  Peter Pinski           : DLPNO-MP2, DLPNO-MP2 Gradient                 
  Shashank Vittal Rao    : ES-AILFT, MagRelax                            
  Christoph Reimann      : Effective Core Potentials                     
  Marius Retegan         : Local ZFS, SOC                                
  Christoph Riplinger    : Optimizer, TS searches, QM/MM, DLPNO-CCSD(T), (RO)-DLPNO pert. Triples 
  Michael Roemelt        : Original ROCIS implementation, recursive CI coupling coefficients
  Masaaki Saitow         : Open-shell DLPNO-CCSD energy and density      
  Barbara Sandhoefer     : DKH picture change effects                    
  Yorick L. A. Schmerwitz: GMF and freeze-and-release deltaSCF, NEB S-IDPP initial path                    
  Kantharuban Sivalingam : CASSCF convergence/infrastructure, NEVPT2, NEVPT3, NEVPT4(SD), FIC-MRCI and CEPA variants
  Bernardo de Souza      : ESD, SOC TD-DFT                               
  Georgi L. Stoychev     : AutoAux, RI-MP2 NMR, DLPNO-MP2 response, X2C  
  Van Anh Tran           : RI-MP2 g-tensors                              
  Willem Van den Heuvel  : Paramagnetic NMR                              
  Zikuan Wang            : NOTCH, Electric field optimization            
  Frank Wennmohs         : Technical directorship and infrastructure     
  Hang Xu                : AUTO-CI-Response properties                   
                                                                         
[FACCTs GmbH]                                                            
  Markus Bursch, Nicolas Foglia, Miquel Garcia-Rates, Ingolf Harden, Hagen Neugebauer, Anastasios Papadopoulos, 
  Christoph Riplinger, Bernardo de Souza, Georgi L. Stoychev                                                    
                                                                 
  APM, various basis sets, CI-OPT, improved COSX, DLPNO-Multilevel,           
  DOCKER, DRACO, updates on ESD, Fragmentator, GOAT, IRC, LR-CPCM, L-BFGS, MBIS, meta-GGA TD-DFT gradient, ML-optimized integration grids, 
  MM, NACMEs, nearIR, NEB, NEB-TS, NL-DFT gradient (VV10), 2- and 3-layer-ONIOM, interface openCOSMO-RS, QMMM,   
  Crystal-QMMM, RESP, rigid body optimization, SF, symmetry and pop. for TD-DFT, various functionals, SOLVATOR                                   
                                                                         
[Other institutions]                                                     
  V. Asgeirsson          : NEB                                           
  Christoph Bannwarth    : sTDA-DFT, sTD-DFT, PBEh-3c, B97-3c, D3        
  Giovanni Bistoni       : ETS/NOCV, ADLD/ADEX, COVALED                  
  Martin Brehm           : Molecular dynamics                            
  Ronald Cardenas        : ETS/NOCV                                      
  Martina Colucci        : COVALED                                       
  Sebastian Ehlert       : rSCAN, r2SCAN, r2SCAN-3c, D4, dhf basis sets  
  Marvin Friede          : D4 for Fr, Ra, Ac-Lr                          
  Lars Goerigk           : TD-DFT with DH, B97 family of functionals     
  Stefan Grimme          : VdW corrections, initial TS optimization, DFT functionals, gCP, sTDA/sTD-DF 
  Waldemar Hujo          : DFT-NL                                        
  H. Jonsson             : NEB                                           
  Holger Kruse           : gCP                                           
  Marcel Mueller         : wB97X-3c, vDZP basis set                      
  Hagen Neugebauer       : wr2SCAN, Native XTB                           
  Gianluca Regni         : ADLD/ADEX                                     
  Tobias Risthaus        : pre 6.0 range-separated hybrid DFT and stability analysis
  Lukas Wittmann         : regularized MP2, r2SCAN double-hybrids, wr2SCAN        
                                                                         
We gratefully acknowledge several colleagues who have allowed us to      
interface, adapt or use parts of their codes:                            
  Ed Valeev, F. Pavosevic, A. Kumar             : LibInt (2-el integral package), F12 methods 
  Garnet Chan, S. Sharma, J. Yang, R. Olivares  : DMRG                   
  Ulf Ekstrom                                   : XCFun DFT Library      
  Mihaly Kallay                                 : mrcc  (arbitrary order and MRCC methods)
  Frank Weinhold                                : gennbo (NPA and NBO analysis)           
  Simon Mueller                                 : openCOSMO-RS                            
  Christopher J. Cramer and Donald G. Truhlar   : smd solvation model                     
  S Lehtola, MJT Oliveira, MAL Marques          : LibXC Library                           
  Liviu Ungur et al                             : ANISO software                          


 Your calculation uses the libint2 library for the computation of 2-el integrals
 For citations please refer to: http://libint.valeyev.net

 Your ORCA version has been built with support for libXC version: 7.0.0
 For citations please refer to: https://libxc.gitlab.io

 This ORCA versions uses:
   CBLAS   interface :  Fast vector & matrix operations
   LAPACKE interface :  Fast linear algebra routines
   SCALAPACK package :  Parallel linear algebra routines
   Shared memory     :  Shared parallel matrices
   BLAS/LAPACK       :  OpenBLAS 0.3.29  USE64BITINT DYNAMIC_ARCH NO_AFFINITY Zen SINGLE_THREADED
        Core in use  :  Zen
   Copyright (c) 2011-2014, The OpenBLAS Project


  ***********************************
  * Starting time: Sun Apr  5 13:03:12 2026
  * Host name:     QC1
  * Process ID:    14081
  * Working dir.:  /home/user/QC/h-shift/split_2
  ***********************************

NOTE: MaxCore=1200 MB was set to SCF,MP2,MDCI,CIPSI,MRCI,RASCI and CIS
      => If you want to overwrite this, your respective input block should be placed after the MaxCore statement
================================================================================

----- Orbital basis set information -----
Your calculation utilizes the basis: 6-31G
   H-He, Li-Ne : W. J. Hehre, R. Ditchfield and J.A. Pople, J. Chem. Phys. 56, 2257 (1972).
                 Note: He and Ne are unpublished basis sets taken from the Gaussian program.
                 Note: Li and B from J. D. Dill and J. A. Pople, J. Chem. Phys. 62, 2921 (1975).
   Na - Ar     : M. M. Francl, W. J. Pietro, W. J. Hehre, J. S. Binkley, M. S. Gordon, 
                 D. J. DeFrees and J. A. Pople, J. Chem. Phys. 77, 3654 (1982).
   K - Zn      : V. A. Rassolov, J. A. Pople, M. A. Ratner, and T. L. Windus, J. Chem. Phys. 109, 1223 (1998).

================================================================================
                                        WARNINGS
                       Please study these warnings very carefully!
================================================================================


================================================================================
                                       INPUT FILE
================================================================================
NAME = h-shift_080.inp
|  1> ! HF 6-31G
|  2> %maxcore 1200
|  3> %pal nprocs 8 end
|  4> * xyz 0 1
|  5> C   -0.43939600   0.00780400   0.02964100
|  6> H    2.14027200   0.01402400   0.02933500
|  7> C    2.47394700   0.01002300   1.05982700
|  8> C    1.85774800  -1.12827500   1.82027700
|  9> C    0.62769900  -1.60710800   1.63923400
| 10> C   -0.32923700  -1.18624800   0.60499800
| 11> H   -1.11844400   0.16873600  -0.78482900
| 12> H    0.13013400   0.86024500   0.33839000
| 13> H    2.18234900   0.96341100   1.49278700
| 14> H    3.55416500  -0.03560200   1.07056000
| 15> H    2.47912400  -1.59625500   2.56452000
| 16> H    0.31057900  -2.43405400   2.25203100
| 17> H   -0.98699400  -1.96857500   0.26609800
| 18> *
| 19> 
| 20>                          ****END OF INPUT****
================================================================================

                       ****************************
                       * Single Point Calculation *
                       ****************************

---------------------------------
CARTESIAN COORDINATES (ANGSTROEM)
---------------------------------
  C     -0.439396    0.007804    0.029641
  H      2.140272    0.014024    0.029335
  C      2.473947    0.010023    1.059827
  C      1.857748   -1.128275    1.820277
  C      0.627699   -1.607108    1.639234
  C     -0.329237   -1.186248    0.604998
  H     -1.118444    0.168736   -0.784829
  H      0.130134    0.860245    0.338390
  H      2.182349    0.963411    1.492787
  H      3.554165   -0.035602    1.070560
  H      2.479124   -1.596255    2.564520
  H      0.310579   -2.434054    2.252031
  H     -0.986994   -1.968575    0.266098

----------------------------
CARTESIAN COORDINATES (A.U.)
----------------------------
  NO LB      ZA    FRAG     MASS         X           Y           Z
   0 C     6.0000    0    12.011   -0.830338    0.014747    0.056013
   1 H     1.0000    0     1.008    4.044528    0.026502    0.055435
   2 C     6.0000    0    12.011    4.675082    0.018941    2.002783
   3 C     6.0000    0    12.011    3.510635   -2.132131    3.439825
   4 C     6.0000    0    12.011    1.186179   -3.036994    3.097703
   5 C     6.0000    0    12.011   -0.622168   -2.241684    1.143281
   6 H     1.0000    0     1.008   -2.113553    0.318865   -1.483112
   7 H     1.0000    0     1.008    0.245918    1.625627    0.639464
   8 H     1.0000    0     1.008    4.124042    1.820583    2.820959
   9 H     1.0000    0     1.008    6.716398   -0.067278    2.023065
  10 H     1.0000    0     1.008    4.684865   -3.016485    4.846240
  11 H     1.0000    0     1.008    0.586909   -4.599695    4.255722
  12 H     1.0000    0     1.008   -1.865148   -3.720068    0.502852

--------------------------------
INTERNAL COORDINATES (ANGSTROEM)
--------------------------------
 C      0   0   0     0.000000000000     0.00000000     0.00000000
 H      1   0   0     2.579675516855     0.00000000     0.00000000
 C      2   1   0     1.083175320846   107.93452507     0.00000000
 C      3   2   1     1.501235406892   110.99393266    53.95468281
 C      4   3   2     1.332320589100   125.63579118   324.93843688
 C      1   2   3     1.330011601992    85.37640735   295.98996530
 H      1   2   3     1.072551479337   129.24671241   168.98032890
 H      1   2   3     1.070675499104    57.73613553    70.32341280
 H      3   2   1     1.086937180222   107.04206001   293.07056089
 H      3   2   1     1.081234371188   108.50350850   177.30681462
 H      4   3   2     1.076573758191   116.28740593   144.14242410
 H      5   4   3     1.076998117234   118.06566841   179.71293536
 H      6   1   2     1.076816147714   117.74321581   222.53137246

---------------------------
INTERNAL COORDINATES (A.U.)
---------------------------
 C      0   0   0     0.000000000000     0.00000000     0.00000000
 H      1   0   0     4.874880241237     0.00000000     0.00000000
 C      2   1   0     2.046904711421   107.93452507     0.00000000
 C      3   2   1     2.836923781571   110.99393266    53.95468281
 C      4   3   2     2.517721035983   125.63579118   324.93843688
 C      1   2   3     2.513357682703    85.37640735   295.98996530
 H      1   2   3     2.026828560479   129.24671241   168.98032890
 H      1   2   3     2.023283471606    57.73613553    70.32341280
 H      3   2   1     2.054013595395   107.04206001   293.07056089
 H      3   2   1     2.043236848128   108.50350850   177.30681462
 H      4   3   2     2.034429565947   116.28740593   144.14242410
 H      5   4   3     2.035231488321   118.06566841   179.71293536
 H      6   1   2     2.034887615764   117.74321581   222.53137246

---------------------
BASIS SET INFORMATION
---------------------
There are 2 groups of distinct atoms

 Group   1 Type C   : 10s4p contracted to 3s2p pattern {631/31}
 Group   2 Type H   : 4s contracted to 2s pattern {31}

Atom   0C    basis set group =>   1
Atom   1H    basis set group =>   2
Atom   2C    basis set group =>   1
Atom   3C    basis set group =>   1
Atom   4C    basis set group =>   1
Atom   5C    basis set group =>   1
Atom   6H    basis set group =>   2
Atom   7H    basis set group =>   2
Atom   8H    basis set group =>   2
Atom   9H    basis set group =>   2
Atom  10H    basis set group =>   2
Atom  11H    basis set group =>   2
Atom  12H    basis set group =>   2


           ************************************************************
           *        Program running with 8 parallel MPI-processes     *
           *              working on a common directory               *
           ************************************************************
------------------------------------------------------------------------------
                             ORCA STARTUP CALCULATIONS
------------------------------------------------------------------------------
------------------------------------------------------------------------------
                   ___                                                        
                  /   \      - P O W E R E D   B Y -                         
                 /     \                                                     
                 |  |  |   _    _      __       _____    __    __             
                 |  |  |  | |  | |    /  \     |  _  \  |  |  /  |          
                  \  \/   | |  | |   /    \    | | | |  |  | /  /          
                 / \  \   | |__| |  /  /\  \   | |_| |  |  |/  /          
                |  |  |   |  __  | /  /__\  \  |    /   |      \           
                |  |  |   | |  | | |   __   |  |    \   |  |\   \          
                \     /   | |  | | |  |  |  |  | |\  \  |  | \   \       
                 \___/    |_|  |_| |__|  |__|  |_| \__\ |__|  \__/        
                                                                              
                      - O R C A' S   B I G   F R I E N D -                    
                                      &                                       
                       - I N T E G R A L  F E E D E R -                       
                                                                              
 v1 FN, 2020, v2 2021, v3 2022-2024                                           
------------------------------------------------------------------------------


----------------------
SHARK INTEGRAL PACKAGE
----------------------

Number of atoms                             ...     13
Number of basis functions                   ...     61
Number of shells                            ...     41
Maximum angular momentum                    ...      1
Integral batch strategy                     ... SHARK/LIBINT Hybrid
RI-J (if used) integral strategy            ... SPLIT-RIJ (Revised 2003 algorithm where possible)
Printlevel                                  ...      1
Contraction scheme used                     ... SEGMENTED contraction
Prescreening option                         ... SCHWARTZ
   Thresh                                   ... 1.000e-10
   Tcut                                     ... 1.000e-11
   Tpresel                                  ... 1.000e-11 
Coulomb Range Separation                    ... NOT USED
Exchange Range Separation                   ... NOT USED
Multipole approximations                    ... NOT USED
Finite Nucleus Model                        ... NOT USED
CABS basis                                  ... NOT available
Auxiliary Coulomb fitting basis             ... NOT available
Auxiliary J/K fitting basis                 ... NOT available
Auxiliary Correlation fitting basis         ... NOT available
Auxiliary 'external' fitting basis          ... NOT available

Checking pre-screening integrals            ... done (  0.0 sec) Dimension = 41
   => SHARK Basis and OBASIS are compatible. Storing Pre-screening
Shell pair information
Shell pair cut-off parameter TPreSel        ...   1.0e-11
Total number of shell pairs                 ...       861
Shell pairs after pre-screening             ...       846
Total number of primitive shell pairs       ...      5382
Primitive shell pairs kept                  ...      3729
          la=0 lb=0:    481 shell pairs
          la=1 lb=0:    310 shell pairs
          la=1 lb=1:     55 shell pairs

Checking whether 4 symmetric matrices of dimension 61 fit in memory
:Max Core in MB      =   1200.00
 MB in use           =      2.04
 MB left             =   1197.96
 MB needed           =      0.06
 Data fit in memory  = YES
Calculating Nuclear repulsion               ... done (  0.0 sec) ENN=    160.582760480174 Eh

Diagonalization of the overlap matrix:
Smallest eigenvalue                        ... 3.367e-03
Time for diagonalization                   ...    0.000 sec
Threshold for overlap eigenvalues          ... 1.000e-07
Number of eigenvalues below threshold      ... 0
Time for construction of square roots      ...    0.000 sec
Total time needed                          ...    0.001 sec

-------------------
DFT GRID GENERATION
-------------------

General Integration Accuracy     IntAcc      ... 4.388
Radial Grid Type                 RadialGrid  ... OptM3 with GC (2021)
Angular Grid (max. ang.)         AngularGrid ... 4 (Lebedev-302)
Angular grid pruning method      GridPruning ... 4 (adaptive)
Weight generation scheme         WeightScheme... mBecke (2022)
Basis function cutoff            BFCut       ... 1.0000e-10
Integration weight cutoff        WCut        ... 1.0000e-14
Partially contracted basis set               ... off
Rotationally invariant grid construction     ... off
Angular grids for H and He will be reduced by one unit

Total number of grid points                  ...    56078
Total number of batches                      ...      883
Average number of points per batch           ...       63
Average number of grid points per atom       ...     4314
Grids setup in   0.2 sec
Initializing property integral containers    ... done (  0.0 sec)

SHARK setup successfully completed in   0.3 seconds

Maximum memory used throughout the entire STARTUP-calculation: 11.9 MB


           ************************************************************
           *        Program running with 8 parallel MPI-processes     *
           *              working on a common directory               *
           ************************************************************
-------------------------------------------------------------------------------
                                 ORCA GUESS
                   Start orbitals & Density for SCF / CASSCF
-------------------------------------------------------------------------------

------------
SCF SETTINGS
------------
Hamiltonian:
 Ab initio Hamiltonian  Method          .... Hartree-Fock(GTOs)


General Settings:
 Integral files         IntName         .... h-shift_080
 Hartree-Fock type      HFTyp           .... RHF
 Total Charge           Charge          ....    0
 Multiplicity           Mult            ....    1
 Number of Electrons    NEL             ....   38
 Basis Dimension        Dim             ....   61
 Nuclear Repulsion      ENuc            ....    160.5827604802 Eh

Convergence Acceleration:
 AO-DIIS                CNVDIIS         .... on
   Start iteration      DIISMaxIt       ....    12
   Startup error        DIISStart       ....  0.200000
   # of expansion vecs  DIISMaxEq       ....     5
   Bias factor          DIISBfac        ....   1.050
   Max. coefficient     DIISMaxC        ....  10.000
 MO-DIIS                CNVKDIIS        .... off
 Trust-Rad. Augm. Hess. CNVTRAH         .... auto
   Auto Start mean grad. ratio tolernc. ....  1.125000
   Auto Start start iteration           ....    50
   Auto Start num. interpolation iter.  ....    10
   Max. Number of Micro iterations      ....    24
   Max. Number of Macro iterations      .... Maxiter - #DIIS iter
   Number of Davidson start vectors     ....     2
   Converg. threshold    (grad. norm)   ....   5.000e-05
   Grad. Scal. Fac. for Micro threshold ....   0.100
   Minimum threshold for Micro iter.    ....   1.000e-02
   NR start threshold (gradient norm)   ....   1.000e-04
   Initial trust radius                 ....   0.400
   Minimum AH scaling param. (alpha)    ....   1.000
   Maximum AH scaling param. (alpha)    .... 1000.000
   Quad. conv. algorithm                .... NR
   White noise on init. David. guess    .... on
   Maximum white noise                  ....   0.010
   Pseudo random numbers                .... off
   Inactive MOs                         .... canonical
   Orbital update algorithm             .... Taylor
   Preconditioner                       .... Diag
   Full preconditioner red. dimension   ....   250
 SOSCF                 CNVSOSCF           .... on
   Start iteration     SOSCFMaxIt         ....   150
   Startup grad/error  SOSCFStart         ....  0.003300
   Hessian update      SOSCFHessUp        .... L-BFGS
   Autom. constraints  SOSCFAutoConstrain .... off
 Level Shifting         CNVShift        .... on
   Level shift para.    LevelShift      ....    0.2500
   Turn off err/grad.   ShiftErr        ....    0.0010
 Zerner damping         CNVZerner       .... off
 Static damping         CNVDamp         .... on
   Fraction old density DampFac         ....    0.7000
   Max. Damping (<1)    DampMax         ....    0.9800
   Min. Damping (>=0)   DampMin         ....    0.0000
   Turn off err/grad.   DampErr         ....    0.1000

SCF Procedure:
 Maximum # iterations   MaxIter         ....   125
 SCF integral mode      SCFMode         .... Direct
   Integral package                     .... SHARK and LIBINT hybrid scheme
 Reset frequency        DirectResetFreq ....    20
 Integral Threshold     Thresh          ....  1.000e-10 Eh
 Primitive CutOff       TCut            ....  1.000e-11 Eh

Convergence Tolerance:
 Convergence Check Mode ConvCheckMode   .... Total+1el-Energy
 Convergence forced     ConvForced      .... 0
 Energy Change          TolE            ....  1.000e-06 Eh
 1-El. energy change                    ....  1.000e-03 Eh
 Orbital Gradient       TolG            ....  5.000e-05
 Orbital Rotation angle TolX            ....  5.000e-05
 DIIS Error             TolErr          ....  1.000e-06

------------------------------
INITIAL GUESS: MODEL POTENTIAL
------------------------------
Loading Hartree-Fock densities                     ... done
Calculating cut-offs                               ... done
Initializing the effective Hamiltonian             ... done
Setting up the integral package (SHARK)            ... done
Starting the Coulomb interaction                   ... done (   0.0 sec)
Making the grid                                    ... done (   0.0 sec)
Mapping shells                                     ... done
Starting the XC term evaluation                    ... done (   0.0 sec)
Transforming the Hamiltonian                       ... done (   0.0 sec)
Diagonalizing the Hamiltonian                      ... done (   0.0 sec)
Back transforming the eigenvectors                 ... done (   0.0 sec)
Now organizing SCF variables                       ... done
                      ------------------
                      INITIAL GUESS DONE (   0.1 sec)
                      ------------------
             **** ENERGY FILE WAS UPDATED (h-shift_080.en.tmp) ****
Finished Guess after   0.3 sec
Maximum memory used throughout the entire GUESS-calculation: 4.2 MB


           ************************************************************
           *        Program running with 8 parallel MPI-processes     *
           *              working on a common directory               *
           ************************************************************

-------------------------------------------------------------------------------------------
                                      ORCA LEAN-SCF
                              memory conserving SCF solver
-------------------------------------------------------------------------------------------

----------------------------------------D-I-I-S--------------------------------------------
Iteration    Energy (Eh)           Delta-E    RMSDP     MaxDP     DIISErr   Damp  Time(sec)
-------------------------------------------------------------------------------------------
               ***  Starting incremental Fock matrix formation  ***
    1    -193.6465199597929825     0.00e+00  1.57e-02  5.20e-02  1.82e-01  0.700   0.1
    2    -193.7275635037312611    -8.10e-02  1.25e-02  3.95e-02  1.19e-01  0.700   0.0
                               ***Turning on AO-DIIS***
    3    -193.7776757995328296    -5.01e-02  7.70e-03  2.01e-02  7.16e-02  0.700   0.0
    4    -193.8093423846296730    -3.17e-02  1.83e-02  4.39e-02  4.86e-02  0.000   0.0
                              *** Initializing SOSCF ***
---------------------------------------S-O-S-C-F--------------------------------------
Iteration    Energy (Eh)           Delta-E    RMSDP     MaxDP     MaxGrad    Time(sec)
--------------------------------------------------------------------------------------
    5    -193.8778398295529826    -6.85e-02  1.69e-03  2.68e-03  2.16e-03     0.0
               *** Restarting incremental Fock matrix formation ***
    6    -193.8779597561171215    -1.20e-04  8.63e-04  1.42e-03  1.33e-03     0.0
    7    -193.8779947351173121    -3.50e-05  5.34e-04  1.09e-03  5.41e-04     0.0
    8    -193.8780014078046463    -6.67e-06  7.01e-05  1.99e-04  1.34e-04     0.0
    9    -193.8780016213300712    -2.14e-07  3.19e-05  9.49e-05  3.41e-05     0.0
                 **** Energy Check signals convergence ****

               *****************************************************
               *                     SUCCESS                       *
               *           SCF CONVERGED AFTER   9 CYCLES          *
               *****************************************************

             **** ENERGY FILE WAS UPDATED (h-shift_080.en.tmp) ****

----------------
TOTAL SCF ENERGY
----------------

Total Energy       :       -193.87800167721772 Eh           -5275.68864 eV

Components:
Nuclear Repulsion  :        160.58276048017390 Eh            4369.67906 eV
Electronic Energy  :       -354.46076215739163 Eh           -9645.36770 eV
One Electron Energy:       -578.12720685297916 Eh          -15731.64108 eV
Two Electron Energy:        223.66644469558753 Eh            6086.27338 eV

Virial components:
Potential Energy   :       -388.04059140384345 Eh          -10559.12131 eV
Kinetic Energy     :        194.16258972662570 Eh            5283.43267 eV
Virial Ratio       :          1.99853427969925

---------------
SCF CONVERGENCE
---------------

  Last Energy change         ...    2.1353e-07  Tolerance :   1.0000e-06
  Last MAX-Density change    ...    9.4885e-05  Tolerance :   1.0000e-05
  Last RMS-Density change    ...    3.1850e-05  Tolerance :   1.0000e-06
  Last DIIS Error            ...    2.1624e-03  Tolerance :   1.0000e-06
  Last Orbital Gradient      ...    3.4074e-05  Tolerance :   5.0000e-05
  Last Orbital Rotation      ...    3.3347e-05  Tolerance :   5.0000e-05


----------------
ORBITAL ENERGIES
----------------

  NO   OCC          E(Eh)            E(eV) 
   0   2.0000     -11.236028      -305.7479 
   1   2.0000     -11.235421      -305.7313 
   2   2.0000     -11.227445      -305.5143 
   3   2.0000     -11.221640      -305.3564 
   4   2.0000     -11.215475      -305.1886 
   5   2.0000      -1.099957       -29.9314 
   6   2.0000      -1.021482       -27.7959 
   7   2.0000      -0.941005       -25.6061 
   8   2.0000      -0.814156       -22.1543 
   9   2.0000      -0.716781       -19.5046 
  10   2.0000      -0.666974       -18.1493 
  11   2.0000      -0.604119       -16.4389 
  12   2.0000      -0.584923       -15.9166 
  13   2.0000      -0.567267       -15.4361 
  14   2.0000      -0.540751       -14.7146 
  15   2.0000      -0.507026       -13.7969 
  16   2.0000      -0.468878       -12.7588 
  17   2.0000      -0.412105       -11.2139 
  18   2.0000      -0.315725        -8.5913 
  19   0.0000       0.132783         3.6132 
  20   0.0000       0.233090         6.3427 
  21   0.0000       0.253657         6.9024 
  22   0.0000       0.264551         7.1988 
  23   0.0000       0.291824         7.9409 
  24   0.0000       0.319803         8.7023 
  25   0.0000       0.337029         9.1710 
  26   0.0000       0.346965         9.4414 
  27   0.0000       0.358137         9.7454 
  28   0.0000       0.367972        10.0130 
  29   0.0000       0.428383        11.6569 
*Only the first 10 virtual orbitals were printed.

                    ********************************
                    * MULLIKEN POPULATION ANALYSIS *
                    ********************************

-----------------------
MULLIKEN ATOMIC CHARGES
-----------------------
   0 C :   -0.361782
   1 H :    0.181206
   2 C :   -0.508292
   3 C :   -0.148448
   4 C :   -0.196566
   5 C :   -0.151368
   6 H :    0.161929
   7 H :    0.171474
   8 H :    0.170502
   9 H :    0.159462
  10 H :    0.173642
  11 H :    0.174660
  12 H :    0.173580
Sum of atomic charges:   -0.0000000

--------------------------------
MULLIKEN REDUCED ORBITAL CHARGES
--------------------------------
  0 C s       :     3.266162  s :     3.266162
      pz      :     1.042141  p :     3.095620
      px      :     1.058310
      py      :     0.995170

  1 H s       :     0.818794  s :     0.818794

  2 C s       :     3.366434  s :     3.366434
      pz      :     1.064967  p :     3.141858
      px      :     1.078513
      py      :     0.998377

  3 C s       :     3.210246  s :     3.210246
      pz      :     0.998125  p :     2.938201
      px      :     0.981858
      py      :     0.958219

  4 C s       :     3.193119  s :     3.193119
      pz      :     0.999411  p :     3.003448
      px      :     0.939327
      py      :     1.064710

  5 C s       :     3.194412  s :     3.194412
      pz      :     0.943511  p :     2.956956
      px      :     1.018344
      py      :     0.995101

  6 H s       :     0.838071  s :     0.838071

  7 H s       :     0.828526  s :     0.828526

  8 H s       :     0.829498  s :     0.829498

  9 H s       :     0.840538  s :     0.840538

 10 H s       :     0.826358  s :     0.826358

 11 H s       :     0.825340  s :     0.825340

 12 H s       :     0.826420  s :     0.826420



                     *******************************
                     * LOEWDIN POPULATION ANALYSIS *
                     *******************************

----------------------
LOEWDIN ATOMIC CHARGES
----------------------
   0 C :   -0.245776
   1 H :    0.124225
   2 C :   -0.319075
   3 C :   -0.107927
   4 C :   -0.149524
   5 C :   -0.114046
   6 H :    0.116237
   7 H :    0.117431
   8 H :    0.117158
   9 H :    0.111165
  10 H :    0.116308
  11 H :    0.117258
  12 H :    0.116566

-------------------------------
LOEWDIN REDUCED ORBITAL CHARGES
-------------------------------
  0 C s       :     2.988324  s :     2.988324
      pz      :     1.074518  p :     3.257452
      px      :     1.075669
      py      :     1.107265

  1 H s       :     0.875775  s :     0.875775

  2 C s       :     2.976044  s :     2.976044
      pz      :     1.127696  p :     3.343031
      px      :     1.121951
      py      :     1.093384

  3 C s       :     2.951454  s :     2.951454
      pz      :     1.034608  p :     3.156472
      px      :     1.089965
      py      :     1.031899

  4 C s       :     2.940445  s :     2.940445
      pz      :     1.053187  p :     3.209079
      px      :     1.085282
      py      :     1.070610

  5 C s       :     2.944998  s :     2.944998
      pz      :     1.023797  p :     3.169048
      px      :     1.034966
      py      :     1.110285

  6 H s       :     0.883763  s :     0.883763

  7 H s       :     0.882569  s :     0.882569

  8 H s       :     0.882842  s :     0.882842

  9 H s       :     0.888835  s :     0.888835

 10 H s       :     0.883692  s :     0.883692

 11 H s       :     0.882742  s :     0.882742

 12 H s       :     0.883434  s :     0.883434



                      *****************************
                      * MAYER POPULATION ANALYSIS *
                      *****************************

  NA   - Mulliken gross atomic population
  ZA   - Total nuclear charge
  QA   - Mulliken gross atomic charge
  VA   - Mayer's total valence
  BVA  - Mayer's bonded valence
  FA   - Mayer's free valence

  ATOM       NA         ZA         QA         VA         BVA        FA
  0 C      6.3618     6.0000    -0.3618     3.8463     3.8463    -0.0000
  1 H      0.8188     1.0000     0.1812     0.9309     0.9309    -0.0000
  2 C      6.5083     6.0000    -0.5083     3.7717     3.7717    -0.0000
  3 C      6.1484     6.0000    -0.1484     3.7680     3.7680    -0.0000
  4 C      6.1966     6.0000    -0.1966     3.8252     3.8252    -0.0000
  5 C      6.1514     6.0000    -0.1514     3.8083     3.8083    -0.0000
  6 H      0.8381     1.0000     0.1619     0.9439     0.9439     0.0000
  7 H      0.8285     1.0000     0.1715     0.9391     0.9391    -0.0000
  8 H      0.8295     1.0000     0.1705     0.9224     0.9224    -0.0000
  9 H      0.8405     1.0000     0.1595     0.9322     0.9322    -0.0000
 10 H      0.8264     1.0000     0.1736     0.9388     0.9388    -0.0000
 11 H      0.8253     1.0000     0.1747     0.9388     0.9388    -0.0000
 12 H      0.8264     1.0000     0.1736     0.9372     0.9372    -0.0000

  Mayer bond orders larger than 0.100000
B(  0-C ,  5-C ) :   1.8814 B(  0-C ,  6-H ) :   0.9628 B(  0-C ,  7-H ) :   0.9617 
B(  1-H ,  2-C ) :   0.9444 B(  2-C ,  3-C ) :   0.9578 B(  2-C ,  8-H ) :   0.9451 
B(  2-C ,  9-H ) :   0.9595 B(  3-C ,  4-C ) :   1.8842 B(  3-C , 10-H ) :   0.9580 
B(  4-C ,  5-C ) :   1.0446 B(  4-C , 11-H ) :   0.9566 B(  5-C , 12-H ) :   0.9575 


-------
TIMINGS
-------

Total SCF time: 0 days 0 hours 0 min 0 sec 

Total time                  ....       0.633 sec
Sum of individual times     ....       0.589 sec  ( 93.1%)

SCF preparation             ....       0.256 sec  ( 40.5%)
Fock matrix formation       ....       0.279 sec  ( 44.0%)
  Startup                   ....       0.002 sec  (  0.5% of F)
  Coulomb+Exchange Fock     ....       0.297 sec  (106.7% of F)
Diagonalization             ....       0.000 sec  (  0.0%)
Density matrix formation    ....       0.008 sec  (  1.2%)
Total Energy calculation    ....       0.005 sec  (  0.7%)
Population analysis         ....       0.004 sec  (  0.7%)
Orbital Transformation      ....       0.005 sec  (  0.7%)
Orbital Orthonormalization  ....       0.000 sec  (  0.0%)
DIIS solution               ....       0.020 sec  (  3.2%)
SOSCF solution              ....       0.013 sec  (  2.1%)
Finished LeanSCF after   0.6 sec

Maximum memory used throughout the entire LEANSCF-calculation: 6.4 MB

-------------------------   --------------------
FINAL SINGLE POINT ENERGY      -193.878001677218
-------------------------   --------------------



           ************************************************************
           *        Program running with 8 parallel MPI-processes     *
           *              working on a common directory               *
           ************************************************************

------------------------------------------------------------------------------
                              ORCA PROPERTY CALCULATIONS
------------------------------------------------------------------------------

GBWName                                 ... h-shift_080.gbw
Number of atoms                         ...     13
Number of basis functions               ...     61
Max core memory                         ...   1200 MB

Electric properties:
Dipole moment                           ... YES
Quadrupole moment                       ...  NO
Static polarizability (Dipole/Dipole)   ...  NO
Static polarizability (Dipole/Quad.)    ...  NO
Static polarizability (Quad./Quad.)     ...  NO
Static polarizability (Velocity)        ...  NO
Static hyperpolarizability              ...  NO

Atomic electric properties:
Dipole moment                           ...  NO
Quadrupole moment                       ...  NO
Static polarizability                   ...  NO

Choice of electric origin               ... Center of mass
Position of electric origin             ...     1.639413    -1.413401     1.919469

General magnetic properties:
Magnetizability                         ...  NO

EPR properties:
g-Tensor (aka g-matrix)                 ...  NO
Zero-Field splitting spin-orbit         ...  NO
Zero-field splitting spin-spin          ...  NO
Hyperfine couplings                     ...  NO (   0 nuclei)
Quadrupole couplings                    ...  NO (   0 nuclei)
Contact density                         ...  NO (   0 nuclei)

NMR properties:
Chemical shifts                         ...  NO (   0 nuclei)
Spin-rotation constants                 ...  NO (   0 nuclei)
Spin-spin couplings                     ...  NO (   0 nuclei,    0 pairs)

Choice of magnetic origin               ... GIAO
Position of magnetic origin             ...     0.000000     0.000000     0.000000

Properties with geometric perturbations:
SCF Hessian                             ...  NO
IR spectrum                             ...  NO
VCD spectrum                            ...  NO
X-ray spectroscopy properties:
SCF XES/XAS/RIXS spectra                ...  NO

SCF SOC stabilization energy            ...  NO
Diagonal Born-Oppenheimer correction    ...  NO

-------------
DIPOLE MOMENT
-------------

Method             : SCF
Type of density    : Electron Density
Multiplicity       :   1
Irrep              :   0
Energy             :  -193.8780016772177248 Eh
Basis              : AO
                                X                 Y                 Z
Electronic contribution:     -1.525227502      -1.817748739       0.824803455
Nuclear contribution   :      1.642621618       1.834552616      -0.841564765
                        -----------------------------------------
Total Dipole Moment    :      0.117394116       0.016803877      -0.016761311
                        -----------------------------------------
Magnitude (a.u.)       :      0.119769321
Magnitude (Debye)      :      0.304429421



--------------------
Rotational spectrum 
--------------------
 
Rotational constants in cm-1:             0.287672             0.138010             0.096562 
Rotational constants in MHz :          8624.199604          4137.434330          2894.869114 

Dipole components along the rotational axes: 
x,y,z [a.u.] :     0.101156     0.047195     0.043413 
x,y,z [Debye]:     0.257119     0.119960     0.110348 

 

Dipole moment calculation done in   0.0 sec 

Maximum memory used throughout the entire PROP-calculation: 2.2 MB

--------------------------------
SUGGESTED CITATIONS FOR THIS RUN
--------------------------------

Below you find a list of papers that are relevant to this ORCA run
We neither can nor want to force you to cite these papers, but we appreciate if you do
You receive ORCA, which is the product of decades of hard work by many enthusiastic individuals, for free
The only thing we kindly ask in return is that you cite our papers,
We deeply appreciate it, if you show your appreciation for ORCA by not just citing the generic ORCA reference.

Please note that relegating all ORCA citations to the supporting information does *not* help us.
SI sections are not indexed - citations you put there will not count into any citation statistics
But we need these citations in order to attract the funding resources that allow us to do what we are doing

Therefore, if you are a happy ORCA user, please consider citing a few of the papers listed below in the main body of your paper

In addition to the list printed below, the program has created the file h-shift_080.bibtex that contains the list in bibtex format
You can import this file easily into all common literature databanks and citation aid programs


List of essential papers. We consider these as the minimum necessary citations

  1. Neese, F.
     Software update: the ORCA program system, version 6.0
     WIRES Comput. Molec. Sci. 2025 15(1), e70019
     doi.org/10.1002/wcms.7019

List of papers to cite with high priority. The work reported in these papers was absolutely
necessary for this run to complete.
Our perspective: the developers of density functionals and basis sets usually get cited in chemistry papers
Good! But without the algorithms to do something with them, the functionals or basis sets would not do anything.
Hence, in our opinion, the algorithm design and method developments papers are equally worthy of getting cited

  1. Neese, F.
     The SHARK Integral Generation and Digestion System
     J. Comp. Chem. 2022 44(3), 381
     doi.org/10.1002/jcc.26942

List of suggested additional citations. These are papers that are important in the 'surrounding' of 
of this run, or papers that preceded the highly important papers. If you like your results we are grateful for a citation.

  1. Neese, F.
     The ORCA program system
     WIRES Comput. Molec. Sci. 2012 2(1), 73-78
     doi.org/10.1002/wcms.81
  2. Neese, F.
     Software update: the ORCA program system, version 4.0
     WIRES Comput. Molec. Sci. 2018 8(1), 1-6
     doi.org/10.1002/wcms.1327
  3. Neese, F.; Wennmohs, F.; Becker, U.; Riplinger, C.
     The ORCA quantum chemistry program package
     J. Chem. Phys. 2020 152(22), 224108
     doi.org/10.1063/5.0004608
  4. Neese, F.
     Software update: The ORCA program system—Version 5.0
     WIRES Comput. Molec. Sci. 2022 12(1), e1606
     doi.org/10.1002/wcms.1606

List of optional additional citations

  1. Neese, F.
     Approximate second-order SCF convergence for spin unrestricted wavefunctions
     Chem. Phys. Lett. 2000 325(1-3), 93-98
     doi.org/10.1016/s0009-2614(00)00662-x

Timings for individual modules:

Sum of individual times          ...        2.228 sec (=   0.037 min)
Startup calculation              ...        0.653 sec (=   0.011 min)  29.3 %
SCF iterations                   ...        1.187 sec (=   0.020 min)  53.3 %
Property calculations            ...        0.387 sec (=   0.006 min)  17.4 %
                             ****ORCA TERMINATED NORMALLY****
TOTAL RUN TIME: 0 days 0 hours 0 minutes 2 seconds 719 msec
