
                                 *****************
                                 * O   R   C   A *
                                 *****************

                                            #,                                       
                                            ###                                      
                                            ####                                     
                                            #####                                    
                                            ######                                   
                                           ########,                                 
                                     ,,################,,,,,                         
                               ,,#################################,,                 
                          ,,##########################################,,             
                       ,#########################################, ''#####,          
                    ,#############################################,,   '####,        
                  ,##################################################,,,,####,       
                ,###########''''           ''''###############################       
              ,#####''   ,,,,##########,,,,          '''####'''          '####       
            ,##' ,,,,###########################,,,                        '##       
           ' ,,###''''                  '''############,,,                           
         ,,##''                                '''############,,,,        ,,,,,,###''
      ,#''                                            '''#######################'''  
     '                                                          ''''####''''         
             ,#######,   #######,   ,#######,      ##                                
            ,#'     '#,  ##    ##  ,#'     '#,    #''#        ,####,    ,#,          
            ##       ##  ##   ,#'  ##            #'  '#       #'       ,# #          
            ##       ##  #######   ##           ,######,      #####,      #          
            '#,     ,#'  ##    ##  '#,     ,#' ,#      #,     #,   #      #          
             '#######'   ##     ##  '#######'  #'      '#     '####' #    #          



                #########################################################
                #                        -***-                          #
                #          Department of theory and spectroscopy        #
                #                                                       #
                #                      Frank Neese                      #
                #                                                       #
                #     Directorship, Architecture, Infrastructure        #
                #                    SHARK, DRIVERS                     #
                #        Core code/Algorithms in most modules           #
                #                                                       #
                #        Max Planck Institute fuer Kohlenforschung      #
                #                Kaiser Wilhelm Platz 1                 #
                #                 D-45470 Muelheim/Ruhr                 #
                #                      Germany                          #
                #                                                       #
                #                  All rights reserved                  #
                #                        -***-                          #
                #########################################################


                         Program Version 6.1.0  -  RELEASE   -
                                (GIT: $679e74b$)
                          ($2025-06-10 18:02:51 +0200$)


 With contributions from (in alphabetic order):
[Max-Planck-Institut fuer Kohlenforschung]                               
  Daniel Aravena         : Magnetic Suceptibility                        
  Michael Atanasov       : Ab Initio Ligand Field Theory (pilot matlab implementation)
  Alexander A. Auer      : GIAO ZORA, VPT2 properties, NMR spectrum      
  Ute Becker             : All parallelization in ORCA, NUMFREQ, NUMCALC 
  Giovanni Bistoni       : ED, misc. LED, open-shell LED, HFLD           
  Dmytro Bykov           : pre 5.0 version of the SCF Hessian            
  Marcos Casanova-Páez   : Triplet and SCS-CIS(D). UHF-(DLPNO)-IP/EA/STEOM-CCSD. UHF-CVS-IP/STEOM-CCSD   
  Vijay G. Chilkuri      : MRCI spin determinant printing, contributions to CSF-ICE 
  Pauline Colinet        : FMM embedding                                 
  Dipayan Datta          : RHF DLPNO-CCSD density                        
  Achintya Kumar Dutta   : EOM-CC, STEOM-CC                              
  Nicolas Foglia         : Exact transition moments, OPA infrastructure, MCD improvements    
  Dmitry Ganyushin       : Spin-Orbit,Spin-Spin,Magnetic field MRCI      
  Miquel Garcia-Rates    : C-PCM and meta-GGA Hessian, CCSD/C-PCM, Gaussian charge scheme 
  Tiago L. C. Gouveia    : GS-ROHF, GS-ROCIS                             
  Yang Guo               : DLPNO-NEVPT2, F12-NEVPT2, CIM, IAO-localization        
  Andreas Hansen         : Spin unrestricted coupled pair/coupled cluster methods 
  Ingolf Harden          : AUTO-CI MPn and infrastructure                
  Benjamin Helmich-Paris : MC-RPA, TRAH-(SCF,CASSCF), AVAS, COSX integrals, SCF dyn. polar., MC-PDFT, srDFT 
  Lee Huntington         : MR-EOM, pCC                                   
  Robert Izsak           : Overlap fitted RIJCOSX, COSX-SCS-MP3, EOM     
  Riya Kayal             : Wick's Theorem for AUTO-CI, AUTO-CI UHF-CCSDT 
  Emily Kempfer          : AUTO-CI RHF CISDT and CCSDT, approximate NEVPT4
  Christian Kollmar      : KDIIS, OOCD, Brueckner-CCSD(T), CCSD density, CASPT2, CASPT2-K, improved NEVPT2 
  Axel Koslowski         : Symmetry handling                             
  Simone Kossmann        : meta-GGA functionals, TD-DFT gradient, OOMP2, (MP2 Hessian; deprecated post 5.0) 
  Lucas Lang             : DCDCAS, Hyperfine gauge corrections, ICE-SOC+SSC
  Marvin Lechner         : AUTO-CI (C++ implementation), FIC-MRCC        
  Spencer Leger          : CASSCF response                               
  Dagmar Lenk            : GEPOL surface, SMD, ORCA-2-JSON               
  Dimitrios Liakos       : Extrapolation schemes; Compound Job, Property file
  Dimitrios Manganas     : Further ROCIS development; embedding schemes. LFT, Crystal Embedding 
  Dimitrios Pantazis     : SARC Basis sets                               
  Anastasios Papadopoulos: AUTO-CI, single reference methods and gradients 
  Taras Petrenko         : pre 6.0 DFT Hessian and TD-DFT gradient,  ECA, NRVS 
  Petra Pikulova         : Analytic Raman intensities                    
  Peter Pinski           : DLPNO-MP2, DLPNO-MP2 Gradient                 
  Shashank Vittal Rao    : ES-AILFT, MagRelax                            
  Christoph Reimann      : Effective Core Potentials                     
  Marius Retegan         : Local ZFS, SOC                                
  Christoph Riplinger    : Optimizer, TS searches, QM/MM, DLPNO-CCSD(T), (RO)-DLPNO pert. Triples 
  Michael Roemelt        : Original ROCIS implementation, recursive CI coupling coefficients
  Masaaki Saitow         : Open-shell DLPNO-CCSD energy and density      
  Barbara Sandhoefer     : DKH picture change effects                    
  Yorick L. A. Schmerwitz: GMF and freeze-and-release deltaSCF, NEB S-IDPP initial path                    
  Kantharuban Sivalingam : CASSCF convergence/infrastructure, NEVPT2, NEVPT3, NEVPT4(SD), FIC-MRCI and CEPA variants
  Bernardo de Souza      : ESD, SOC TD-DFT                               
  Georgi L. Stoychev     : AutoAux, RI-MP2 NMR, DLPNO-MP2 response, X2C  
  Van Anh Tran           : RI-MP2 g-tensors                              
  Willem Van den Heuvel  : Paramagnetic NMR                              
  Zikuan Wang            : NOTCH, Electric field optimization            
  Frank Wennmohs         : Technical directorship and infrastructure     
  Hang Xu                : AUTO-CI-Response properties                   
                                                                         
[FACCTs GmbH]                                                            
  Markus Bursch, Nicolas Foglia, Miquel Garcia-Rates, Ingolf Harden, Hagen Neugebauer, Anastasios Papadopoulos, 
  Christoph Riplinger, Bernardo de Souza, Georgi L. Stoychev                                                    
                                                                 
  APM, various basis sets, CI-OPT, improved COSX, DLPNO-Multilevel,           
  DOCKER, DRACO, updates on ESD, Fragmentator, GOAT, IRC, LR-CPCM, L-BFGS, MBIS, meta-GGA TD-DFT gradient, ML-optimized integration grids, 
  MM, NACMEs, nearIR, NEB, NEB-TS, NL-DFT gradient (VV10), 2- and 3-layer-ONIOM, interface openCOSMO-RS, QMMM,   
  Crystal-QMMM, RESP, rigid body optimization, SF, symmetry and pop. for TD-DFT, various functionals, SOLVATOR                                   
                                                                         
[Other institutions]                                                     
  V. Asgeirsson          : NEB                                           
  Christoph Bannwarth    : sTDA-DFT, sTD-DFT, PBEh-3c, B97-3c, D3        
  Giovanni Bistoni       : ETS/NOCV, ADLD/ADEX, COVALED                  
  Martin Brehm           : Molecular dynamics                            
  Ronald Cardenas        : ETS/NOCV                                      
  Martina Colucci        : COVALED                                       
  Sebastian Ehlert       : rSCAN, r2SCAN, r2SCAN-3c, D4, dhf basis sets  
  Marvin Friede          : D4 for Fr, Ra, Ac-Lr                          
  Lars Goerigk           : TD-DFT with DH, B97 family of functionals     
  Stefan Grimme          : VdW corrections, initial TS optimization, DFT functionals, gCP, sTDA/sTD-DF 
  Waldemar Hujo          : DFT-NL                                        
  H. Jonsson             : NEB                                           
  Holger Kruse           : gCP                                           
  Marcel Mueller         : wB97X-3c, vDZP basis set                      
  Hagen Neugebauer       : wr2SCAN, Native XTB                           
  Gianluca Regni         : ADLD/ADEX                                     
  Tobias Risthaus        : pre 6.0 range-separated hybrid DFT and stability analysis
  Lukas Wittmann         : regularized MP2, r2SCAN double-hybrids, wr2SCAN        
                                                                         
We gratefully acknowledge several colleagues who have allowed us to      
interface, adapt or use parts of their codes:                            
  Ed Valeev, F. Pavosevic, A. Kumar             : LibInt (2-el integral package), F12 methods 
  Garnet Chan, S. Sharma, J. Yang, R. Olivares  : DMRG                   
  Ulf Ekstrom                                   : XCFun DFT Library      
  Mihaly Kallay                                 : mrcc  (arbitrary order and MRCC methods)
  Frank Weinhold                                : gennbo (NPA and NBO analysis)           
  Simon Mueller                                 : openCOSMO-RS                            
  Christopher J. Cramer and Donald G. Truhlar   : smd solvation model                     
  S Lehtola, MJT Oliveira, MAL Marques          : LibXC Library                           
  Liviu Ungur et al                             : ANISO software                          


 Your calculation uses the libint2 library for the computation of 2-el integrals
 For citations please refer to: http://libint.valeyev.net

 Your ORCA version has been built with support for libXC version: 7.0.0
 For citations please refer to: https://libxc.gitlab.io

 This ORCA versions uses:
   CBLAS   interface :  Fast vector & matrix operations
   LAPACKE interface :  Fast linear algebra routines
   SCALAPACK package :  Parallel linear algebra routines
   Shared memory     :  Shared parallel matrices
   BLAS/LAPACK       :  OpenBLAS 0.3.29  USE64BITINT DYNAMIC_ARCH NO_AFFINITY Zen SINGLE_THREADED
        Core in use  :  Zen
   Copyright (c) 2011-2014, The OpenBLAS Project


  ***********************************
  * Starting time: Sun Apr  5 13:02:35 2026
  * Host name:     QC1
  * Process ID:    12157
  * Working dir.:  /home/user/QC/h-shift/split_2
  ***********************************

NOTE: MaxCore=1200 MB was set to SCF,MP2,MDCI,CIPSI,MRCI,RASCI and CIS
      => If you want to overwrite this, your respective input block should be placed after the MaxCore statement
================================================================================

----- Orbital basis set information -----
Your calculation utilizes the basis: 6-31G
   H-He, Li-Ne : W. J. Hehre, R. Ditchfield and J.A. Pople, J. Chem. Phys. 56, 2257 (1972).
                 Note: He and Ne are unpublished basis sets taken from the Gaussian program.
                 Note: Li and B from J. D. Dill and J. A. Pople, J. Chem. Phys. 62, 2921 (1975).
   Na - Ar     : M. M. Francl, W. J. Pietro, W. J. Hehre, J. S. Binkley, M. S. Gordon, 
                 D. J. DeFrees and J. A. Pople, J. Chem. Phys. 77, 3654 (1982).
   K - Zn      : V. A. Rassolov, J. A. Pople, M. A. Ratner, and T. L. Windus, J. Chem. Phys. 109, 1223 (1998).

================================================================================
                                        WARNINGS
                       Please study these warnings very carefully!
================================================================================


================================================================================
                                       INPUT FILE
================================================================================
NAME = h-shift_067.inp
|  1> ! HF 6-31G
|  2> %maxcore 1200
|  3> %pal nprocs 8 end
|  4> * xyz 0 1
|  5> C   -0.38800900   0.01740900   0.03284400
|  6> H    2.05107900   0.00563200   0.03920600
|  7> C    2.42653800   0.01112300   1.05488800
|  8> C    1.86100500  -1.14740600   1.82222800
|  9> C    0.61497900  -1.60225600   1.68477400
| 10> C   -0.32615900  -1.16383700   0.64408500
| 11> H   -0.98199500   0.15102800  -0.84956800
| 12> H    0.15435000   0.87929200   0.36080100
| 13> H    2.11198600   0.95206800   1.49865800
| 14> H    3.50573400   0.00427500   1.02322900
| 15> H    2.52416700  -1.65345500   2.50195000
| 16> H    0.30279300  -2.44116900   2.28317100
| 17> H   -0.97452200  -1.94457800   0.28660500
| 18> *
| 19> 
| 20>                          ****END OF INPUT****
================================================================================

                       ****************************
                       * Single Point Calculation *
                       ****************************

---------------------------------
CARTESIAN COORDINATES (ANGSTROEM)
---------------------------------
  C     -0.388009    0.017409    0.032844
  H      2.051079    0.005632    0.039206
  C      2.426538    0.011123    1.054888
  C      1.861005   -1.147406    1.822228
  C      0.614979   -1.602256    1.684774
  C     -0.326159   -1.163837    0.644085
  H     -0.981995    0.151028   -0.849568
  H      0.154350    0.879292    0.360801
  H      2.111986    0.952068    1.498658
  H      3.505734    0.004275    1.023229
  H      2.524167   -1.653455    2.501950
  H      0.302793   -2.441169    2.283171
  H     -0.974522   -1.944578    0.286605

----------------------------
CARTESIAN COORDINATES (A.U.)
----------------------------
  NO LB      ZA    FRAG     MASS         X           Y           Z
   0 C     6.0000    0    12.011   -0.733231    0.032898    0.062066
   1 H     1.0000    0     1.008    3.875978    0.010643    0.074089
   2 C     6.0000    0    12.011    4.585492    0.021019    1.993449
   3 C     6.0000    0    12.011    3.516790   -2.168283    3.443512
   4 C     6.0000    0    12.011    1.162142   -3.027825    3.183761
   5 C     6.0000    0    12.011   -0.616351   -2.199333    1.217144
   6 H     1.0000    0     1.008   -1.855702    0.285402   -1.605451
   7 H     1.0000    0     1.008    0.291679    1.661621    0.681815
   8 H     1.0000    0     1.008    3.991075    1.799148    2.832053
   9 H     1.0000    0     1.008    6.624877    0.008079    1.933623
  10 H     1.0000    0     1.008    4.769984   -3.124577    4.728000
  11 H     1.0000    0     1.008    0.572196   -4.613141    4.314568
  12 H     1.0000    0     1.008   -1.841580   -3.674720    0.541605

--------------------------------
INTERNAL COORDINATES (ANGSTROEM)
--------------------------------
 C      0   0   0     0.000000000000     0.00000000     0.00000000
 H      1   0   0     2.439124729184     0.00000000     0.00000000
 C      2   1   0     1.082870969639   110.43486270     0.00000000
 C      3   2   1     1.500275872475   110.18888617    55.95511434
 C      4   3   2     1.333552742599   124.25518499   322.64415118
 C      1   2   3     1.331459009920    87.02311009   296.94646268
 H      1   2   3     1.072065456538   123.83464105   171.14458724
 H      1   2   3     1.069837083120    59.74450228    68.89409234
 H      3   2   1     1.086854298712   106.67933279   295.94560882
 H      3   2   1     1.079681987347   108.60452402   179.92222723
 H      4   3   2     1.076053635247   116.99595174   140.69681396
 H      5   4   3     1.076714488513   118.64486900   180.04578423
 H      6   1   2     1.075975389705   117.59610379   225.16677778

---------------------------
INTERNAL COORDINATES (A.U.)
---------------------------
 C      0   0   0     0.000000000000     0.00000000     0.00000000
 H      1   0   0     4.609277744633     0.00000000     0.00000000
 C      2   1   0     2.046329570991   110.43486270     0.00000000
 C      3   2   1     2.835110524307   110.18888617    55.95511434
 C      4   3   2     2.520049468651   124.25518499   322.64415118
 C      1   2   3     2.516092887291    87.02311009   296.94646268
 H      1   2   3     2.025910110493   123.83464105   171.14458724
 H      1   2   3     2.021699095010    59.74450228    68.89409234
 H      3   2   1     2.053856972041   106.67933279   295.94560882
 H      3   2   1     2.040303267813   108.60452402   179.92222723
 H      4   3   2     2.033446676028   116.99595174   140.69681396
 H      5   4   3     2.034695507715   118.64486900   180.04578423
 H      6   1   2     2.033298813381   117.59610379   225.16677778

---------------------
BASIS SET INFORMATION
---------------------
There are 2 groups of distinct atoms

 Group   1 Type C   : 10s4p contracted to 3s2p pattern {631/31}
 Group   2 Type H   : 4s contracted to 2s pattern {31}

Atom   0C    basis set group =>   1
Atom   1H    basis set group =>   2
Atom   2C    basis set group =>   1
Atom   3C    basis set group =>   1
Atom   4C    basis set group =>   1
Atom   5C    basis set group =>   1
Atom   6H    basis set group =>   2
Atom   7H    basis set group =>   2
Atom   8H    basis set group =>   2
Atom   9H    basis set group =>   2
Atom  10H    basis set group =>   2
Atom  11H    basis set group =>   2
Atom  12H    basis set group =>   2


           ************************************************************
           *        Program running with 8 parallel MPI-processes     *
           *              working on a common directory               *
           ************************************************************
------------------------------------------------------------------------------
                             ORCA STARTUP CALCULATIONS
------------------------------------------------------------------------------
------------------------------------------------------------------------------
                   ___                                                        
                  /   \      - P O W E R E D   B Y -                         
                 /     \                                                     
                 |  |  |   _    _      __       _____    __    __             
                 |  |  |  | |  | |    /  \     |  _  \  |  |  /  |          
                  \  \/   | |  | |   /    \    | | | |  |  | /  /          
                 / \  \   | |__| |  /  /\  \   | |_| |  |  |/  /          
                |  |  |   |  __  | /  /__\  \  |    /   |      \           
                |  |  |   | |  | | |   __   |  |    \   |  |\   \          
                \     /   | |  | | |  |  |  |  | |\  \  |  | \   \       
                 \___/    |_|  |_| |__|  |__|  |_| \__\ |__|  \__/        
                                                                              
                      - O R C A' S   B I G   F R I E N D -                    
                                      &                                       
                       - I N T E G R A L  F E E D E R -                       
                                                                              
 v1 FN, 2020, v2 2021, v3 2022-2024                                           
------------------------------------------------------------------------------


----------------------
SHARK INTEGRAL PACKAGE
----------------------

Number of atoms                             ...     13
Number of basis functions                   ...     61
Number of shells                            ...     41
Maximum angular momentum                    ...      1
Integral batch strategy                     ... SHARK/LIBINT Hybrid
RI-J (if used) integral strategy            ... SPLIT-RIJ (Revised 2003 algorithm where possible)
Printlevel                                  ...      1
Contraction scheme used                     ... SEGMENTED contraction
Prescreening option                         ... SCHWARTZ
   Thresh                                   ... 1.000e-10
   Tcut                                     ... 1.000e-11
   Tpresel                                  ... 1.000e-11 
Coulomb Range Separation                    ... NOT USED
Exchange Range Separation                   ... NOT USED
Multipole approximations                    ... NOT USED
Finite Nucleus Model                        ... NOT USED
CABS basis                                  ... NOT available
Auxiliary Coulomb fitting basis             ... NOT available
Auxiliary J/K fitting basis                 ... NOT available
Auxiliary Correlation fitting basis         ... NOT available
Auxiliary 'external' fitting basis          ... NOT available

Checking pre-screening integrals            ... done (  0.0 sec) Dimension = 41
   => SHARK Basis and OBASIS are compatible. Storing Pre-screening
Shell pair information
Shell pair cut-off parameter TPreSel        ...   1.0e-11
Total number of shell pairs                 ...       861
Shell pairs after pre-screening             ...       846
Total number of primitive shell pairs       ...      5382
Primitive shell pairs kept                  ...      3737
          la=0 lb=0:    481 shell pairs
          la=1 lb=0:    310 shell pairs
          la=1 lb=1:     55 shell pairs

Checking whether 4 symmetric matrices of dimension 61 fit in memory
:Max Core in MB      =   1200.00
 MB in use           =      2.04
 MB left             =   1197.96
 MB needed           =      0.06
 Data fit in memory  = YES
Calculating Nuclear repulsion               ... done (  0.0 sec) ENN=    161.380190070614 Eh

Diagonalization of the overlap matrix:
Smallest eigenvalue                        ... 3.397e-03
Time for diagonalization                   ...    0.000 sec
Threshold for overlap eigenvalues          ... 1.000e-07
Number of eigenvalues below threshold      ... 0
Time for construction of square roots      ...    0.000 sec
Total time needed                          ...    0.001 sec

-------------------
DFT GRID GENERATION
-------------------

General Integration Accuracy     IntAcc      ... 4.388
Radial Grid Type                 RadialGrid  ... OptM3 with GC (2021)
Angular Grid (max. ang.)         AngularGrid ... 4 (Lebedev-302)
Angular grid pruning method      GridPruning ... 4 (adaptive)
Weight generation scheme         WeightScheme... mBecke (2022)
Basis function cutoff            BFCut       ... 1.0000e-10
Integration weight cutoff        WCut        ... 1.0000e-14
Partially contracted basis set               ... off
Rotationally invariant grid construction     ... off
Angular grids for H and He will be reduced by one unit

Total number of grid points                  ...    56055
Total number of batches                      ...      882
Average number of points per batch           ...       63
Average number of grid points per atom       ...     4312
Grids setup in   0.2 sec
Initializing property integral containers    ... done (  0.0 sec)

SHARK setup successfully completed in   0.3 seconds

Maximum memory used throughout the entire STARTUP-calculation: 11.8 MB


           ************************************************************
           *        Program running with 8 parallel MPI-processes     *
           *              working on a common directory               *
           ************************************************************
-------------------------------------------------------------------------------
                                 ORCA GUESS
                   Start orbitals & Density for SCF / CASSCF
-------------------------------------------------------------------------------

------------
SCF SETTINGS
------------
Hamiltonian:
 Ab initio Hamiltonian  Method          .... Hartree-Fock(GTOs)


General Settings:
 Integral files         IntName         .... h-shift_067
 Hartree-Fock type      HFTyp           .... RHF
 Total Charge           Charge          ....    0
 Multiplicity           Mult            ....    1
 Number of Electrons    NEL             ....   38
 Basis Dimension        Dim             ....   61
 Nuclear Repulsion      ENuc            ....    161.3801900706 Eh

Convergence Acceleration:
 AO-DIIS                CNVDIIS         .... on
   Start iteration      DIISMaxIt       ....    12
   Startup error        DIISStart       ....  0.200000
   # of expansion vecs  DIISMaxEq       ....     5
   Bias factor          DIISBfac        ....   1.050
   Max. coefficient     DIISMaxC        ....  10.000
 MO-DIIS                CNVKDIIS        .... off
 Trust-Rad. Augm. Hess. CNVTRAH         .... auto
   Auto Start mean grad. ratio tolernc. ....  1.125000
   Auto Start start iteration           ....    50
   Auto Start num. interpolation iter.  ....    10
   Max. Number of Micro iterations      ....    24
   Max. Number of Macro iterations      .... Maxiter - #DIIS iter
   Number of Davidson start vectors     ....     2
   Converg. threshold    (grad. norm)   ....   5.000e-05
   Grad. Scal. Fac. for Micro threshold ....   0.100
   Minimum threshold for Micro iter.    ....   1.000e-02
   NR start threshold (gradient norm)   ....   1.000e-04
   Initial trust radius                 ....   0.400
   Minimum AH scaling param. (alpha)    ....   1.000
   Maximum AH scaling param. (alpha)    .... 1000.000
   Quad. conv. algorithm                .... NR
   White noise on init. David. guess    .... on
   Maximum white noise                  ....   0.010
   Pseudo random numbers                .... off
   Inactive MOs                         .... canonical
   Orbital update algorithm             .... Taylor
   Preconditioner                       .... Diag
   Full preconditioner red. dimension   ....   250
 SOSCF                 CNVSOSCF           .... on
   Start iteration     SOSCFMaxIt         ....   150
   Startup grad/error  SOSCFStart         ....  0.003300
   Hessian update      SOSCFHessUp        .... L-BFGS
   Autom. constraints  SOSCFAutoConstrain .... off
 Level Shifting         CNVShift        .... on
   Level shift para.    LevelShift      ....    0.2500
   Turn off err/grad.   ShiftErr        ....    0.0010
 Zerner damping         CNVZerner       .... off
 Static damping         CNVDamp         .... on
   Fraction old density DampFac         ....    0.7000
   Max. Damping (<1)    DampMax         ....    0.9800
   Min. Damping (>=0)   DampMin         ....    0.0000
   Turn off err/grad.   DampErr         ....    0.1000

SCF Procedure:
 Maximum # iterations   MaxIter         ....   125
 SCF integral mode      SCFMode         .... Direct
   Integral package                     .... SHARK and LIBINT hybrid scheme
 Reset frequency        DirectResetFreq ....    20
 Integral Threshold     Thresh          ....  1.000e-10 Eh
 Primitive CutOff       TCut            ....  1.000e-11 Eh

Convergence Tolerance:
 Convergence Check Mode ConvCheckMode   .... Total+1el-Energy
 Convergence forced     ConvForced      .... 0
 Energy Change          TolE            ....  1.000e-06 Eh
 1-El. energy change                    ....  1.000e-03 Eh
 Orbital Gradient       TolG            ....  5.000e-05
 Orbital Rotation angle TolX            ....  5.000e-05
 DIIS Error             TolErr          ....  1.000e-06

------------------------------
INITIAL GUESS: MODEL POTENTIAL
------------------------------
Loading Hartree-Fock densities                     ... done
Calculating cut-offs                               ... done
Initializing the effective Hamiltonian             ... done
Setting up the integral package (SHARK)            ... done
Starting the Coulomb interaction                   ... done (   0.0 sec)
Making the grid                                    ... done (   0.1 sec)
Mapping shells                                     ... done
Starting the XC term evaluation                    ... done (   0.0 sec)
Transforming the Hamiltonian                       ... done (   0.0 sec)
Diagonalizing the Hamiltonian                      ... done (   0.0 sec)
Back transforming the eigenvectors                 ... done (   0.0 sec)
Now organizing SCF variables                       ... done
                      ------------------
                      INITIAL GUESS DONE (   0.1 sec)
                      ------------------
             **** ENERGY FILE WAS UPDATED (h-shift_067.en.tmp) ****
Finished Guess after   0.3 sec
Maximum memory used throughout the entire GUESS-calculation: 4.2 MB


           ************************************************************
           *        Program running with 8 parallel MPI-processes     *
           *              working on a common directory               *
           ************************************************************

-------------------------------------------------------------------------------------------
                                      ORCA LEAN-SCF
                              memory conserving SCF solver
-------------------------------------------------------------------------------------------

----------------------------------------D-I-I-S--------------------------------------------
Iteration    Energy (Eh)           Delta-E    RMSDP     MaxDP     DIISErr   Damp  Time(sec)
-------------------------------------------------------------------------------------------
               ***  Starting incremental Fock matrix formation  ***
    1    -193.6428227869856187     0.00e+00  1.57e-02  5.28e-02  1.83e-01  0.700   0.0
    2    -193.7236826098005622    -8.09e-02  1.25e-02  4.00e-02  1.20e-01  0.700   0.0
                               ***Turning on AO-DIIS***
    3    -193.7736584664270367    -5.00e-02  7.68e-03  2.01e-02  7.21e-02  0.700   0.0
    4    -193.8052362489766551    -3.16e-02  1.83e-02  4.40e-02  4.89e-02  0.000   0.0
                              *** Initializing SOSCF ***
---------------------------------------S-O-S-C-F--------------------------------------
Iteration    Energy (Eh)           Delta-E    RMSDP     MaxDP     MaxGrad    Time(sec)
--------------------------------------------------------------------------------------
    5    -193.8735520526224150    -6.83e-02  1.70e-03  2.77e-03  2.20e-03     0.0
               *** Restarting incremental Fock matrix formation ***
    6    -193.8736742102685184    -1.22e-04  8.78e-04  1.48e-03  1.37e-03     0.0
    7    -193.8737107689546519    -3.66e-05  5.55e-04  1.14e-03  5.67e-04     0.0
    8    -193.8737180286378248    -7.26e-06  7.38e-05  2.22e-04  1.36e-04     0.0
    9    -193.8737182548648548    -2.26e-07  3.31e-05  9.91e-05  2.83e-05     0.0
                 **** Energy Check signals convergence ****

               *****************************************************
               *                     SUCCESS                       *
               *           SCF CONVERGED AFTER   9 CYCLES          *
               *****************************************************

             **** ENERGY FILE WAS UPDATED (h-shift_067.en.tmp) ****

----------------
TOTAL SCF ENERGY
----------------

Total Energy       :       -193.87371831406546 Eh           -5275.57208 eV

Components:
Nuclear Repulsion  :        161.38019007061365 Eh            4391.37823 eV
Electronic Energy  :       -355.25390838467911 Eh           -9666.95031 eV
One Electron Energy:       -579.71484499389283 Eh          -15774.84291 eV
Two Electron Energy:        224.46093660921372 Eh            6107.89260 eV

Virial components:
Potential Energy   :       -388.05394434902121 Eh          -10559.48466 eV
Kinetic Energy     :        194.18022603495575 Eh            5283.91258 eV
Virial Ratio       :          1.99842152969358

---------------
SCF CONVERGENCE
---------------

  Last Energy change         ...    2.2623e-07  Tolerance :   1.0000e-06
  Last MAX-Density change    ...    9.9135e-05  Tolerance :   1.0000e-05
  Last RMS-Density change    ...    3.3104e-05  Tolerance :   1.0000e-06
  Last DIIS Error            ...    2.2046e-03  Tolerance :   1.0000e-06
  Last Orbital Gradient      ...    2.8260e-05  Tolerance :   5.0000e-05
  Last Orbital Rotation      ...    3.1041e-05  Tolerance :   5.0000e-05


----------------
ORBITAL ENERGIES
----------------

  NO   OCC          E(Eh)            E(eV) 
   0   2.0000     -11.236018      -305.7476 
   1   2.0000     -11.235957      -305.7459 
   2   2.0000     -11.227674      -305.5206 
   3   2.0000     -11.221004      -305.3390 
   4   2.0000     -11.214062      -305.1501 
   5   2.0000      -1.101955       -29.9857 
   6   2.0000      -1.019881       -27.7524 
   7   2.0000      -0.941529       -25.6203 
   8   2.0000      -0.813067       -22.1247 
   9   2.0000      -0.718745       -19.5580 
  10   2.0000      -0.668168       -18.1818 
  11   2.0000      -0.602109       -16.3842 
  12   2.0000      -0.584489       -15.9047 
  13   2.0000      -0.567589       -15.4449 
  14   2.0000      -0.542881       -14.7726 
  15   2.0000      -0.507586       -13.8121 
  16   2.0000      -0.469570       -12.7776 
  17   2.0000      -0.409130       -11.1330 
  18   2.0000      -0.315070        -8.5735 
  19   0.0000       0.133025         3.6198 
  20   0.0000       0.229627         6.2485 
  21   0.0000       0.251813         6.8522 
  22   0.0000       0.267994         7.2925 
  23   0.0000       0.291598         7.9348 
  24   0.0000       0.322118         8.7653 
  25   0.0000       0.335736         9.1359 
  26   0.0000       0.347859         9.4657 
  27   0.0000       0.361572         9.8389 
  28   0.0000       0.368821        10.0361 
  29   0.0000       0.431461        11.7407 
*Only the first 10 virtual orbitals were printed.

                    ********************************
                    * MULLIKEN POPULATION ANALYSIS *
                    ********************************

-----------------------
MULLIKEN ATOMIC CHARGES
-----------------------
   0 C :   -0.364798
   1 H :    0.183869
   2 C :   -0.512623
   3 C :   -0.146794
   4 C :   -0.197522
   5 C :   -0.152829
   6 H :    0.161838
   7 H :    0.173113
   8 H :    0.171423
   9 H :    0.158757
  10 H :    0.176576
  11 H :    0.176089
  12 H :    0.172901
Sum of atomic charges:   -0.0000000

--------------------------------
MULLIKEN REDUCED ORBITAL CHARGES
--------------------------------
  0 C s       :     3.267806  s :     3.267806
      pz      :     1.047477  p :     3.096993
      px      :     1.051629
      py      :     0.997886

  1 H s       :     0.816131  s :     0.816131

  2 C s       :     3.366999  s :     3.366999
      pz      :     1.062604  p :     3.145624
      px      :     1.088177
      py      :     0.994844

  3 C s       :     3.211386  s :     3.211386
      pz      :     0.987028  p :     2.935409
      px      :     0.984444
      py      :     0.963937

  4 C s       :     3.195529  s :     3.195529
      pz      :     1.004305  p :     3.001993
      px      :     0.934195
      py      :     1.063494

  5 C s       :     3.195634  s :     3.195634
      pz      :     0.936733  p :     2.957195
      px      :     1.024122
      py      :     0.996340

  6 H s       :     0.838162  s :     0.838162

  7 H s       :     0.826887  s :     0.826887

  8 H s       :     0.828577  s :     0.828577

  9 H s       :     0.841243  s :     0.841243

 10 H s       :     0.823424  s :     0.823424

 11 H s       :     0.823911  s :     0.823911

 12 H s       :     0.827099  s :     0.827099



                     *******************************
                     * LOEWDIN POPULATION ANALYSIS *
                     *******************************

----------------------
LOEWDIN ATOMIC CHARGES
----------------------
   0 C :   -0.248833
   1 H :    0.126478
   2 C :   -0.320440
   3 C :   -0.105657
   4 C :   -0.150274
   5 C :   -0.113916
   6 H :    0.116105
   7 H :    0.117978
   8 H :    0.117123
   9 H :    0.110199
  10 H :    0.117152
  11 H :    0.117437
  12 H :    0.116646

-------------------------------
LOEWDIN REDUCED ORBITAL CHARGES
-------------------------------
  0 C s       :     2.988641  s :     2.988641
      pz      :     1.082627  p :     3.260193
      px      :     1.070702
      py      :     1.106864

  1 H s       :     0.873522  s :     0.873522

  2 C s       :     2.976395  s :     2.976395
      pz      :     1.127701  p :     3.344045
      px      :     1.124880
      py      :     1.091464

  3 C s       :     2.952437  s :     2.952437
      pz      :     1.024928  p :     3.153219
      px      :     1.093882
      py      :     1.034409

  4 C s       :     2.941290  s :     2.941290
      pz      :     1.053995  p :     3.208984
      px      :     1.084475
      py      :     1.070514

  5 C s       :     2.945038  s :     2.945038
      pz      :     1.026815  p :     3.168878
      px      :     1.033027
      py      :     1.109037

  6 H s       :     0.883895  s :     0.883895

  7 H s       :     0.882022  s :     0.882022

  8 H s       :     0.882877  s :     0.882877

  9 H s       :     0.889801  s :     0.889801

 10 H s       :     0.882848  s :     0.882848

 11 H s       :     0.882563  s :     0.882563

 12 H s       :     0.883354  s :     0.883354



                      *****************************
                      * MAYER POPULATION ANALYSIS *
                      *****************************

  NA   - Mulliken gross atomic population
  ZA   - Total nuclear charge
  QA   - Mulliken gross atomic charge
  VA   - Mayer's total valence
  BVA  - Mayer's bonded valence
  FA   - Mayer's free valence

  ATOM       NA         ZA         QA         VA         BVA        FA
  0 C      6.3648     6.0000    -0.3648     3.8432     3.8432    -0.0000
  1 H      0.8161     1.0000     0.1839     0.9292     0.9292    -0.0000
  2 C      6.5126     6.0000    -0.5126     3.7707     3.7707    -0.0000
  3 C      6.1468     6.0000    -0.1468     3.7630     3.7630    -0.0000
  4 C      6.1975     6.0000    -0.1975     3.8205     3.8205     0.0000
  5 C      6.1528     6.0000    -0.1528     3.8077     3.8077     0.0000
  6 H      0.8382     1.0000     0.1618     0.9436     0.9436    -0.0000
  7 H      0.8269     1.0000     0.1731     0.9381     0.9381    -0.0000
  8 H      0.8286     1.0000     0.1714     0.9218     0.9218     0.0000
  9 H      0.8412     1.0000     0.1588     0.9332     0.9332     0.0000
 10 H      0.8234     1.0000     0.1766     0.9385     0.9385    -0.0000
 11 H      0.8239     1.0000     0.1761     0.9386     0.9386     0.0000
 12 H      0.8271     1.0000     0.1729     0.9371     0.9371    -0.0000

  Mayer bond orders larger than 0.100000
B(  0-C ,  5-C ) :   1.8740 B(  0-C ,  6-H ) :   0.9627 B(  0-C ,  7-H ) :   0.9612 
B(  1-H ,  2-C ) :   0.9390 B(  2-C ,  3-C ) :   0.9611 B(  2-C ,  8-H ) :   0.9454 
B(  2-C ,  9-H ) :   0.9601 B(  3-C ,  4-C ) :   1.8751 B(  3-C , 10-H ) :   0.9569 
B(  4-C ,  5-C ) :   1.0500 B(  4-C , 11-H ) :   0.9563 B(  5-C , 12-H ) :   0.9576 


-------
TIMINGS
-------

Total SCF time: 0 days 0 hours 0 min 0 sec 

Total time                  ....       0.631 sec
Sum of individual times     ....       0.587 sec  ( 93.1%)

SCF preparation             ....       0.254 sec  ( 40.3%)
Fock matrix formation       ....       0.277 sec  ( 43.9%)
  Startup                   ....       0.001 sec  (  0.5% of F)
  Coulomb+Exchange Fock     ....       0.296 sec  (107.0% of F)
Diagonalization             ....       0.000 sec  (  0.0%)
Density matrix formation    ....       0.008 sec  (  1.2%)
Total Energy calculation    ....       0.005 sec  (  0.7%)
Population analysis         ....       0.005 sec  (  0.7%)
Orbital Transformation      ....       0.005 sec  (  0.7%)
Orbital Orthonormalization  ....       0.000 sec  (  0.0%)
DIIS solution               ....       0.020 sec  (  3.2%)
SOSCF solution              ....       0.013 sec  (  2.1%)
Finished LeanSCF after   0.6 sec

Maximum memory used throughout the entire LEANSCF-calculation: 6.4 MB

-------------------------   --------------------
FINAL SINGLE POINT ENERGY      -193.873718314065
-------------------------   --------------------



           ************************************************************
           *        Program running with 8 parallel MPI-processes     *
           *              working on a common directory               *
           ************************************************************

------------------------------------------------------------------------------
                              ORCA PROPERTY CALCULATIONS
------------------------------------------------------------------------------

GBWName                                 ... h-shift_067.gbw
Number of atoms                         ...     13
Number of basis functions               ...     61
Max core memory                         ...   1200 MB

Electric properties:
Dipole moment                           ... YES
Quadrupole moment                       ...  NO
Static polarizability (Dipole/Dipole)   ...  NO
Static polarizability (Dipole/Quad.)    ...  NO
Static polarizability (Quad./Quad.)     ...  NO
Static polarizability (Velocity)        ...  NO
Static hyperpolarizability              ...  NO

Atomic electric properties:
Dipole moment                           ...  NO
Quadrupole moment                       ...  NO
Static polarizability                   ...  NO

Choice of electric origin               ... Center of mass
Position of electric origin             ...     1.638678    -1.407651     1.945366

General magnetic properties:
Magnetizability                         ...  NO

EPR properties:
g-Tensor (aka g-matrix)                 ...  NO
Zero-Field splitting spin-orbit         ...  NO
Zero-field splitting spin-spin          ...  NO
Hyperfine couplings                     ...  NO (   0 nuclei)
Quadrupole couplings                    ...  NO (   0 nuclei)
Contact density                         ...  NO (   0 nuclei)

NMR properties:
Chemical shifts                         ...  NO (   0 nuclei)
Spin-rotation constants                 ...  NO (   0 nuclei)
Spin-spin couplings                     ...  NO (   0 nuclei,    0 pairs)

Choice of magnetic origin               ... GIAO
Position of magnetic origin             ...     0.000000     0.000000     0.000000

Properties with geometric perturbations:
SCF Hessian                             ...  NO
IR spectrum                             ...  NO
VCD spectrum                            ...  NO
X-ray spectroscopy properties:
SCF XES/XAS/RIXS spectra                ...  NO

SCF SOC stabilization energy            ...  NO
Diagonal Born-Oppenheimer correction    ...  NO

-------------
DIPOLE MOMENT
-------------

Method             : SCF
Type of density    : Electron Density
Multiplicity       :   1
Irrep              :   0
Energy             :  -193.8737183140654565 Eh
Basis              : AO
                                X                 Y                 Z
Electronic contribution:     -1.503794091      -1.800971220       0.975448371
Nuclear contribution   :      1.647797864       1.794043711      -1.024015547
                        -----------------------------------------
Total Dipole Moment    :      0.144003773      -0.006927509      -0.048567176
                        -----------------------------------------
Magnitude (a.u.)       :      0.152131021
Magnitude (Debye)      :      0.386686325



--------------------
Rotational spectrum 
--------------------
 
Rotational constants in cm-1:             0.282411             0.144073             0.098745 
Rotational constants in MHz :          8466.481335          4319.187384          2960.294696 

Dipole components along the rotational axes: 
x,y,z [a.u.] :    -0.111537     0.052776    -0.088984 
x,y,z [Debye]:    -0.283504     0.134146    -0.226178 

 

Dipole moment calculation done in   0.0 sec 

Maximum memory used throughout the entire PROP-calculation: 2.2 MB

--------------------------------
SUGGESTED CITATIONS FOR THIS RUN
--------------------------------

Below you find a list of papers that are relevant to this ORCA run
We neither can nor want to force you to cite these papers, but we appreciate if you do
You receive ORCA, which is the product of decades of hard work by many enthusiastic individuals, for free
The only thing we kindly ask in return is that you cite our papers,
We deeply appreciate it, if you show your appreciation for ORCA by not just citing the generic ORCA reference.

Please note that relegating all ORCA citations to the supporting information does *not* help us.
SI sections are not indexed - citations you put there will not count into any citation statistics
But we need these citations in order to attract the funding resources that allow us to do what we are doing

Therefore, if you are a happy ORCA user, please consider citing a few of the papers listed below in the main body of your paper

In addition to the list printed below, the program has created the file h-shift_067.bibtex that contains the list in bibtex format
You can import this file easily into all common literature databanks and citation aid programs


List of essential papers. We consider these as the minimum necessary citations

  1. Neese, F.
     Software update: the ORCA program system, version 6.0
     WIRES Comput. Molec. Sci. 2025 15(1), e70019
     doi.org/10.1002/wcms.7019

List of papers to cite with high priority. The work reported in these papers was absolutely
necessary for this run to complete.
Our perspective: the developers of density functionals and basis sets usually get cited in chemistry papers
Good! But without the algorithms to do something with them, the functionals or basis sets would not do anything.
Hence, in our opinion, the algorithm design and method developments papers are equally worthy of getting cited

  1. Neese, F.
     The SHARK Integral Generation and Digestion System
     J. Comp. Chem. 2022 44(3), 381
     doi.org/10.1002/jcc.26942

List of suggested additional citations. These are papers that are important in the 'surrounding' of 
of this run, or papers that preceded the highly important papers. If you like your results we are grateful for a citation.

  1. Neese, F.
     The ORCA program system
     WIRES Comput. Molec. Sci. 2012 2(1), 73-78
     doi.org/10.1002/wcms.81
  2. Neese, F.
     Software update: the ORCA program system, version 4.0
     WIRES Comput. Molec. Sci. 2018 8(1), 1-6
     doi.org/10.1002/wcms.1327
  3. Neese, F.; Wennmohs, F.; Becker, U.; Riplinger, C.
     The ORCA quantum chemistry program package
     J. Chem. Phys. 2020 152(22), 224108
     doi.org/10.1063/5.0004608
  4. Neese, F.
     Software update: The ORCA program system—Version 5.0
     WIRES Comput. Molec. Sci. 2022 12(1), e1606
     doi.org/10.1002/wcms.1606

List of optional additional citations

  1. Neese, F.
     Approximate second-order SCF convergence for spin unrestricted wavefunctions
     Chem. Phys. Lett. 2000 325(1-3), 93-98
     doi.org/10.1016/s0009-2614(00)00662-x

Timings for individual modules:

Sum of individual times          ...        2.229 sec (=   0.037 min)
Startup calculation              ...        0.643 sec (=   0.011 min)  28.8 %
SCF iterations                   ...        1.200 sec (=   0.020 min)  53.8 %
Property calculations            ...        0.386 sec (=   0.006 min)  17.3 %
                             ****ORCA TERMINATED NORMALLY****
TOTAL RUN TIME: 0 days 0 hours 0 minutes 2 seconds 709 msec
