[Molden Format]
[Title]
 Molden file created by orca_2mkl for BaseName=h-shift_006

[Atoms] AU
C    1   6         -0.0367986370         0.0202975484        -0.3538361008 
H    2   1          1.8821577808         0.0362903007        -1.0644524956 
C    3   6          4.9011880318         0.0080521231         2.9263240663 
C    4   6          3.9043008043        -2.2547286264         3.3731592593 
C    5   6          1.2529866925        -3.0393807117         3.0854125506 
C    6   6         -0.4425039407        -2.1162608337         1.4694774979 
H    7   1         -1.3149054591        -0.1019847400        -1.9456847042 
H    8   1         -0.3631732376         1.8322727903         0.5565375745 
H    9   1          3.7949329043         1.6132837670         2.3836816481 
H   10   1          6.8950002811         0.3257604396         3.1113452624 
H   11   1          5.1513858822        -3.7321505330         4.0067617553 
H   12   1          0.6886351005        -4.6014717977         4.2606766970 
H   13   1         -2.2838776520        -2.9793762378         1.4349635398 
[GTO]
  1 0
s   6 1.0 
     3047.5249000000         0.5363343823
      457.3695100000         0.9894506076
      103.9486900000         1.5972822308
       29.2101550000         2.0791870615
        9.2866630000         1.7741742532
        3.1639270000         0.6125798260
s   3 1.0 
        7.8682724000        -0.3995563516
        1.8812885000        -0.1841552393
        0.5442493000         0.5163903794
p   3 1.0 
        7.8682724000         1.2960827175
        1.8812885000         0.9937536282
        0.5442493000         0.4959527138
s   1 1.0 
        0.1687144000         0.1876178721
p   1 1.0 
        0.1687144000         0.1541275509

  2 0
s   3 1.0 
       18.7311370000         0.2149354183
        2.8253937000         0.3645711272
        0.6401217000         0.4150514277
s   1 1.0 
        0.1612778000         0.1813806839

  3 0
s   6 1.0 
     3047.5249000000         0.5363343823
      457.3695100000         0.9894506076
      103.9486900000         1.5972822308
       29.2101550000         2.0791870615
        9.2866630000         1.7741742532
        3.1639270000         0.6125798260
s   3 1.0 
        7.8682724000        -0.3995563516
        1.8812885000        -0.1841552393
        0.5442493000         0.5163903794
p   3 1.0 
        7.8682724000         1.2960827175
        1.8812885000         0.9937536282
        0.5442493000         0.4959527138
s   1 1.0 
        0.1687144000         0.1876178721
p   1 1.0 
        0.1687144000         0.1541275509

  4 0
s   6 1.0 
     3047.5249000000         0.5363343823
      457.3695100000         0.9894506076
      103.9486900000         1.5972822308
       29.2101550000         2.0791870615
        9.2866630000         1.7741742532
        3.1639270000         0.6125798260
s   3 1.0 
        7.8682724000        -0.3995563516
        1.8812885000        -0.1841552393
        0.5442493000         0.5163903794
p   3 1.0 
        7.8682724000         1.2960827175
        1.8812885000         0.9937536282
        0.5442493000         0.4959527138
s   1 1.0 
        0.1687144000         0.1876178721
p   1 1.0 
        0.1687144000         0.1541275509

  5 0
s   6 1.0 
     3047.5249000000         0.5363343823
      457.3695100000         0.9894506076
      103.9486900000         1.5972822308
       29.2101550000         2.0791870615
        9.2866630000         1.7741742532
        3.1639270000         0.6125798260
s   3 1.0 
        7.8682724000        -0.3995563516
        1.8812885000        -0.1841552393
        0.5442493000         0.5163903794
p   3 1.0 
        7.8682724000         1.2960827175
        1.8812885000         0.9937536282
        0.5442493000         0.4959527138
s   1 1.0 
        0.1687144000         0.1876178721
p   1 1.0 
        0.1687144000         0.1541275509

  6 0
s   6 1.0 
     3047.5249000000         0.5363343823
      457.3695100000         0.9894506076
      103.9486900000         1.5972822308
       29.2101550000         2.0791870615
        9.2866630000         1.7741742532
        3.1639270000         0.6125798260
s   3 1.0 
        7.8682724000        -0.3995563516
        1.8812885000        -0.1841552393
        0.5442493000         0.5163903794
p   3 1.0 
        7.8682724000         1.2960827175
        1.8812885000         0.9937536282
        0.5442493000         0.4959527138
s   1 1.0 
        0.1687144000         0.1876178721
p   1 1.0 
        0.1687144000         0.1541275509

  7 0
s   3 1.0 
       18.7311370000         0.2149354183
        2.8253937000         0.3645711272
        0.6401217000         0.4150514277
s   1 1.0 
        0.1612778000         0.1813806839

  8 0
s   3 1.0 
       18.7311370000         0.2149354183
        2.8253937000         0.3645711272
        0.6401217000         0.4150514277
s   1 1.0 
        0.1612778000         0.1813806839

  9 0
s   3 1.0 
       18.7311370000         0.2149354183
        2.8253937000         0.3645711272
        0.6401217000         0.4150514277
s   1 1.0 
        0.1612778000         0.1813806839

 10 0
s   3 1.0 
       18.7311370000         0.2149354183
        2.8253937000         0.3645711272
        0.6401217000         0.4150514277
s   1 1.0 
        0.1612778000         0.1813806839

 11 0
s   3 1.0 
       18.7311370000         0.2149354183
        2.8253937000         0.3645711272
        0.6401217000         0.4150514277
s   1 1.0 
        0.1612778000         0.1813806839

 12 0
s   3 1.0 
       18.7311370000         0.2149354183
        2.8253937000         0.3645711272
        0.6401217000         0.4150514277
s   1 1.0 
        0.1612778000         0.1813806839

 13 0
s   3 1.0 
       18.7311370000         0.2149354183
        2.8253937000         0.3645711272
        0.6401217000         0.4150514277
s   1 1.0 
        0.1612778000         0.1813806839

[5D]
[7F]
[9G]
[MO]
 Sym=     1a
 Ene= -1.12360751402179E+01
 Spin= Alpha
 Occup= 2.000000
  1      -0.000328422663
  2       0.000013916366
  3       0.000010915268
  4      -0.000043878269
  5       0.000052220352
  6      -0.000058873280
  7       0.000329815449
  8       0.000213999445
  9      -0.000281448816
 10       0.000099527756
 11      -0.000542307881
 12      -0.058804633358
 13      -0.000613511705
 14      -0.000089365072
 15      -0.000173914390
 16       0.000065923334
 17      -0.005551228807
 18       0.001988619867
 19       0.001991987860
 20      -0.000295595912
 21      -0.992771253235
 22      -0.024852721318
 23       0.000069975011
 24      -0.000159131797
 25       0.000071907720
 26       0.017351273937
 27      -0.001416926842
 28       0.001782333309
 29      -0.000771646870
 30      -0.046578853386
 31      -0.000492134105
 32       0.000180933754
 33       0.000069484438
 34       0.000030532179
 35      -0.003960260590
 36      -0.002340266864
 37      -0.001400178440
 38      -0.000087251370
 39      -0.032384015399
 40      -0.000562436281
 41       0.000199084061
 42      -0.000041400259
 43       0.000062280313
 44       0.000615871701
 45      -0.000467610240
 46       0.000402686517
 47      -0.000245410032
 48       0.000000039006
 49       0.000000662665
 50      -0.000003084254
 51       0.000011704392
 52       0.000277172463
 53       0.000325546606
 54       0.000081044932
 55      -0.000494791470
 56       0.000268050425
 57      -0.002058536891
 58       0.000083456889
 59      -0.000448561398
 60      -0.000040804929
 61      -0.000469702885
 Sym=     1a
 Ene= -1.12352526955686E+01
 Spin= Alpha
 Occup= 2.000000
  1      -0.016594652274
  2       0.000001193351
  3      -0.000023244098
  4      -0.000161741326
  5       0.000036725215
  6      -0.003667864931
  7      -0.000169766934
  8       0.002169827688
  9      -0.001443425641
 10       0.000200305169
 11      -0.000089364300
 12       0.002741966301
 13       0.000071637529
 14      -0.000042588803
 15       0.000029445574
 16      -0.000001472185
 17      -0.000204253270
 18       0.000255919925
 19      -0.000149839821
 20       0.000057200955
 21       0.037088771388
 22       0.001081839453
 23      -0.000183609536
 24      -0.000030972306
 25      -0.000049429797
 26       0.000099024137
 27      -0.000270762138
 28       0.000227799547
 29      -0.000213933970
 30      -0.104494959152
 31      -0.001612935099
 32      -0.000138142231
 33       0.000128344440
 34      -0.000178365972
 35      -0.005215930532
 36       0.000967867119
 37      -0.002000765500
 38       0.002332317678
 39      -0.989792562507
 40      -0.024711608248
 41      -0.000157970639
 42      -0.000023030492
 43      -0.000059389010
 44       0.017198967849
 45       0.002239054705
 46       0.000870897459
 47       0.000036140737
 48       0.000092220420
 49      -0.000197280610
 50       0.000199402008
 51      -0.000899518179
 52       0.000006228401
 53       0.000347363807
 54      -0.000012472009
 55      -0.000106718538
 56      -0.000005084970
 57       0.000074954475
 58       0.000048110498
 59      -0.000799703412
 60       0.000266395859
 61      -0.002077585391
 Sym=     1a
 Ene= -1.12274627747703E+01
 Spin= Alpha
 Occup= 2.000000
  1       0.003858674047
  2       0.000077346275
  3      -0.000006432966
  4      -0.000114037666
  5       0.000140228634
  6       0.001799720061
  7       0.000301483279
  8      -0.000647900906
  9       0.000452313738
 10      -0.000065236153
 11      -0.000182757944
 12       0.008121343348
 13       0.000362639265
 14      -0.000158821416
 15      -0.000130651767
 16       0.000047035602
 17       0.000780024888
 18      -0.000013457456
 19       0.000127877403
 20      -0.000261161275
 21       0.042712098228
 22       0.001722436282
 23      -0.000162539634
 24      -0.000034767846
 25      -0.000032857495
 26      -0.006030931268
 27       0.002920815614
 28      -0.000073299192
 29       0.000984034737
 30      -0.989561538580
 31      -0.025122476313
 32      -0.000068628472
 33      -0.000171313508
 34       0.000204554898
 35       0.019551007039
 36       0.000856243004
 37       0.002697483865
 38      -0.002352180860
 39       0.106631774275
 40       0.003710906109
 41       0.000212710829
 42      -0.000034651828
 43       0.000122562434
 44      -0.009475809812
 45      -0.003566170985
 46      -0.000197050507
 47      -0.001291136312
 48      -0.000058989011
 49      -0.000111708364
 50      -0.000042757262
 51       0.000148254741
 52       0.000038282446
 53      -0.000319395786
 54      -0.000043575024
 55      -0.000321614688
 56       0.000063572457
 57      -0.000346581583
 58       0.000297601441
 59      -0.001705679804
 60      -0.000004730815
 61      -0.000343713637
 Sym=     1a
 Ene= -1.12219406490086E+01
 Spin= Alpha
 Occup= 2.000000
  1       0.000369378054
  2       0.000033912751
  3       0.000001116277
  4       0.000009871891
  5       0.000100083074
  6      -0.000031661764
  7       0.000363122622
  8       0.000054614843
  9      -0.000628696087
 10       0.000150064119
 11      -0.000938292104
 12      -0.994359761240
 13      -0.024771788284
 14       0.000083577576
 15       0.000198859881
 16       0.000011414982
 17       0.016509300031
 18      -0.000881052865
 19      -0.001670488038
 20       0.000181131771
 21       0.059746981724
 22       0.002334725142
 23       0.000121422228
 24       0.000298486741
 25      -0.000044063598
 26      -0.006838330409
 27      -0.001186635709
 28      -0.002841793501
 29       0.000577948565
 30      -0.005598812794
 31      -0.000031791505
 32       0.000106589319
 33       0.000080545586
 34       0.000002308776
 35       0.000508894088
 36      -0.000414546801
 37       0.000037893241
 38      -0.000138680582
 39       0.000042837429
 40      -0.000016926332
 41       0.000038663130
 42       0.000019280336
 43       0.000017737120
 44       0.000016358410
 45      -0.000127751576
 46       0.000376133888
 47      -0.000360518851
 48      -0.000007249388
 49      -0.000194284834
 50      -0.000032178609
 51       0.000472467656
 52       0.000153031238
 53      -0.002740731772
 54       0.000209958040
 55      -0.002657178627
 56       0.000113956171
 57       0.000007562541
 58      -0.000034853419
 59      -0.000195748355
 60       0.000005616764
 61       0.000005849011
 Sym=     1a
 Ene= -1.12161315311449E+01
 Spin= Alpha
 Occup= 2.000000
  1       0.996059919220
  2       0.026113059525
  3      -0.000021304474
  4       0.000012446130
  5       0.000085898393
  6      -0.019220787690
  7       0.000134578979
  8       0.000725546824
  9      -0.000870504781
 10       0.000074812010
 11       0.003193560490
 12       0.000363825211
 13      -0.000017028968
 14       0.000127038767
 15      -0.000001641768
 16       0.000013761174
 17       0.000267271182
 18      -0.000687959978
 19      -0.000326099880
 20       0.000022427133
 21       0.000113020692
 22       0.000025749288
 23       0.000041228140
 24      -0.000036785528
 25       0.000033228842
 26      -0.000418587503
 27      -0.000093957332
 28      -0.000453481380
 29       0.000178813983
 30       0.002076491973
 31      -0.000136095207
 32       0.000055265171
 33      -0.000099376761
 34       0.000121974508
 35       0.000580262898
 36      -0.000596665150
 37       0.000378971114
 38      -0.000584608466
 39      -0.017079553094
 40      -0.000862992149
 41      -0.000015477116
 42      -0.000116044670
 43       0.000117644837
 44       0.004062450238
 45       0.000081083488
 46       0.002271818662
 47      -0.002096837422
 48       0.000045191970
 49       0.003130339397
 50       0.000069925455
 51       0.003302933516
 52      -0.000052404735
 53       0.000016742066
 54       0.000044336155
 55       0.000445952342
 56      -0.000029445545
 57      -0.000030653828
 58       0.000028872236
 59       0.000420825714
 60      -0.000123416642
 61       0.000088107423
 Sym=     1a
 Ene= -1.09897864243766E+00
 Spin= Alpha
 Occup= 2.000000
  1      -0.067545869826
  2       0.125716237119
  3       0.001493373329
  4      -0.031276804479
  5       0.029950194866
  6       0.118787725133
  7       0.005938970391
  8      -0.003564721802
  9       0.009616852153
 10       0.037525340537
 11       0.001995862775
 12      -0.075783748163
 13       0.148201850460
 14      -0.033932754523
 15      -0.057389984386
 16       0.008592160013
 17       0.100762141765
 18       0.000736389437
 19      -0.003236711780
 20      -0.000558619012
 21      -0.110973358662
 22       0.220340507121
 23      -0.031434558720
 24       0.030953051149
 25      -0.017834828961
 26       0.139400878721
 27      -0.005963171394
 28      -0.000333173748
 29      -0.002041056441
 30      -0.126286406406
 31       0.249255017192
 32      -0.002944840873
 33       0.041815725375
 34      -0.043155956533
 35       0.164035221400
 36       0.004241929837
 37       0.004135434505
 38      -0.002517063416
 39      -0.113567006142
 40       0.225546105897
 41       0.059383375341
 42      -0.006870531233
 43       0.032492756532
 44       0.137627029992
 45      -0.003927485266
 46      -0.004513359600
 47       0.002732422288
 48       0.031739560091
 49       0.004656434239
 50       0.034235921531
 51       0.000310878658
 52       0.039695336785
 53       0.007257445445
 54       0.033356615332
 55       0.001962104905
 56       0.053474857628
 57       0.008260698659
 58       0.059806432064
 59       0.008793034347
 60       0.053409725883
 61       0.004420979030
 Sym=     1a
 Ene= -1.02217938827001E+00
 Spin= Alpha
 Occup= 2.000000
  1       0.100954847477
  2      -0.191817741131
  3       0.009377471198
  4       0.029892004973
  5      -0.024832963914
  6      -0.179935886403
  7       0.002970032561
  8       0.000914347118
  9      -0.001558172797
 10      -0.054812719764
 11      -0.005550797153
 12      -0.120819991186
 13       0.237200807035
 14      -0.026698848731
 15      -0.078606502543
 16       0.018144497838
 17       0.182330465662
 18      -0.004235932617
 19      -0.002925488166
 20       0.000636724818
 21      -0.115266383762
 22       0.230182507671
 23       0.053621587037
 24       0.077133952610
 25      -0.008707446255
 26       0.158883016856
 27       0.011831767231
 28      -0.004111009179
 29       0.005137325086
 30       0.020910012208
 31      -0.041625748786
 32       0.099071376878
 33      -0.007628042108
 34       0.051746767181
 35      -0.026688857198
 36       0.015512415499
 37       0.011393720645
 38      -0.000991927788
 39       0.102087865851
 40      -0.202634469557
 41      -0.011802863970
 42      -0.020503089915
 43       0.014821633518
 44      -0.147405393234
 45      -0.002436861102
 46      -0.006069849575
 47       0.004509164605
 48      -0.059950028149
 49      -0.008722661548
 50      -0.058535411826
 51      -0.005639993595
 52       0.061374015147
 53       0.006126453880
 54       0.068736959011
 55       0.015647933811
 56       0.067965086723
 57       0.011236623119
 58      -0.010239344741
 59       0.003811834459
 60      -0.062933673831
 61      -0.016529252902
 Sym=     1a
 Ene= -9.40925850930333E-01
 Spin= Alpha
 Occup= 2.000000
  1       0.139070419485
  2      -0.262034176464
  3       0.002370730757
  4      -0.019849164075
  5       0.016890534632
  6      -0.293184156122
  7      -0.000916650401
  8      -0.002164390346
  9      -0.002906765526
 10      -0.098286734820
 11      -0.022870498697
 12       0.079557299810
 13      -0.156070653814
 14       0.001225083503
 15       0.014659024823
 16      -0.001971846612
 17      -0.135553057372
 18       0.002523958820
 19      -0.001997356792
 20       0.003333913445
 21       0.005762192218
 22      -0.010308516497
 23      -0.096617647140
 24      -0.088277253531
 25       0.007731900407
 26      -0.006941312285
 27      -0.019919542223
 28      -0.006050272263
 29      -0.002686131716
 30      -0.118273994962
 31       0.235314468942
 32      -0.040695563272
 33      -0.010860692918
 34      -0.014857124747
 35       0.182856020336
 36      -0.002653685686
 37      -0.015195114342
 38       0.009037176734
 39      -0.029919070083
 40       0.056255965481
 41       0.051649627993
 42      -0.114817262400
 43       0.128435198852
 44       0.074616799734
 45       0.011514428445
 46      -0.010332622333
 47       0.015610613712
 48      -0.101690475353
 49      -0.027952211115
 50      -0.099839474499
 51      -0.024636706626
 52      -0.058253603239
 53      -0.016369569725
 54      -0.058059645339
 55      -0.018708454048
 56      -0.000277653824
 57       0.003877351126
 58       0.091246230708
 59       0.025393571686
 60       0.020695872341
 61       0.007362083974
 Sym=     1a
 Ene= -8.14783728945276E-01
 Spin= Alpha
 Occup= 2.000000
  1       0.058800179745
  2      -0.111223010091
  3      -0.014426864834
  4      -0.062790169295
  5       0.054061547079
  6      -0.144760429798
  7       0.002808338037
  8      -0.014255252262
  9       0.017076103586
 10      -0.059735001798
 11      -0.023305007361
 12      -0.102374734032
 13       0.203896236481
 14       0.040477968101
 15       0.080810712211
 16      -0.015469996368
 17       0.190125043878
 18       0.015235917949
 19       0.031975586379
 20      -0.006084121142
 21       0.086333143786
 22      -0.176350853204
 23       0.081466301675
 24       0.152196970301
 25      -0.031485831637
 26      -0.162225493600
 27       0.019316819232
 28       0.050423290296
 29      -0.011970454024
 30       0.031284618751
 31      -0.065355556371
 32      -0.194480844942
 33       0.032369671002
 34      -0.097562921202
 35      -0.054464096847
 36      -0.046887946155
 37       0.008271658075
 38      -0.023803802511
 39      -0.091417431721
 40       0.182741090753
 41      -0.036330408682
 42      -0.063826348859
 43       0.049658816093
 44       0.177098760340
 45      -0.023187644553
 46      -0.008328344393
 47       0.000601314793
 48      -0.060197902132
 49      -0.020426618886
 50      -0.058992155238
 51      -0.023686160503
 52       0.109674381191
 53       0.043257915407
 54       0.113173838586
 55       0.048346530865
 56      -0.108720266065
 57      -0.044700397728
 58      -0.041549444213
 59      -0.018870445359
 60       0.106317487459
 61       0.043706460116
 Sym=     1a
 Ene= -7.16005448189150E-01
 Spin= Alpha
 Occup= 2.000000
  1      -0.022721297926
  2       0.040682352399
  3       0.091614087741
  4       0.108813037635
  5      -0.051397527207
  6       0.065605911808
  7       0.034240595571
  8       0.038873854836
  9      -0.016256807811
 10       0.080621665762
 11       0.044910463082
 12      -0.039971857700
 13       0.080367004697
 14      -0.024840365367
 15       0.198344481712
 16      -0.056628717428
 17       0.081354397075
 18      -0.004326277587
 19       0.065842147133
 20      -0.019335500353
 21       0.069679381327
 22      -0.141875171399
 23      -0.178912823870
 24       0.029073347854
 25      -0.037158547765
 26      -0.140343585376
 27      -0.059873546153
 28       0.042005237891
 29      -0.023921946955
 30      -0.077535145381
 31       0.158705527855
 32      -0.002947174307
 33      -0.028866333145
 34       0.039558247535
 35       0.151926531877
 36       0.004994393082
 37      -0.034773602100
 38       0.035776327306
 39       0.073529532560
 40      -0.149682944273
 41       0.164462686719
 42      -0.005732589315
 43       0.088036900570
 44      -0.152818926358
 45       0.074239165978
 46       0.003523747141
 47       0.035614022736
 48       0.005990903148
 49       0.000032667164
 50       0.053328708482
 51       0.029686061054
 52       0.142341792881
 53       0.087390296675
 54       0.042020259400
 55       0.020197074495
 56      -0.143070604178
 57      -0.068580670590
 58       0.100447194221
 59       0.040794727030
 60      -0.152143984649
 61      -0.076933014902
 Sym=     1a
 Ene= -6.66424365372883E-01
 Spin= Alpha
 Occup= 2.000000
  1      -0.015812692958
  2       0.028468483654
  3      -0.089884809391
  4       0.065981023785
  5      -0.103686876171
  6       0.048979750839
  7      -0.046228560841
  8       0.022757753639
  9      -0.042683818651
 10      -0.016052204331
 11      -0.010011027728
 12      -0.021468228828
 13       0.042586851947
 14       0.193825585497
 15       0.090895894228
 16       0.018219437250
 17       0.061310370902
 18       0.074977585195
 19       0.022907924137
 20       0.013240007616
 21       0.025808327987
 22      -0.055541668848
 23       0.096944161340
 24      -0.143449842855
 25       0.084180171396
 26      -0.047796624000
 27       0.029719462090
 28      -0.044980736096
 29       0.028938982747
 30      -0.019924015094
 31       0.038421477569
 32      -0.068279673857
 33      -0.231510385354
 34       0.166346918698
 35       0.048865651929
 36      -0.025347992844
 37      -0.097119392722
 38       0.069443259705
 39       0.024162261543
 40      -0.050900812484
 41      -0.169100162083
 42      -0.086145053272
 43      -0.004410584029
 44      -0.036686552111
 45      -0.050161853834
 46      -0.037227655568
 47       0.007530109495
 48       0.091869312071
 49       0.055827654115
 50       0.029517548982
 51       0.016788941306
 52      -0.000497181590
 53       0.004830780412
 54       0.139516657879
 55       0.087437432185
 56       0.081080817059
 57       0.059884448447
 58       0.187307619452
 59       0.114341224660
 60       0.081688941845
 61       0.058132954958
 Sym=     1a
 Ene= -6.05008449424620E-01
 Spin= Alpha
 Occup= 2.000000
  1      -0.010073512570
  2       0.018904034680
  3       0.176656078123
  4       0.032280249117
  5      -0.003492832689
  6       0.031860792608
  7       0.078452146967
  8       0.014542062991
  9      -0.007120201641
 10       0.107092067566
 11       0.071721039011
 12       0.006831726535
 13      -0.014927039860
 14       0.247870858776
 15      -0.104915889664
 16       0.039621923613
 17      -0.028709598069
 18       0.113789534434
 19      -0.047200476719
 20       0.014868769559
 21       0.013527739860
 22      -0.031283335389
 23       0.196391810809
 24      -0.056776536781
 25       0.013240783966
 26      -0.022909384138
 27       0.070211189187
 28      -0.012204896797
 29      -0.004576498548
 30      -0.009886274438
 31       0.021870936094
 32      -0.176419346790
 33       0.040018308163
 34      -0.154114970069
 35      -0.007695689102
 36      -0.052112939168
 37      -0.002361786379
 38      -0.044923514855
 39      -0.003339848927
 40       0.009521590212
 41       0.250035226218
 42      -0.034854001510
 43       0.113299256388
 44      -0.001665253933
 45       0.106405805889
 46      -0.007559398590
 47       0.039096434930
 48      -0.060153362707
 49      -0.049612411983
 50       0.005952346840
 51      -0.000421728126
 52      -0.142079038487
 53      -0.091879905014
 54       0.134103131374
 55       0.092924893724
 56       0.086600704136
 57       0.068692618720
 58      -0.033276725634
 59      -0.030838289454
 60      -0.131203195331
 61      -0.092012729890
 Sym=     1a
 Ene= -5.85034955179277E-01
 Spin= Alpha
 Occup= 2.000000
  1       0.005896213182
  2      -0.006086742750
  3       0.025901571673
  4      -0.179302212366
  5       0.131221788887
  6      -0.036262042197
  7       0.013791553219
  8      -0.075265740731
  9       0.054062891884
 10      -0.017295259030
 11      -0.009850991978
 12       0.007338474504
 13      -0.019611071719
 14       0.156254832555
 15       0.283186502246
 16      -0.060264640143
 17       0.016284784102
 18       0.053079541493
 19       0.101052478927
 20      -0.024364950169
 21       0.008242507370
 22      -0.019472291039
 23      -0.118559501391
 24      -0.308296428479
 25       0.044313257766
 26       0.003221097606
 27      -0.028644437131
 28      -0.111099910372
 29       0.015361767638
 30       0.009268650030
 31      -0.018030794508
 32       0.195390393034
 33       0.045189047614
 34      -0.018064792831
 35      -0.018994176426
 36       0.080688464424
 37       0.017932605819
 38      -0.013229446767
 39      -0.024987998378
 40       0.051122078517
 41       0.032814344589
 42       0.143167598942
 43      -0.158349929556
 44       0.086155911718
 45       0.020091873900
 46       0.056740043977
 47      -0.064889191394
 48      -0.074846586695
 49      -0.055475936405
 50      -0.070813204118
 51      -0.053213125529
 52       0.090887585498
 53       0.066707936174
 54       0.115964066835
 55       0.091258627938
 56       0.097741971875
 57       0.073146146184
 58      -0.073836961477
 59      -0.051710990575
 60      -0.024617222367
 61      -0.020754501735
 Sym=     1a
 Ene= -5.67201593082609E-01
 Spin= Alpha
 Occup= 2.000000
  1       0.000461136633
  2      -0.001813221409
  3      -0.095586798280
  4       0.254967599443
  5       0.315528606117
  6      -0.000623108670
  7      -0.050423112609
  8       0.130439284372
  9       0.157980914451
 10      -0.133571641655
 11      -0.103650911802
 12       0.005257923982
 13      -0.010776652192
 14       0.026535960695
 15       0.020185889712
 16       0.018720410056
 17      -0.014567599355
 18       0.007050918922
 19       0.003772566413
 20       0.015245836525
 21      -0.000502422178
 22       0.001188658600
 23       0.023666640331
 24      -0.034452940805
 25       0.044861895163
 26       0.002387308156
 27       0.010526322079
 28      -0.014990672890
 29       0.021616716617
 30       0.002895282515
 31      -0.003459204769
 32      -0.031655578907
 33       0.047525097271
 34       0.042101298793
 35      -0.023803602762
 36      -0.013661686073
 37       0.021739687262
 38       0.038934096899
 39      -0.005434572953
 40       0.008832247548
 41      -0.016697011747
 42       0.099460119312
 43       0.086423002954
 44       0.031303069671
 45      -0.001107980358
 46       0.046723519620
 47       0.048378011051
 48      -0.136444707839
 49      -0.106663739694
 50       0.254865287390
 51       0.198557244275
 52      -0.000092819614
 53       0.009986658507
 54       0.013922540931
 55       0.012971063741
 56       0.037074408700
 57       0.027986368071
 58      -0.004961030468
 59      -0.007494516433
 60      -0.013108993284
 61      -0.011270690352
 Sym=     1a
 Ene= -5.39831926737932E-01
 Spin= Alpha
 Occup= 2.000000
  1       0.005442487392
  2      -0.013752073972
  3       0.309380740515
  4       0.059855470116
  5       0.046909615718
  6       0.004320794571
  7       0.175968760557
  8       0.027328909436
  9       0.036492448156
 10       0.187264011182
 11       0.146593116511
 12       0.010071219684
 13      -0.022476663135
 14      -0.173760212000
 15       0.076033650855
 16      -0.055256021749
 17      -0.007760225717
 18      -0.106947310457
 19       0.035579767743
 20      -0.036422212297
 21      -0.008014904113
 22       0.014617048343
 23       0.126534430081
 24      -0.085276385804
 25       0.040372245132
 26       0.017056002186
 27       0.079878260905
 28      -0.063134791946
 29       0.028303175703
 30       0.035546632932
 31      -0.079493063366
 32      -0.065605341975
 33      -0.102191552781
 34       0.036005417197
 35      -0.073286275613
 36      -0.017715340833
 37      -0.023428296273
 38      -0.001630066898
 39      -0.007867911229
 40       0.015359933713
 41      -0.119555786582
 42      -0.089020110302
 43       0.004923841919
 44       0.017648252043
 45      -0.076260485824
 46      -0.057424731445
 47       0.004582523532
 48      -0.170442297403
 49      -0.132012902112
 50       0.013613544195
 51       0.013557984156
 52       0.119544887344
 53       0.091455824447
 54      -0.128002141893
 55      -0.091987083765
 56       0.117328238831
 57       0.079916715757
 58       0.035514383994
 59       0.045055740068
 60       0.111061171283
 61       0.076438685955
 Sym=     1a
 Ene= -5.06650785513476E-01
 Spin= Alpha
 Occup= 2.000000
  1      -0.016293411478
  2       0.036669782517