[Molden Format]
[Title]
 Molden file created by orca_2mkl for BaseName=h-shift_073

[Atoms] AU
C    1   6         -0.7770062534         0.0246061240         0.0586873348 
H    2   1          3.9536264359         0.0189596223         0.0641769892 
C    3   6          4.6262309895         0.0195983497         1.9968225831 
C    4   6          3.5150946995        -2.1534695413         3.4414539618 
C    5   6          1.1734500093        -3.0331238285         3.1441036649 
C    6   6         -0.6181785513        -2.2196534196         1.1822145591 
H    7   1         -1.9785168060         0.3037073356        -1.5489083565 
H    8   1          0.2743220942         1.6435741872         0.6614721770 
H    9   1          4.0489857960         1.8070449464         2.8278220916 
H   10   1          6.6673506430        -0.0244625048         1.9750642764 
H   11   1          4.7327416236        -3.0752533829         4.7843424854 
H   12   1          0.5775021963        -4.6049734603         4.2904984651 
H   13   1         -1.8522528647        -3.6956240165         0.5224828199 
[GTO]
  1 0
s   6 1.0 
     3047.5249000000         0.5363343823
      457.3695100000         0.9894506076
      103.9486900000         1.5972822308
       29.2101550000         2.0791870615
        9.2866630000         1.7741742532
        3.1639270000         0.6125798260
s   3 1.0 
        7.8682724000        -0.3995563516
        1.8812885000        -0.1841552393
        0.5442493000         0.5163903794
p   3 1.0 
        7.8682724000         1.2960827175
        1.8812885000         0.9937536282
        0.5442493000         0.4959527138
s   1 1.0 
        0.1687144000         0.1876178721
p   1 1.0 
        0.1687144000         0.1541275509

  2 0
s   3 1.0 
       18.7311370000         0.2149354183
        2.8253937000         0.3645711272
        0.6401217000         0.4150514277
s   1 1.0 
        0.1612778000         0.1813806839

  3 0
s   6 1.0 
     3047.5249000000         0.5363343823
      457.3695100000         0.9894506076
      103.9486900000         1.5972822308
       29.2101550000         2.0791870615
        9.2866630000         1.7741742532
        3.1639270000         0.6125798260
s   3 1.0 
        7.8682724000        -0.3995563516
        1.8812885000        -0.1841552393
        0.5442493000         0.5163903794
p   3 1.0 
        7.8682724000         1.2960827175
        1.8812885000         0.9937536282
        0.5442493000         0.4959527138
s   1 1.0 
        0.1687144000         0.1876178721
p   1 1.0 
        0.1687144000         0.1541275509

  4 0
s   6 1.0 
     3047.5249000000         0.5363343823
      457.3695100000         0.9894506076
      103.9486900000         1.5972822308
       29.2101550000         2.0791870615
        9.2866630000         1.7741742532
        3.1639270000         0.6125798260
s   3 1.0 
        7.8682724000        -0.3995563516
        1.8812885000        -0.1841552393
        0.5442493000         0.5163903794
p   3 1.0 
        7.8682724000         1.2960827175
        1.8812885000         0.9937536282
        0.5442493000         0.4959527138
s   1 1.0 
        0.1687144000         0.1876178721
p   1 1.0 
        0.1687144000         0.1541275509

  5 0
s   6 1.0 
     3047.5249000000         0.5363343823
      457.3695100000         0.9894506076
      103.9486900000         1.5972822308
       29.2101550000         2.0791870615
        9.2866630000         1.7741742532
        3.1639270000         0.6125798260
s   3 1.0 
        7.8682724000        -0.3995563516
        1.8812885000        -0.1841552393
        0.5442493000         0.5163903794
p   3 1.0 
        7.8682724000         1.2960827175
        1.8812885000         0.9937536282
        0.5442493000         0.4959527138
s   1 1.0 
        0.1687144000         0.1876178721
p   1 1.0 
        0.1687144000         0.1541275509

  6 0
s   6 1.0 
     3047.5249000000         0.5363343823
      457.3695100000         0.9894506076
      103.9486900000         1.5972822308
       29.2101550000         2.0791870615
        9.2866630000         1.7741742532
        3.1639270000         0.6125798260
s   3 1.0 
        7.8682724000        -0.3995563516
        1.8812885000        -0.1841552393
        0.5442493000         0.5163903794
p   3 1.0 
        7.8682724000         1.2960827175
        1.8812885000         0.9937536282
        0.5442493000         0.4959527138
s   1 1.0 
        0.1687144000         0.1876178721
p   1 1.0 
        0.1687144000         0.1541275509

  7 0
s   3 1.0 
       18.7311370000         0.2149354183
        2.8253937000         0.3645711272
        0.6401217000         0.4150514277
s   1 1.0 
        0.1612778000         0.1813806839

  8 0
s   3 1.0 
       18.7311370000         0.2149354183
        2.8253937000         0.3645711272
        0.6401217000         0.4150514277
s   1 1.0 
        0.1612778000         0.1813806839

  9 0
s   3 1.0 
       18.7311370000         0.2149354183
        2.8253937000         0.3645711272
        0.6401217000         0.4150514277
s   1 1.0 
        0.1612778000         0.1813806839

 10 0
s   3 1.0 
       18.7311370000         0.2149354183
        2.8253937000         0.3645711272
        0.6401217000         0.4150514277
s   1 1.0 
        0.1612778000         0.1813806839

 11 0
s   3 1.0 
       18.7311370000         0.2149354183
        2.8253937000         0.3645711272
        0.6401217000         0.4150514277
s   1 1.0 
        0.1612778000         0.1813806839

 12 0
s   3 1.0 
       18.7311370000         0.2149354183
        2.8253937000         0.3645711272
        0.6401217000         0.4150514277
s   1 1.0 
        0.1612778000         0.1813806839

 13 0
s   3 1.0 
       18.7311370000         0.2149354183
        2.8253937000         0.3645711272
        0.6401217000         0.4150514277
s   1 1.0 
        0.1612778000         0.1813806839

[5D]
[7F]
[9G]
[MO]
 Sym=     1a
 Ene= -1.12360041533353E+01
 Spin= Alpha
 Occup= 2.000000
  1       0.055852848405
  2       0.000570771150
  3       0.000015393690
  4       0.000176866094
  5      -0.000126159069
  6       0.005431670960
  7       0.000792428997
  8      -0.001981584284
  9       0.001820540715
 10      -0.000118010678
 11       0.000600952604
 12       0.001161947574
 13      -0.000026883119
 14       0.000049302357
 15       0.000063786979
 16      -0.000032169644
 17       0.000226162123
 18      -0.000039239861
 19      -0.000359764698
 20       0.000498686590
 21       0.090179802415
 22       0.001973327472
 23       0.000158310285
 24       0.000039233572
 25       0.000106831906
 26      -0.001449124733
 27      -0.000514239457
 28      -0.000422543742
 29      -0.000172535223
 30       0.052996734877
 31       0.000622011515
 32       0.000115420403
 33      -0.000073720280
 34       0.000122275493
 35       0.004014602197
 36      -0.001335846374
 37       0.001412599976
 38      -0.001787234647
 39       0.989041423183
 40       0.024744241510
 41       0.000118462353
 42       0.000143092315
 43      -0.000024975899
 44      -0.017212802719
 45      -0.001481095629
 46      -0.001662707108
 47      -0.000532816048
 48      -0.000080995631
 49       0.000497586599
 50      -0.000270265409
 51      -0.000277921194
 52      -0.000004269494
 53       0.000035373283
 54      -0.000006499868
 55       0.000004046046
 56       0.000028531873
 57       0.000615828505
 58      -0.000088566554
 59       0.000445505544
 60      -0.000259227367
 61       0.002104948939
 Sym=     1a
 Ene= -1.12356981624730E+01
 Spin= Alpha
 Occup= 2.000000
  1       0.005842563834
  2       0.000088136320
  3       0.000019722040
  4       0.000039014799
  5       0.000019426236
  6       0.000143084464
  7      -0.000078781643
  8      -0.000302216717
  9      -0.000038478610
 10       0.000192829896
 11      -0.000130536721
 12      -0.015202182740
 13       0.000017202407
 14      -0.000006379124
 15      -0.000154402766
 16       0.000042321565
 17      -0.003656852659
 18       0.001161836018
 19       0.002179969157
 20      -0.000795133348
 21      -0.986804181930
 22      -0.024666422351
 23       0.000166495679
 24      -0.000036115033
 25       0.000102710505
 26       0.017238146191
 27      -0.001568139038
 28       0.000935220961
 29      -0.001733862225
 30      -0.096104080973
 31      -0.001458042403
 32       0.000225959768
 33       0.000123382298
 34       0.000007522065
 35      -0.005038037403
 36      -0.002591196097
 37      -0.001898109371
 38       0.000538798135
 39       0.094877310318
 40       0.002558442788
 41       0.000153919074
 42      -0.000038856057
 43       0.000108781601
 44      -0.001051424174
 45       0.000181400595
 46       0.000147976063
 47       0.000067634355
 48      -0.000013322878
 49      -0.000046789282
 50      -0.000024318466
 51       0.000365455612
 52       0.000202632887
 53      -0.000904418024
 54       0.000089261810
 55      -0.000182163676
 56       0.000269869111
 57      -0.002015448071
 58       0.000044467539
 59      -0.000766933972
 60      -0.000015883687
 61       0.000220098081
 Sym=     1a
 Ene= -1.12275213781467E+01
 Spin= Alpha
 Occup= 2.000000
  1       0.007264139848
  2       0.000329443409
  3       0.000050199301
  4      -0.000124520383
  5       0.000159508763
  6       0.000811311047
  7       0.000212774609
  8       0.000086187736
  9      -0.000157000418
 10      -0.000057423953
 11      -0.000173036904
 12       0.003271758236
 13       0.000072069269
 14      -0.000102835217
 15      -0.000108359832
 16       0.000098014486
 17       0.001752437686
 18      -0.000454115047
 19      -0.000658739653
 20       0.000023748258
 21       0.101202742881
 22       0.003561008624
 23      -0.000227132494
 24      -0.000027864545
 25      -0.000082594369
 26      -0.009427955062
 27       0.003274032670
 28      -0.000193502382
 29       0.001904560793
 30      -0.990095105204
 31      -0.025143607521
 32      -0.000140882666
 33      -0.000163522452
 34       0.000225546911
 35       0.019571538151
 36       0.001488578979
 37       0.002638462537
 38      -0.002259408012
 39       0.043687506017
 40       0.001732316338
 41       0.000125271026
 42      -0.000037642637
 43       0.000109642025
 44      -0.006064140444
 45      -0.002508493771
 46      -0.000012197640
 47      -0.001741258292
 48      -0.000048849356
 49      -0.000333119749
 50       0.000039658715
 51      -0.000298559577
 52      -0.000023020757
 53       0.000149465943
 54      -0.000060372631
 55      -0.000149770430
 56       0.000006842421
 57      -0.000339626508
 58       0.000297269121
 59      -0.001677624443
 60       0.000074454415
 61      -0.000351616589
 Sym=     1a
 Ene= -1.12212809600824E+01
 Spin= Alpha
 Occup= 2.000000
  1      -0.994527737348
  2      -0.024852145671
  3      -0.000086900241
  4       0.000204275136
  5      -0.000056315997
  6       0.016642147973
  7       0.000463524598
  8      -0.001677115237
  9       0.000854290951
 10       0.000165759808
 11      -0.001198415921
 12       0.000410669667
 13       0.000055504220
 14      -0.000107317076
 15       0.000011288181
 16       0.000065582951
 17      -0.000006447646
 18       0.000443712375
 19       0.000076127789
 20      -0.000815759955
 21      -0.000011187219
 22      -0.000039848031
 23      -0.000036845397
 24       0.000018419405
 25      -0.000022587945
 26       0.000221857478
 27       0.000288039744
 28       0.000449266511
 29      -0.000181413091
 30      -0.004805243509
 31      -0.000017984035
 32      -0.000067925518
 33       0.000081008223
 34      -0.000087230155
 35       0.000434550338
 36       0.000320746498
 37      -0.000023106400
 38       0.000244172558
 39       0.056999930839
 40       0.002255138648
 41      -0.000035163761
 42       0.000288672164
 43      -0.000126591448
 44      -0.006833450520
 45       0.000134889358
 46      -0.002808772884
 47       0.001363224372
 48       0.000210789827
 49      -0.002650501217
 50       0.000124703504
 51      -0.002737770518
 52      -0.000011126806
 53       0.000542752438
 54      -0.000029454375
 55      -0.000294108716
 56       0.000007790492
 57       0.000036337262
 58      -0.000037571290
 59      -0.000220095045
 60       0.000115212465
 61       0.000002019675
 Sym=     1a
 Ene= -1.12147246960079E+01
 Spin= Alpha
 Occup= 2.000000
  1       0.000407837244
  2      -0.000036939370
  3      -0.000093472450
  4      -0.000008067708
  5      -0.000112664178
  6       0.000282245840
  7       0.000430407410
  8      -0.000278748258
  9       0.000710212680
 10       0.000075487555
 11       0.003248900112
 12       0.996082299316
 13       0.026146846179
 14      -0.000081559889
 15       0.000005257160
 16       0.000070131606
 17      -0.019229861664
 18       0.000667553956
 19       0.000715930730
 20      -0.000597237983
 21      -0.015661942869
 22      -0.000821944367
 23      -0.000081807112
 24      -0.000109302354
 25       0.000076084051
 26       0.004075617971
 27       0.001536790117
 28       0.002222058598
 29      -0.001297566849
 30       0.001717644785
 31      -0.000156052791
 32      -0.000124754188
 33      -0.000091991968
 34       0.000029475444
 35       0.000642286770
 36       0.000769364001
 37       0.000406572686
 38       0.000019402950
 39       0.000136613615
 40       0.000014444614
 41      -0.000060509454
 42      -0.000042736584
 43      -0.000014217210
 44      -0.000525428423
 45      -0.000129233039
 46      -0.000414715743
 47       0.000117149659
 48       0.000064220771
 49       0.000507268946
 50      -0.000043669494
 51      -0.000084650714
 52       0.000073267321
 53       0.003327748810
 54       0.000036081859
 55       0.003096583357
 56      -0.000135612957
 57       0.000051327746
 58       0.000031942313
 59       0.000441738162
 60      -0.000025216971
 61      -0.000018839376
 Sym=     1a
 Ene= -1.10096443381082E+00
 Spin= Alpha
 Occup= 2.000000
  1      -0.075103494286
  2       0.146586841378
  3       0.012272217112
  4      -0.056145883143
  5       0.033202182674
  6       0.099855086045
  7       0.000488433082
  8      -0.002995340882
  9      -0.001437225082
 10       0.039159798632
 11       0.001305476759
 12      -0.069008428936
 13       0.127938746210
 14      -0.025022884842
 15      -0.032096763422
 16       0.017002154043
 17       0.121821745397
 18      -0.013074351758
 19      -0.003729291223
 20       0.000657030571
 21      -0.113816046830
 22       0.226009687428
 23      -0.063615425409
 24      -0.004332206483
 25      -0.027409760161
 26       0.136579014940
 27       0.000782987457
 28      -0.004258058729
 29       0.004258526089
 30      -0.125653576077
 31       0.247858501463
 32       0.038834401851
 33       0.041444356125
 34      -0.028018521104
 35       0.163512400595
 36       0.000214630856
 37       0.003890688211
 38      -0.005247054577
 39      -0.110223576535
 40       0.218575734448
 41       0.035849212103
 42       0.029008763851
 43       0.013041765950
 44       0.138815549742
 45       0.005886582251
 46       0.000037752197
 47       0.003290913610
 48       0.032900801577
 49       0.001572430048
 50       0.039679069283
 51       0.007022079826
 52       0.035147549331
 53       0.000207757467
 54       0.031955072197
 55       0.005293526426
 56       0.052803344462
 57       0.004155224177
 58       0.058545062769
 59       0.008170664846
 60       0.052949703974
 61       0.008254272505
 Sym=     1a
 Ene= -1.02062070230223E+00
 Spin= Alpha
 Occup= 2.000000
  1       0.121929800226
  2      -0.239240488636
  3       0.000932897625
  4       0.078749251897
  5      -0.033154539320
  6      -0.184986539176
  7      -0.001958659135
  8       0.003094935711
  9      -0.003995640407
 10       0.053201314713
 11       0.005373174701
 12      -0.099783840795
 13       0.189809495040
 14      -0.013004722481
 15      -0.030472887651
 16       0.022953770343
 17       0.177412158310
 18       0.000559909119
 19      -0.000891234413
 20       0.003518394135
 21      -0.101622671455
 22       0.201766052121
 23       0.002935880549
 24       0.021367198457
 25      -0.018554444062
 26       0.148685285928
 27       0.000803716286
 28       0.005842935967
 29      -0.004904592964
 30      -0.020746161828
 31       0.041263801373
 32       0.101203063305
 33       0.005958145602
 34       0.046069838188
 35       0.025578258778
 36       0.007645530217
 37      -0.011689584595
 38       0.012213541857
 39       0.116183638122
 40      -0.232040367136
 41       0.021915092307
 42      -0.076495609138
 43       0.052305549675
 44      -0.160826889841
 45       0.010523549122
 46       0.004544490319
 47       0.006898094530
 48      -0.069744183555
 49      -0.016051747929
 50      -0.061740148696
 51      -0.005863452507
 52       0.057833135343
 53       0.005509128308
 54       0.059227408160
 55       0.008785832074
 56       0.062521763732
 57       0.016587500502
 58       0.010161001031
 59      -0.003801077738
 60      -0.068917001679
 61      -0.011584650693
 Sym=     1a
 Ene= -9.41236308648891E-01
 Spin= Alpha
 Occup= 2.000000
  1      -0.079124628159
  2       0.154807918337
  3       0.000640721586
  4      -0.011769683433
  5       0.001866436837
  6       0.136207152740
  7       0.005172139965
  8       0.001927605844
  9       0.000129639896
 10       0.099174671860
 11       0.022311258156
 12      -0.138873504779
 13       0.261205355573
 14       0.012434345367
 15       0.020764134303
 16      -0.010130773414
 17       0.293998347126
 18      -0.004498008554
 19       0.002116518635
 20       0.000199018825
 21       0.029754376449
 22      -0.055986093904
 23       0.130913123573
 24       0.114150877338
 25      -0.039554445733
 26      -0.074311829334
 27       0.019147871937
 28       0.009518345831
 29      -0.000559923222
 30       0.118800139428
 31      -0.236333422047
 32      -0.035835351538
 33       0.012367878390
 34      -0.018701700339
 35      -0.184424003793
 36       0.005271308516
 37       0.015554295903
 38      -0.006858634811
 39      -0.002975068297
 40       0.004822260546
 41      -0.047944713824
 42       0.088656245952
 43      -0.083879484753
 44       0.001612659897
 45      -0.013526132539
 46       0.005830647239
 47      -0.014742165375
 48       0.057593076574
 49       0.018505049548
 50       0.059823893618
 51       0.017521677296
 52       0.099760307591
 53       0.024428418816
 54       0.101178779873
 55       0.028057975553
 56      -0.020602105800
 57      -0.007359157756
 58      -0.091150201368
 59      -0.025174930724
 60      -0.002056497835
 61      -0.004717563744
 Sym=     1a
 Ene= -8.13564656136804E-01
 Spin= Alpha
 Occup= 2.000000
  1      -0.102103018612
  2       0.203270267917
  3      -0.009006101783
  4       0.080158639985
  5      -0.044687267439
  6       0.190212524866
  7      -0.002778721574
  8       0.032112527165
  9      -0.017073693928
 10      -0.058887314138
 11      -0.023090356095
 12       0.059992901406
 13      -0.113784866264
 14      -0.032047658671
 15      -0.063993054796
 16       0.043995611774
 17      -0.145889066899
 18      -0.015806284745
 19      -0.014931454841
 20       0.008372292046
 21      -0.091841270784
 22       0.183943237396
 23      -0.015272177234
 24      -0.066494610995
 25       0.059598566465
 26       0.178592171452
 27       0.014322103091
 28      -0.010685131913
 29       0.019608497471
 30       0.030125055143
 31      -0.062836521056
 32       0.195609030268
 33       0.027703768045
 34       0.094228509213
 35      -0.052028281742
 36       0.046662938188
 37       0.007538252317
 38       0.021472890106
 39       0.086148967107
 40      -0.175982394942
 41      -0.019761468316
 42       0.151400827419
 43      -0.084133835341
 44      -0.162980168811
 45      -0.001630748622
 46       0.050442498146
 47      -0.023227947781
 48       0.113459017687
 49       0.048494429297
 50       0.109211558381
 51       0.042402389741
 52      -0.059794470098
 53      -0.023988389923
 54      -0.062311207236
 55      -0.021013860419
 56       0.107638358272
 57       0.043729227082
 58      -0.039785061402
 59      -0.017875011858
 60      -0.108796776592
 61      -0.044953478436
 Sym=     1a
 Ene= -7.17881899285144E-01
 Spin= Alpha
 Occup= 2.000000
  1      -0.038976443333
  2       0.077986525782
  3       0.064126224052
  4       0.197329754940
  5      -0.015134255853
  6       0.080559796350
  7       0.021318520726
  8       0.064579167212
  9      -0.008248319353
 10       0.079269554436
 11       0.043412341677
 12      -0.021019534114
 13       0.036750096650
 14      -0.024737815514
 15       0.109746215464
 16      -0.100761931737
 17       0.061732420436
 18      -0.013101964557
 19       0.039645038485
 20      -0.036549252530
 21       0.073745072346
 22      -0.150080663752
 23      -0.174252107404
 24      -0.002366923209
 25      -0.067412441729
 26      -0.154740221804
 27      -0.073345086048
 28       0.006174029550
 29      -0.032942543023
 30      -0.078009198846
 31       0.159541325254
 32      -0.029595583968
 33      -0.029772959801
 34       0.028644053820
 35       0.154634736256
 36      -0.029812650102
 37      -0.034702093344
 38       0.019051521176
 39       0.069886359082
 40      -0.142021143488
 41       0.131818842302
 42       0.027071458920
 43       0.124561773217
 44      -0.140662911086
 45       0.052385457522
 46       0.039884770790
 47       0.035111545459
 48       0.040561784498
 49       0.019777068060
 50       0.142216029454
 51       0.087241220371
 52       0.053821135237
 53       0.029448345573
 54       0.003153804176
 55      -0.000923049320
 56      -0.151972726043
 57      -0.076611581880
 58       0.102032923379
 59       0.041482126058
 60      -0.141602693548
 61      -0.068065612098
 Sym=     1a
 Ene= -6.67618678739219E-01
 Spin= Alpha
 Occup= 2.000000
  1      -0.021655109885
  2       0.043043015768
  3      -0.117137100137
  4       0.086558626036
  5      -0.151066534807
  6       0.061018431188
  7      -0.050309226862
  8       0.021518089694
  9      -0.054363089343
 10      -0.015871829086
 11      -0.010106467288
 12      -0.016977463161
 13       0.031231986873
 14       0.140272758783
 15       0.068072169443
 16       0.003502634396
 17       0.050786809671
 18       0.064531917093
 19       0.023659389146
 20       0.007950196081
 21       0.023522289674
 22      -0.049227301623
 23       0.113470794143
 24      -0.089525270539
 25       0.125781017186
 26      -0.035039588283
 27       0.028049007890
 28      -0.037256695736
 29       0.043340835783
 30      -0.020938456933
 31       0.040361631085
 32      -0.094052284571
 33      -0.231915726080
 34       0.154244593762
 35       0.053915990145
 36      -0.040261621369
 37      -0.097225410413
 38       0.061552367002
 39       0.024909300741
 40      -0.053227571283
 41      -0.124880925233
 42      -0.139897782115
 43      -0.029711227384
 44      -0.046342764072
 45      -0.041535662388
 46      -0.044131793880
 47      -0.007586623116
 48       0.136615704206
 49       0.085679478437
 50       0.000719772528
 51       0.005994935382
 52       0.027645175141
 53       0.015982942775
 54       0.096189081256
 55       0.057772570514
 56       0.082889055111
 57       0.058330542648
 58       0.188096946140
 59       0.114120767114
 60       0.080405919024
 61       0.058911906737
 Sym=     1a
 Ene= -6.03005310072291E-01
 Spin= Alpha
 Occup= 2.000000
  1      -0.007568480133
  2       0.016695926405
  3       0.170273382904
  4       0.098661850673
  5       0.198973707435
  6       0.029833515997
  7       0.075781506574
  8       0.046016245967
  9       0.092909079102
 10      -0.097828942575
 11      -0.066079005906
 12       0.010582059374
 13      -0.020304013626
 14       0.110222138035
 15      -0.027058043944
 16       0.123853334131
 17      -0.030961928568
 18       0.042726374126
 19      -0.013178852633
 20       0.058120817633
 21       0.003486275051
 22      -0.009573548893
 23       0.245748611638
 24       0.020263740896
 25       0.123002878616
 26      -0.001685739942
 27       0.099928227965
 28       0.000484601882
 29       0.060208372788
 30       0.009768353153
 31      -0.021996678469
 32      -0.225847617820
 33      -0.037293421304
 34      -0.038738230056
 35       0.010788233165
 36      -0.065683285607
 37       0.005104406467
 38      -0.013179074573
 39      -0.015256869752
 40       0.035275674006
 41       0.119305721733
 42       0.071557677872
 43       0.150380918967
 44       0.024533485255
 45       0.033430182341
 46       0.017199631352
 47       0.060053615884
 48      -0.142591183719
 49      -0.099389357848
 50       0.141512505162
 51       0.091390982848
 52      -0.009049962922
 53      -0.001228379888
 54       0.059432545731
 55       0.049999408127
 56       0.134776937810
 57       0.093876401613
 58       0.034863305596
 59       0.033085726336
 60      -0.089450189417
 61      -0.071480134681
 Sym=     1a
 Ene= -5.84671272536907E-01
 Spin= Alpha
 Occup= 2.000000
  1       0.007170454338
  2      -0.019208908969
  3      -0.024739435387
  4       0.285283975455
  5      -0.165655043570
  6       0.017120264266
  7      -0.004384381979
  8       0.102504714173
  9      -0.058100709818
 10      -0.018882241278
 11      -0.011098146208
 12       0.006717174727
 13      -0.007979289302
 14      -0.109786702561
 15      -0.178553180194
 16       0.064486225798
 17      -0.037409603834
 18      -0.047239770790
 19      -0.074664688740
 20       0.024425072043
 21      -0.024255246566
 22       0.049348533432
 23       0.112941194247
 24       0.141372606098
 25      -0.115181225838
 26       0.084156513800
 27       0.042217003045
 28       0.055171972821
 29      -0.051605583249
 30       0.010406744116
 31      -0.020707709282
 32      -0.115564301465
 33       0.046938594219
 34      -0.167473427508
 35      -0.021226368979
 36      -0.042183052868
 37       0.019903469523
 38      -0.072642432557
 39       0.007799094672
 40      -0.018566898788
 41       0.033708721099
 42      -0.307879532227
 43       0.132053402966
 44       0.004043375677
 45       0.004561408644
 46      -0.111530789521
 47       0.035737735698
 48       0.111482259059
 49       0.087782186248
 50       0.097109834994
 51       0.070771943120
 52      -0.067794478821
 53      -0.051173338139
 54      -0.074978808408
 55      -0.055130573499
 56      -0.015422501734
 57      -0.014270629499
 58      -0.073658180138
 59      -0.051074222881
 60       0.095064614913
 61       0.070838238726
 Sym=     1a
 Ene= -5.67442754556796E-01
 Spin= Alpha
 Occup= 2.000000
  1      -0.004805564800
  2       0.009475466894
  3       0.030657787454
  4      -0.020763042760
  5       0.006151897747
  6       0.013263026141
  7       0.017013264433
  8      -0.003977814798
  9      -0.006319658993
 10       0.142182176260
 11       0.111614171623
 12      -0.000459300665
 13       0.001945606841
 14       0.181256627357
 15      -0.242322303598
 16      -0.284163951684
 17       0.000580848145
 18       0.090126763055
 19      -0.124254468530
 20      -0.143328727398
 21       0.005638011982
 22      -0.009371453527
 23       0.051948943716
 24      -0.102021220542
 25      -0.070889340766
 26      -0.029494856700
 27       0.033537158310
 28      -0.048553075344
 29      -0.033495684953
 30      -0.003092049041
 31       0.004034343975
 32       0.015068940707
 33      -0.045119413057
 34      -0.055641775226
 35       0.021753287169
 36       0.020856285424
 37      -0.022050205444
 38      -0.037676235969
 39       0.001122024560
 40      -0.002931975079
 41       0.055635307362
 42       0.031337259782
 43      -0.007179728084
 44      -0.003661470988
 45       0.027659393332
 46       0.015768557761
 47      -0.005093487015
 48      -0.011295448621
 49      -0.011386874005
 50      -0.002534982831
 51      -0.012525352418
 52      -0.252878533206
 53      -0.197157795095
 54       0.128272883639
 55       0.099294235915
 56       0.013737380310
 57       0.011455476581
 58       0.002405601407
 59       0.005213325032
 60      -0.038387765264
 61      -0.028083181289
 Sym=     1a
 Ene= -5.42000338619313E-01
 Spin= Alpha
 Occup= 2.000000
  1       0.012351774014
  2      -0.027306470611
  3       0.134813968058
  4       0.072512500621
  5       0.110449926379
  6      -0.013467619419
  7       0.086126524662
  8       0.033380118690
  9       0.066920621196
 10       0.185155931108
 11       0.143704318402
 12       0.006107932732
 13      -0.015886276025
 14      -0.235515669112
 15       0.064716360981
 16      -0.207688357297
 17       0.007419818747
 18      -0.142647929993
 19       0.029119036514
 20      -0.110953657894
 21      -0.007876597133
 22       0.015771211597
 23       0.064985035452
 24      -0.100293491401
 25       0.090752480746
 26       0.015382003802
 27       0.043256229222
 28      -0.065334249176
 29       0.060409094191
 30       0.035130880403
 31      -0.078358676273
 32       0.020089701710
 33      -0.102243873589
 34       0.071886567658
 35      -0.071499032760
 36       0.014262552815
 37      -0.023207019742
 38       0.010653738037
 39      -0.007986497943
 40       0.014733254256
 41      -0.111815061201
 42      -0.088094725476
 43      -0.083988487174
 44       0.015138550943
 45      -0.071295831893
 46      -0.064426367094
 47      -0.051601909587
 48      -0.126299029640
 49      -0.089988377496
 50       0.112580994582
 51       0.086644139668
 52       0.022564582776
 53       0.019383936765
 54      -0.172148095884
 55      -0.132159892066
 56       0.109498466766
 57       0.073108721815
 58       0.032753019266
 59       0.042324180077
 60       0.121626162696
 61       0.082911393462
 Sym=     1a
 Ene= -5.07318930672559E-01
 Spin= Alpha
 Occup= 2.000000
  1      -0.011628267453
  2       0.026150782909