[Molden Format]
[Title]
 Molden file created by orca_2mkl for BaseName=h-shift_036

[Atoms] AU
C    1   6          0.1224448048         0.0316604716        -0.1653094627 
H    2   1          2.1116933656        -0.0302526257        -0.6353712797 
C    3   6          4.7255738924         0.0572700402         2.7218349116 
C    4   6          3.7287017828        -2.1274536816         3.4910176988 
C    5   6          1.1014249874        -3.0100899567         3.2772027457 
C    6   6         -0.4664070866        -2.2034849228         1.4718906782 
H    7   1         -0.9574883273         0.0943729231        -1.8890004791 
H    8   1         -0.1667418752         1.7942269340         0.8486174252 
H    9   1          3.6432521465         1.7264613549         2.3678967657 
H   10   1          6.7024126217         0.2053792157         2.3071364013 
H   11   1          5.0175422493        -3.5945595732         4.0469524507 
H   12   1          0.6057384841        -4.6595506407         4.3544770331 
H   13   1         -2.1388166048        -3.2733703811         1.0470235515 
[GTO]
  1 0
s   6 1.0 
     3047.5249000000         0.5363343823
      457.3695100000         0.9894506076
      103.9486900000         1.5972822308
       29.2101550000         2.0791870615
        9.2866630000         1.7741742532
        3.1639270000         0.6125798260
s   3 1.0 
        7.8682724000        -0.3995563516
        1.8812885000        -0.1841552393
        0.5442493000         0.5163903794
p   3 1.0 
        7.8682724000         1.2960827175
        1.8812885000         0.9937536282
        0.5442493000         0.4959527138
s   1 1.0 
        0.1687144000         0.1876178721
p   1 1.0 
        0.1687144000         0.1541275509

  2 0
s   3 1.0 
       18.7311370000         0.2149354183
        2.8253937000         0.3645711272
        0.6401217000         0.4150514277
s   1 1.0 
        0.1612778000         0.1813806839

  3 0
s   6 1.0 
     3047.5249000000         0.5363343823
      457.3695100000         0.9894506076
      103.9486900000         1.5972822308
       29.2101550000         2.0791870615
        9.2866630000         1.7741742532
        3.1639270000         0.6125798260
s   3 1.0 
        7.8682724000        -0.3995563516
        1.8812885000        -0.1841552393
        0.5442493000         0.5163903794
p   3 1.0 
        7.8682724000         1.2960827175
        1.8812885000         0.9937536282
        0.5442493000         0.4959527138
s   1 1.0 
        0.1687144000         0.1876178721
p   1 1.0 
        0.1687144000         0.1541275509

  4 0
s   6 1.0 
     3047.5249000000         0.5363343823
      457.3695100000         0.9894506076
      103.9486900000         1.5972822308
       29.2101550000         2.0791870615
        9.2866630000         1.7741742532
        3.1639270000         0.6125798260
s   3 1.0 
        7.8682724000        -0.3995563516
        1.8812885000        -0.1841552393
        0.5442493000         0.5163903794
p   3 1.0 
        7.8682724000         1.2960827175
        1.8812885000         0.9937536282
        0.5442493000         0.4959527138
s   1 1.0 
        0.1687144000         0.1876178721
p   1 1.0 
        0.1687144000         0.1541275509

  5 0
s   6 1.0 
     3047.5249000000         0.5363343823
      457.3695100000         0.9894506076
      103.9486900000         1.5972822308
       29.2101550000         2.0791870615
        9.2866630000         1.7741742532
        3.1639270000         0.6125798260
s   3 1.0 
        7.8682724000        -0.3995563516
        1.8812885000        -0.1841552393
        0.5442493000         0.5163903794
p   3 1.0 
        7.8682724000         1.2960827175
        1.8812885000         0.9937536282
        0.5442493000         0.4959527138
s   1 1.0 
        0.1687144000         0.1876178721
p   1 1.0 
        0.1687144000         0.1541275509

  6 0
s   6 1.0 
     3047.5249000000         0.5363343823
      457.3695100000         0.9894506076
      103.9486900000         1.5972822308
       29.2101550000         2.0791870615
        9.2866630000         1.7741742532
        3.1639270000         0.6125798260
s   3 1.0 
        7.8682724000        -0.3995563516
        1.8812885000        -0.1841552393
        0.5442493000         0.5163903794
p   3 1.0 
        7.8682724000         1.2960827175
        1.8812885000         0.9937536282
        0.5442493000         0.4959527138
s   1 1.0 
        0.1687144000         0.1876178721
p   1 1.0 
        0.1687144000         0.1541275509

  7 0
s   3 1.0 
       18.7311370000         0.2149354183
        2.8253937000         0.3645711272
        0.6401217000         0.4150514277
s   1 1.0 
        0.1612778000         0.1813806839

  8 0
s   3 1.0 
       18.7311370000         0.2149354183
        2.8253937000         0.3645711272
        0.6401217000         0.4150514277
s   1 1.0 
        0.1612778000         0.1813806839

  9 0
s   3 1.0 
       18.7311370000         0.2149354183
        2.8253937000         0.3645711272
        0.6401217000         0.4150514277
s   1 1.0 
        0.1612778000         0.1813806839

 10 0
s   3 1.0 
       18.7311370000         0.2149354183
        2.8253937000         0.3645711272
        0.6401217000         0.4150514277
s   1 1.0 
        0.1612778000         0.1813806839

 11 0
s   3 1.0 
       18.7311370000         0.2149354183
        2.8253937000         0.3645711272
        0.6401217000         0.4150514277
s   1 1.0 
        0.1612778000         0.1813806839

 12 0
s   3 1.0 
       18.7311370000         0.2149354183
        2.8253937000         0.3645711272
        0.6401217000         0.4150514277
s   1 1.0 
        0.1612778000         0.1813806839

 13 0
s   3 1.0 
       18.7311370000         0.2149354183
        2.8253937000         0.3645711272
        0.6401217000         0.4150514277
s   1 1.0 
        0.1612778000         0.1813806839

[5D]
[7F]
[9G]
[MO]
 Sym=     1a
 Ene= -1.12367235671917E+01
 Spin= Alpha
 Occup= 2.000000
  1       0.012890854497
  2      -0.000049374786
  3       0.000042210455
  4       0.000161953505
  5      -0.000044963771
  6       0.003511950430
  7      -0.000265524110
  8      -0.002201690464
  9       0.001391383667
 10      -0.000204646984
 11       0.000466898287
 12       0.005693349407
 13       0.000066583809
 14       0.000036082800
 15       0.000008983769
 16      -0.000025314647
 17       0.000801507252
 18      -0.000335474513
 19      -0.000069744221
 20       0.000192914535
 21       0.118459992257
 22       0.002711974272
 23       0.000152266846
 24       0.000086725480
 25       0.000022560576
 26      -0.002166836271
 27       0.000261411699
 28      -0.000468578002
 29       0.000178174574
 30       0.105073018444
 31       0.001614557189
 32       0.000106185801
 33      -0.000129769697
 34       0.000151773641
 35       0.005456089234
 36      -0.000793853715
 37       0.001963582399
 38      -0.002306023756
 39       0.983355643858
 40       0.024520261634
 41       0.000178789827
 42       0.000039443127
 43       0.000053199847
 44      -0.017074536286
 45      -0.002137503334
 46      -0.001051919786
 47      -0.000328208350
 48      -0.000082900744
 49       0.000158788247
 50      -0.000201506304
 51       0.000841346692
 52      -0.000008122169
 53      -0.000397257345
 54       0.000000853933
 55       0.000121489749
 56      -0.000046558054
 57       0.000229895952
 58      -0.000073291685
 59       0.000774391509
 60      -0.000252436938
 61       0.002099161434
 Sym=     1a
 Ene= -1.12364759647886E+01
 Spin= Alpha
 Occup= 2.000000
  1      -0.001838686707
  2      -0.000020943558
  3       0.000000964354
  4       0.000041473482
  5      -0.000051202801
  6      -0.000654702619
  7      -0.000398662489
  8       0.000105057286
  9      -0.000034092629
 10      -0.000082196533
 11       0.000602901214
 12       0.051084466320
 13       0.000519893204
 14       0.000086244720
 15       0.000189935415
 16      -0.000129773982
 17       0.005086494907
 18      -0.001746845047
 19      -0.002052444473
 20       0.000779545959
 21       0.986609169844
 22       0.024716797435
 23      -0.000059592931
 24       0.000080779144
 25      -0.000195228503
 26      -0.016951048767
 27       0.000978414462
 28      -0.001310108330
 29       0.001059585647
 30       0.034515512397
 31       0.000386876662
 32      -0.000185839242
 33      -0.000046455493
 34      -0.000047670390
 35       0.002536729505
 36       0.002306599834
 37       0.000883121810
 38       0.000517156019
 39      -0.122891677321
 40      -0.003398860244
 41      -0.000194421867
 42       0.000025166248
 43      -0.000085831755
 44       0.002507626835
 45       0.000989361050
 46      -0.000126221872
 47       0.000470387230
 48       0.000014002663
 49      -0.000035463216
 50       0.000049576823
 51      -0.000168486916
 52      -0.000261709654
 53       0.000013169893
 54      -0.000087319216
 55       0.000503899555
 56      -0.000230231756
 57       0.002250746714
 58      -0.000071163936
 59       0.000206634653
 60       0.000083258809
 61       0.000142444128
 Sym=     1a
 Ene= -1.12285887040976E+01
 Spin= Alpha
 Occup= 2.000000
  1       0.002484676454
  2       0.000074370734
  3      -0.000024315055
  4      -0.000093826383
  5       0.000141911087
  6       0.001601273052
  7       0.000162490546
  8      -0.000628398760
  9       0.000182279487
 10      -0.000024231602
 11      -0.000196449729
 12       0.005971921466
 13       0.000260158437
 14      -0.000138372080
 15      -0.000107766878
 16       0.000071906298
 17       0.000934987607
 18      -0.000110826972
 19      -0.000083068960
 20      -0.000250723032
 21       0.047010651591
 22       0.001815422825
 23      -0.000167358216
 24      -0.000046948164
 25      -0.000042192713
 26      -0.006219571772
 27       0.002801268485
 28       0.000047273152
 29       0.000964394567
 30      -0.990010802243
 31      -0.025151360381
 32      -0.000131534558
 33      -0.000132410032
 34       0.000322297477
 35       0.019573290954
 36       0.000902453841
 37       0.002408696522
 38      -0.002783885800
 39       0.100666025618
 40       0.003495722571
 41       0.000180891483
 42      -0.000023632883
 43       0.000148519268
 44      -0.009318183058
 45      -0.003214424347
 46      -0.000087982521
 47      -0.001767789627
 48      -0.000067434154
 49      -0.000235908621
 50       0.000012993265
 51       0.000137900374
 52       0.000023110701
 53      -0.000208758540
 54      -0.000053317042
 55      -0.000265445902
 56       0.000088900367
 57      -0.000340935661
 58       0.000274919423
 59      -0.001741604682
 60       0.000041500099
 61      -0.000251648578
 Sym=     1a
 Ene= -1.12207325322254E+01
 Spin= Alpha
 Occup= 2.000000
  1      -0.000369297971
  2      -0.000078338667
  3      -0.000034951038
  4      -0.000014923067
  5      -0.000160758196
  6      -0.000160254122
  7      -0.000428617359
  8      -0.000074923601
  9       0.001237983947
 10      -0.000128207617
 11       0.001742860809
 12       0.994810363057
 13       0.025077046854
 14      -0.000130958546
 15      -0.000217926020
 16      -0.000105704975
 17      -0.017153750686
 18       0.001142026139
 19       0.001692931697
 20      -0.000010801066
 21      -0.052184254860
 22      -0.002112022580
 23      -0.000130048668
 24      -0.000264032679
 25       0.000056730893
 26       0.006893738267
 27       0.001168313408
 28       0.002722566871
 29      -0.001027744231
 30       0.003561653671
 31       0.000008850096
 32      -0.000117008161
 33      -0.000082901994
 34      -0.000002013301
 35      -0.000308217244
 36       0.000310388234
 37       0.000125100446
 38       0.000076936608
 39       0.000102635935
 40       0.000075693787
 41      -0.000044969102
 42      -0.000017743060
 43      -0.000005898730
 44      -0.000529067705
 45      -0.000131355584
 46      -0.000558505207
 47       0.000210575817
 48       0.000087032740
 49       0.000488733683
 50      -0.000028290330
 51      -0.000651301850
 52      -0.000061787464
 53       0.002763346148
 54      -0.000185486980
 55       0.002720256709
 56      -0.000119701574
 57      -0.000004082388
 58       0.000038922104
 59       0.000268114358
 60      -0.000016473571
 61      -0.000092230245
 Sym=     1a
 Ene= -1.12117961526884E+01
 Spin= Alpha
 Occup= 2.000000
  1       0.996113871164
  2       0.026226406161
  3       0.000032298860
  4      -0.000030447299
  5       0.000122038139
  6      -0.019332990554
  7      -0.000123251353
  8       0.000778589715
  9      -0.000858213757
 10       0.000067422803
 11       0.003477538851
 12       0.000368555141
 13      -0.000071686780
 14       0.000152325368
 15      -0.000026785560
 16      -0.000018095722
 17       0.000372271699
 18      -0.000964346506
 19      -0.000164525052
 20       0.000291792194
 21       0.000160928396
 22       0.000004554579
 23       0.000055565255
 24      -0.000043883168
 25       0.000047351939
 26      -0.000703763425
 27       0.000071339491
 28      -0.000403404672
 29       0.000148307955
 30       0.001157047905
 31      -0.000190622168
 32       0.000047375351
 33      -0.000087045525
 34       0.000102472919
 35       0.000747948385
 36      -0.000331439537
 37       0.000522782331
 38      -0.000624313665
 39      -0.013363710426
 40      -0.000754611626
 41      -0.000003545176
 42      -0.000097419949
 43       0.000099902349
 44       0.004065195964
 45       0.000108670718
 46       0.002123709984
 47      -0.001893945971
 48       0.000024852042
 49       0.003064039215
 50       0.000070276162
 51       0.003332724889
 52      -0.000028767900
 53      -0.000260789294
 54       0.000104772065
 55       0.000521958272
 56      -0.000019425570
 57      -0.000002009928
 58       0.000042623683
 59       0.000492062388
 60      -0.000157463673
 61      -0.000028143371
 Sym=     1a
 Ene= -1.10505631916257E+00
 Spin= Alpha
 Occup= 2.000000
  1      -0.071836917138
  2       0.132184396254
  3       0.002951926556
  4      -0.034077223249
  5       0.030229081075
  6       0.127796519602
  7       0.010101278741
  8      -0.004387751958
  9       0.012827261842
 10       0.043475294369
 11      -0.000235251840
 12      -0.073955943042
 13       0.143547349097
 14      -0.034224189908
 15      -0.053248696833
 16       0.013203036696
 17       0.099537800706
 18       0.000488783336
 19      -0.002851185625
 20      -0.003071573348
 21      -0.108584984312
 22       0.214754145967
 23      -0.032160804904
 24       0.024169251056
 25      -0.027054645371
 26       0.137379260910
 27      -0.006593527772
 28       0.000237901044
 29      -0.003964031668
 30      -0.124234317652
 31       0.244856611899
 32       0.002244384391
 33       0.039804974463
 34      -0.055485450017
 35       0.161777189188
 36       0.003962450853
 37       0.002758662668
 38      -0.004583876635
 39      -0.114096307719
 40       0.226461829261
 41       0.061805642620
 42      -0.000544073857
 43       0.036282645947
 44       0.134935154308
 45      -0.002773578668
 46      -0.004201632719
 47       0.000347939795
 48       0.032477806337
 49       0.006302640328
 50       0.036395598616
 51       0.000044286395
 52       0.039452693448
 53       0.006282792046
 54       0.032288703091
 55       0.000877137505
 56       0.052222566159
 57       0.008189955689
 58       0.056768482060
 59       0.006970769008
 60       0.052035271453
 61       0.003959256172
 Sym=     1a
 Ene= -1.01775073447902E+00
 Spin= Alpha
 Occup= 2.000000
  1       0.096991021825
  2      -0.184938860175
  3       0.011687765755
  4       0.032646893171
  5      -0.022347507165
  6      -0.171598359724
  7       0.002904481644
  8       0.001599272348
  9      -0.001829157010
 10      -0.049434821672
 11      -0.005129068477
 12      -0.124025234545
 13       0.242866691940
 14      -0.025198459044
 15      -0.078133338085
 16       0.025739278462
 17       0.190681372571
 18      -0.004674944107
 19      -0.003629430831
 20       0.000875468431
 21      -0.117812762617
 22       0.235225178302
 23       0.057861785225
 24       0.073538488172
 25      -0.024914070588
 26       0.165225383219
 27       0.011022848725
 28      -0.005375231507
 29       0.002350793260
 30       0.020883821384
 31      -0.041278862078
 32       0.095223080392
 33      -0.002566971943
 34       0.055839694802
 35      -0.026058589479
 36       0.012023925949
 37       0.011175930137
 38      -0.000589981933
 39       0.101095697627
 40      -0.200969755150
 41      -0.015460286946
 42      -0.021461697422
 43       0.011809718843
 44      -0.149944555486
 45      -0.004379244405
 46      -0.004883159309
 47       0.002464136878
 48      -0.057730534284
 49      -0.009031836131
 50      -0.055403369005
 51      -0.005353718803
 52       0.062586788621
 53       0.005956690543
 54       0.071736331684
 55       0.016577091508
 56       0.071044183054
 57       0.012499371449
 58      -0.010296750236
 59       0.003201000801
 60      -0.062251938184
 61      -0.016574266945
 Sym=     1a
 Ene= -9.42902114542597E-01
 Spin= Alpha
 Occup= 2.000000
  1       0.138476399535
  2      -0.259539393094
  3      -0.007687656180
  4      -0.020799894302
  5       0.014880885464
  6      -0.294908252765
  7      -0.006680739639
  8      -0.001372748580
  9      -0.004659388757
 10      -0.101899983893
 11      -0.020717568278
 12       0.078018715666
 13      -0.151413497362
 14       0.003876887730
 15       0.005711143283
 16       0.002963971266
 17      -0.138236088997
 18       0.005101952578
 19      -0.001894717616
 20       0.005965952811
 21      -0.003104617404
 22       0.007133967456
 23      -0.093113094613
 24      -0.088770084511
 25       0.020233549746
 26       0.009448109542
 27      -0.019413601241
 28      -0.005359999373
 29      -0.000673937195
 30      -0.119665330428
 31       0.237927961381
 32      -0.027689336352
 33      -0.016379333571
 34      -0.021542939003
 35       0.187383969562
 36      -0.000487255862
 37      -0.016049411279
 38       0.006436577181
 39      -0.029034541618
 40       0.054787851506
 41       0.040862589858
 42      -0.113165205372
 43       0.126383115173
 44       0.072458704590
 45       0.010276012994
 46      -0.008502287887
 47       0.015688065261
 48      -0.099936638980
 49      -0.028044920304
 50      -0.099190034117
 51      -0.023942694481
 52      -0.062579062986
 53      -0.019166193963
 54      -0.056327955112
 55      -0.017857563585
 56       0.007492473469
 57       0.006670396201
 58       0.091567047019
 59       0.025242824435
 60       0.020381715470
 61       0.007347118827
 Sym=     1a
 Ene= -8.11782339340016E-01
 Spin= Alpha
 Occup= 2.000000
  1       0.062853692795
  2      -0.119755123697
  3      -0.016546792992
  4      -0.066006372378
  5       0.048412335846
  6      -0.149860448398
  7       0.002770180198
  8      -0.015462790294
  9       0.018205248390
 10      -0.055721432450
 11      -0.022377081279
 12      -0.101620994426
 13       0.201807445625
 14       0.041493532112
 15       0.077535395977
 16      -0.029308497285
 17       0.192117213160
 18       0.014863035679
 19       0.031240601309
 20      -0.012790902959
 21       0.085494208243
 22      -0.174367204777
 23       0.073829779567
 24       0.149553709065
 25      -0.042391833938
 26      -0.163873125194
 27       0.019922426632
 28       0.049477632044
 29      -0.014100277069
 30       0.027564369043
 31      -0.057004673638
 32      -0.189025269518
 33       0.019643062706
 34      -0.103699706277
 35      -0.046968325111
 36      -0.043504688073
 37       0.005800417763
 38      -0.025102904063
 39      -0.092421488975
 40       0.185550213752
 41      -0.038977664167
 42      -0.074348751225
 43       0.043701861233
 44       0.181183763516
 45      -0.024336142652
 46      -0.015328492477
 47      -0.001527712561
 48      -0.066691429515
 49      -0.022573418443
 50      -0.062817792363
 51      -0.025406086330
 52       0.108521317016
 53       0.041234930730
 54       0.113326050792
 55       0.048275412298
 56      -0.109533937623
 57      -0.046062629526
 58      -0.037155952924
 59      -0.016891272502
 60       0.109863464457
 61       0.043961862096
 Sym=     1a
 Ene= -7.21615226974541E-01
 Spin= Alpha
 Occup= 2.000000
  1      -0.017819288330
  2       0.029236128608
  3       0.099901402985
  4       0.112178872725
  5      -0.022919817942
  6       0.055880389902
  7       0.041485305646
  8       0.040541032723
  9      -0.003098585685
 10       0.076818425391
 11       0.040459406189
 12      -0.036715071573
 13       0.072278436184
 14      -0.025673159823
 15       0.194733109499
 16      -0.070246651558
 17       0.080706660355
 18      -0.008977307771
 19       0.061904394528
 20      -0.028122208517
 21       0.070338372035
 22      -0.142324510918
 23      -0.176552164925
 24       0.021066243031
 25      -0.020466580125
 26      -0.143931224640
 27      -0.057082253843
 28       0.035047366954
 29      -0.015217454074
 30      -0.079545349817
 31       0.162270218889
 32      -0.008323554883
 33      -0.034860555341
 34       0.040562640858
 35       0.163103900737
 36       0.001017059729
 37      -0.035325592420
 38       0.031805282145
 39       0.074262798267
 40      -0.150941548434
 41       0.146228294477
 42       0.004550591058
 43       0.118573806574
 44      -0.159644153782
 45       0.061361462184
 46       0.010484793176
 47       0.044870573823
 48      -0.002176916079
 49      -0.002825260117
 50       0.056198843194
 51       0.029836342796
 52       0.140611984134
 53       0.085330373871
 54       0.038796800217
 55       0.018910058156
 56      -0.137486400650
 57      -0.066209602874
 58       0.105742546825
 59       0.043368673799
 60      -0.151993019415
 61      -0.076562753428
 Sym=     1a
 Ene= -6.69951311072291E-01
 Spin= Alpha
 Occup= 2.000000
  1       0.018771588706
  2      -0.035734840999
  3       0.082564766256
  4      -0.069465752584
  5       0.120852323224
  6      -0.053542468363
  7       0.042511933693
  8      -0.024278575980
  9       0.054159957324
 10       0.016794078588
 11       0.011544267734
 12       0.022212689244
 13      -0.044192651106
 14      -0.183117450316
 15      -0.077253986551
 16       0.028782574076
 17      -0.062021684220
 18      -0.069576781225
 19      -0.018705038437
 20       0.004640159118
 21      -0.023671285221
 22       0.049714263999
 23      -0.100992808859
 24       0.135343217903
 25      -0.079059646386
 26       0.046430973833
 27      -0.034086850131
 28       0.043392602386
 29      -0.029075472710
 30       0.021204238844
 31      -0.040419360678
 32       0.057771194003
 33       0.238170370724
 34      -0.163607426789
 35      -0.060902808996
 36       0.021183265796
 37       0.098089746102
 38      -0.064172779522
 39      -0.021670165161
 40       0.044775624146
 41       0.166245330426
 42       0.098924421215
 43       0.037980086725
 44       0.031920139200
 45       0.054125377858
 46       0.038807986998
 47       0.005102198890
 48      -0.103272665134
 49      -0.060832014662
 50      -0.024014927321
 51      -0.014732065616
 52      -0.005293050553
 53      -0.008949829417
 54      -0.130908131276
 55      -0.082549206344
 56      -0.080042017065
 57      -0.057634097479
 58      -0.187839892906
 59      -0.113543145268
 60      -0.087222251707
 61      -0.059780303937
 Sym=     1a
 Ene= -5.99852408827947E-01
 Spin= Alpha
 Occup= 2.000000
  1       0.011290181188
  2      -0.022715291723
  3      -0.132529601954
  4      -0.018238123104
  5      -0.045554706161
  6      -0.027197830561
  7      -0.054809388746
  8      -0.011256134486
  9      -0.009673478438
 10      -0.074665186160
 11      -0.051492587635
 12      -0.008537799787
 13       0.019198453414
 14      -0.281914699394
 15       0.099005896000
 16       0.034959198740
 17       0.032604595778
 18      -0.129978095562
 19       0.048731047937
 20       0.017430999356
 21      -0.018425263795
 22       0.042781548322
 23      -0.178865211357
 24       0.096682860902
 25       0.004912385164
 26       0.026356697795
 27      -0.060711205463
 28       0.024611704013
 29       0.016775044590
 30       0.009204564341
 31      -0.021716466786
 32       0.146983359708
 33      -0.035210756696
 34       0.154100960166
 35       0.019458975588
 36       0.045970697814
 37       0.011049951802
 38       0.040024263890
 39       0.003735127205
 40      -0.009232541507
 41      -0.230840542341
 42      -0.015663987727
 43      -0.136361160190
 44      -0.010653942123
 45      -0.109195610337
 46      -0.018361530178
 47      -0.053082098993
 48       0.057733718007
 49       0.050831742090
 50      -0.017560736924
 51      -0.006612434649
 52       0.143927851283
 53       0.092869849535
 54      -0.160946096171
 55      -0.113064601204
 56      -0.091898569013
 57      -0.075181785098
 58       0.036403294712
 59       0.036950673934
 60       0.139751577056
 61       0.095147523768
 Sym=     1a
 Ene= -5.83914288735172E-01
 Spin= Alpha
 Occup= 2.000000
  1      -0.008528002745
  2       0.012030885255
  3      -0.017206872428
  4       0.194215352849
  5      -0.099715525698
  6       0.040025890124
  7      -0.011732289081
  8       0.081837682496
  9      -0.040516204974
 10       0.003223895373
 11       0.000260718198
 12      -0.007113752799
 13       0.019255875873
 14      -0.124904438394
 15      -0.278631589955
 16       0.117014050923
 17      -0.017337528211
 18      -0.039757989416
 19      -0.102071974213
 20       0.045860081239
 21      -0.006557494176
 22       0.016289328617
 23       0.139382757964
 24       0.298210202072
 25      -0.069324850472
 26      -0.006835948942
 27       0.037094028202
 28       0.108704027425
 29      -0.022461948238
 30      -0.012853140584
 31       0.026516255072
 32      -0.215837037548
 33      -0.051720544338
 34      -0.011360187039
 35       0.025625296844
 36      -0.087968859402
 37      -0.023849762119
 38       0.003805320378
 39       0.022741080504
 40      -0.045868847796
 41      -0.009026362007
 42      -0.131827432731
 43       0.170119949557
 44      -0.079924996889
 45      -0.007860933543
 46      -0.049412546626
 47       0.069140046968
 48       0.072478115183
 49       0.052491231223
 50       0.082955527198
 51       0.062723114785
 52      -0.106549636319
 53      -0.076209580205
 54      -0.098891022436
 55      -0.077842665037
 56      -0.087160740488
 57      -0.064506679993
 58       0.071751490580
 59       0.048636914570
 60      -0.003069875123
 61       0.001686538565
 Sym=     1a
 Ene= -5.67888777680418E-01
 Spin= Alpha
 Occup= 2.000000
  1      -0.000472614835
  2       0.001764938478
  3       0.159843622812
  4      -0.213348733224
  5      -0.309594474049
  6       0.000552005776
  7       0.077365398775
  8      -0.110841559903
  9      -0.156503294193
 10       0.160127198134
 11       0.128819478403
 12      -0.003412553773
 13       0.006286516494
 14      -0.023712741907
 15      -0.052324736708
 16      -0.020284123266
 17       0.006387651725
 18      -0.002979932204
 19      -0.017585570836
 20      -0.020322226286
 21       0.002495435615
 22      -0.006560818864
 23      -0.021539798169
 24       0.047803935827
 25      -0.065218241866
 26      -0.007407594536
 27      -0.014288546041
 28       0.025190350456
 29      -0.036469897543
 30      -0.004411323289
 31       0.007446831122
 32       0.025989687179
 33      -0.048558787207
 34      -0.050128033640
 35       0.015579672365
 36       0.016812049138
 37      -0.029013382178
 38      -0.035969087596
 39       0.009804232104
 40      -0.019077087315
 41       0.046053155104
 42      -0.110208427839
 43      -0.069025927607
 44      -0.034992387326
 45       0.022254264992
 46      -0.051622101891
 47      -0.037751609465
 48       0.114523744318
 49       0.085654377128
 50      -0.241560216137
 51      -0.188821819568
 52      -0.022449826840
 53      -0.027539322335
 54      -0.011469721642
 55      -0.013105438727
 56      -0.048095802157
 57      -0.033304502318
 58       0.008716205098
 59       0.006865643110
 60       0.009896506139
 61       0.009377837405
 Sym=     1a
 Ene= -5.45118565083672E-01
 Spin= Alpha
 Occup= 2.000000
  1       0.006543135211
  2      -0.018029336519
  3       0.305769890565
  4       0.072697981086
  5       0.095250746795
  6       0.014613698911
  7       0.170750514988
  8       0.032501591749
  9       0.067824200924
 10       0.182271234052
 11       0.140739328059
 12       0.016757293270
 13      -0.036878212177
 14      -0.154277289397
 15       0.060042468745
 16      -0.012065785450
 17      -0.025275431728
 18      -0.099510359520
 19       0.027472478340
 20      -0.012158611446
 21      -0.007102975140
 22       0.013382353716
 23       0.153880719030
 24      -0.086330685998
 25       0.038386572413
 26       0.008249528568
 27       0.093223117558
 28      -0.064631026872
 29       0.022974078511
 30       0.034494165256
 31      -0.076476076342
 32      -0.079943898853
 33      -0.107959937364
 34       0.008739477002
 35      -0.070464373357
 36      -0.018342278795
 37      -0.025225169493
 38      -0.010705067361
 39      -0.007446570527
 40       0.015594339034
 41      -0.087042759671
 42      -0.119005482513
 43      -0.000461485784
 44       0.009518189838
 45      -0.063838887537
 46      -0.079726769143
 47      -0.003535553100
 48      -0.177379816901
 49      -0.134802911409
 50       0.040269800868
 51       0.029734833588
 52       0.092395915956
 53       0.071899575143
 54      -0.122236671638
 55      -0.085725791275
 56       0.127867377643
 57       0.087194891556
 58       0.031649023252
 59       0.040329068848
 60       0.101550346437
 61       0.063333534242
 Sym=     1a
 Ene= -5.08070807416586E-01
 Spin= Alpha
 Occup= 2.000000
  1      -0.017240559072
  2       0.037788746710