[Molden Format]
[Title]
 Molden file created by orca_2mkl for BaseName=h-shift_078

[Atoms] AU
C    1   6         -0.8149614028         0.0174176058         0.0565651724 
H    2   1          4.0185801026         0.0244908507         0.0575799553 
C    3   6          4.6610662011         0.0190200935         2.0009724217 
C    4   6          3.5119275185        -2.1386333014         3.4401292638 
C    5   6          1.1828060434        -3.0361133753         3.1108085802 
C    6   6         -0.6207221227        -2.2355082219         1.1541974794 
H    7   1         -2.0759832109         0.3153348205        -1.5015877244 
H    8   1          0.2551791685         1.6303650015         0.6454454097 
H    9   1          4.1017375011         1.8163178325         2.8230297461 
H   10   1          6.7024636443        -0.0544675764         2.0094402845 
H   11   1          4.6989948943        -3.0332863450         4.8292140325 
H   12   1          0.5839026987        -4.6009029902         4.2662324919 
H   13   1         -1.8616391344        -3.7131039833         0.5082021595 
[GTO]
  1 0
s   6 1.0 
     3047.5249000000         0.5363343823
      457.3695100000         0.9894506076
      103.9486900000         1.5972822308
       29.2101550000         2.0791870615
        9.2866630000         1.7741742532
        3.1639270000         0.6125798260
s   3 1.0 
        7.8682724000        -0.3995563516
        1.8812885000        -0.1841552393
        0.5442493000         0.5163903794
p   3 1.0 
        7.8682724000         1.2960827175
        1.8812885000         0.9937536282
        0.5442493000         0.4959527138
s   1 1.0 
        0.1687144000         0.1876178721
p   1 1.0 
        0.1687144000         0.1541275509

  2 0
s   3 1.0 
       18.7311370000         0.2149354183
        2.8253937000         0.3645711272
        0.6401217000         0.4150514277
s   1 1.0 
        0.1612778000         0.1813806839

  3 0
s   6 1.0 
     3047.5249000000         0.5363343823
      457.3695100000         0.9894506076
      103.9486900000         1.5972822308
       29.2101550000         2.0791870615
        9.2866630000         1.7741742532
        3.1639270000         0.6125798260
s   3 1.0 
        7.8682724000        -0.3995563516
        1.8812885000        -0.1841552393
        0.5442493000         0.5163903794
p   3 1.0 
        7.8682724000         1.2960827175
        1.8812885000         0.9937536282
        0.5442493000         0.4959527138
s   1 1.0 
        0.1687144000         0.1876178721
p   1 1.0 
        0.1687144000         0.1541275509

  4 0
s   6 1.0 
     3047.5249000000         0.5363343823
      457.3695100000         0.9894506076
      103.9486900000         1.5972822308
       29.2101550000         2.0791870615
        9.2866630000         1.7741742532
        3.1639270000         0.6125798260
s   3 1.0 
        7.8682724000        -0.3995563516
        1.8812885000        -0.1841552393
        0.5442493000         0.5163903794
p   3 1.0 
        7.8682724000         1.2960827175
        1.8812885000         0.9937536282
        0.5442493000         0.4959527138
s   1 1.0 
        0.1687144000         0.1876178721
p   1 1.0 
        0.1687144000         0.1541275509

  5 0
s   6 1.0 
     3047.5249000000         0.5363343823
      457.3695100000         0.9894506076
      103.9486900000         1.5972822308
       29.2101550000         2.0791870615
        9.2866630000         1.7741742532
        3.1639270000         0.6125798260
s   3 1.0 
        7.8682724000        -0.3995563516
        1.8812885000        -0.1841552393
        0.5442493000         0.5163903794
p   3 1.0 
        7.8682724000         1.2960827175
        1.8812885000         0.9937536282
        0.5442493000         0.4959527138
s   1 1.0 
        0.1687144000         0.1876178721
p   1 1.0 
        0.1687144000         0.1541275509

  6 0
s   6 1.0 
     3047.5249000000         0.5363343823
      457.3695100000         0.9894506076
      103.9486900000         1.5972822308
       29.2101550000         2.0791870615
        9.2866630000         1.7741742532
        3.1639270000         0.6125798260
s   3 1.0 
        7.8682724000        -0.3995563516
        1.8812885000        -0.1841552393
        0.5442493000         0.5163903794
p   3 1.0 
        7.8682724000         1.2960827175
        1.8812885000         0.9937536282
        0.5442493000         0.4959527138
s   1 1.0 
        0.1687144000         0.1876178721
p   1 1.0 
        0.1687144000         0.1541275509

  7 0
s   3 1.0 
       18.7311370000         0.2149354183
        2.8253937000         0.3645711272
        0.6401217000         0.4150514277
s   1 1.0 
        0.1612778000         0.1813806839

  8 0
s   3 1.0 
       18.7311370000         0.2149354183
        2.8253937000         0.3645711272
        0.6401217000         0.4150514277
s   1 1.0 
        0.1612778000         0.1813806839

  9 0
s   3 1.0 
       18.7311370000         0.2149354183
        2.8253937000         0.3645711272
        0.6401217000         0.4150514277
s   1 1.0 
        0.1612778000         0.1813806839

 10 0
s   3 1.0 
       18.7311370000         0.2149354183
        2.8253937000         0.3645711272
        0.6401217000         0.4150514277
s   1 1.0 
        0.1612778000         0.1813806839

 11 0
s   3 1.0 
       18.7311370000         0.2149354183
        2.8253937000         0.3645711272
        0.6401217000         0.4150514277
s   1 1.0 
        0.1612778000         0.1813806839

 12 0
s   3 1.0 
       18.7311370000         0.2149354183
        2.8253937000         0.3645711272
        0.6401217000         0.4150514277
s   1 1.0 
        0.1612778000         0.1813806839

 13 0
s   3 1.0 
       18.7311370000         0.2149354183
        2.8253937000         0.3645711272
        0.6401217000         0.4150514277
s   1 1.0 
        0.1612778000         0.1813806839

[5D]
[7F]
[9G]
[MO]
 Sym=     1a
 Ene= -1.12360186863999E+01
 Spin= Alpha
 Occup= 2.000000
  1      -0.057159581109
  2      -0.000590040863
  3      -0.000009180769
  4      -0.000176205387
  5       0.000119849367
  6      -0.005484118317
  7      -0.000859832081
  8       0.001990288482
  9      -0.001799192132
 10       0.000108337346
 11      -0.000580086550
 12      -0.000587261692
 13       0.000022112307
 14      -0.000049530568
 15      -0.000053829861
 16       0.000027939580
 17      -0.000098851435
 18       0.000015829001
 19       0.000267064540
 20      -0.000462817672
 21      -0.050857887243
 22      -0.001003292311
 23      -0.000165574173
 24      -0.000039577574
 25      -0.000114852579
 26       0.000826538258
 27       0.000533737586
 28       0.000401886784
 29       0.000226898549
 30      -0.048719065395
 31      -0.000544796288
 32      -0.000126394470
 33       0.000069542018
 34      -0.000123737155
 35      -0.003903835425
 36       0.001442364075
 37      -0.001372157925
 38       0.001791750779
 39      -0.991988782796
 40      -0.024828415776
 41      -0.000114103385
 42      -0.000150491571
 43       0.000007704237
 44       0.017286640337
 45       0.001473533095
 46       0.001712085608
 47       0.000593369532
 48       0.000081103498
 49      -0.000495633425
 50       0.000273102139
 51       0.000294244719
 52      -0.000001949873
 53      -0.000001803107
 54       0.000002403681
 55       0.000000202672
 56      -0.000038276639
 57      -0.000528004816
 58       0.000086352870
 59      -0.000433371835
 60       0.000263165580
 61      -0.002086221582
 Sym=     1a
 Ene= -1.12354855452785E+01
 Spin= Alpha
 Occup= 2.000000
  1       0.003705240040
  2       0.000072949640
  3       0.000021990756
  4       0.000032291362
  5       0.000027209707
  6      -0.000087394316
  7      -0.000139266622
  8      -0.000208036686
  9      -0.000123097818
 10       0.000197762294
 11      -0.000120526545
 12      -0.015763368162
 13       0.000011379361
 14      -0.000010544883
 15      -0.000158333747
 16       0.000041997991
 17      -0.003668711531
 18       0.001199768455
 19       0.002184359436
 20      -0.000780339475
 21      -0.989382892736
 22      -0.024716146118
 23       0.000155878182
 24      -0.000032723165
 25       0.000096544995
 26       0.017254613068
 27      -0.001490575047
 28       0.000918642333
 29      -0.001751049765
 30      -0.100268799113
 31      -0.001527445757
 32       0.000223698677
 33       0.000126512022
 34       0.000003049945
 35      -0.005188958600
 36      -0.002512898278
 37      -0.001967096528
 38       0.000612448557
 39       0.055505812768
 40       0.001560872988
 41       0.000150165324
 42      -0.000037958302
 43       0.000112806154
 44      -0.000301182717
 45       0.000269345313
 46       0.000206222090
 47       0.000085267129
 48      -0.000011354582
 49      -0.000078961786
 50      -0.000007513213
 51       0.000363119307
 52       0.000201373705
 53      -0.000905573438
 54       0.000090692131
 55      -0.000188640268
 56       0.000268181515
 57      -0.002045917110
 58       0.000047215169
 59      -0.000789276458
 60      -0.000007512768
 61       0.000127266061
 Sym=     1a
 Ene= -1.12274461407630E+01
 Spin= Alpha
 Occup= 2.000000
  1      -0.007617304189
  2      -0.000344258988
  3      -0.000053752343
  4       0.000127228072
  5      -0.000158231762
  6      -0.000789696504
  7      -0.000210193861
  8      -0.000110308699
  9       0.000159586306
 10       0.000061516113
 11       0.000175231553
 12      -0.003497418736
 13      -0.000073703627
 14       0.000104205625
 15       0.000110650795
 16      -0.000095211204
 17      -0.001776101164
 18       0.000493866466
 19       0.000658460551
 20      -0.000029348507
 21      -0.103311292400
 22      -0.003621244260
 23       0.000226891634
 24       0.000030389722
 25       0.000088375211
 26       0.009462501472
 27      -0.003242393045
 28       0.000197055725
 29      -0.001978841778
 30       0.989899125030
 31       0.025138277177
 32       0.000134087073
 33       0.000168757777
 34      -0.000207717618
 35      -0.019575414367
 36      -0.001442371107
 37      -0.002670111169
 38       0.002206450841
 39      -0.043132144490
 40      -0.001722023613
 41      -0.000124285970
 42       0.000036482016
 43      -0.000109750320
 44       0.006042675182
 45       0.002521503625
 46       0.000029774474
 47       0.001747252440
 48       0.000047062470
 49       0.000333167042
 50      -0.000040589804
 51       0.000309800132
 52       0.000031174664
 53      -0.000150553749
 54       0.000059615966
 55       0.000132487195
 56      -0.000001631563
 57       0.000344490606
 58      -0.000298022027
 59       0.001682527073
 60      -0.000070754826
 61       0.000349598033
 Sym=     1a
 Ene= -1.12215325231573E+01
 Spin= Alpha
 Occup= 2.000000
  1       0.994459023137
  2       0.024818736501
  3       0.000075814444
  4      -0.000202347866
  5       0.000058226337
  6      -0.016584347615
  7      -0.000433645443
  8       0.001674697855
  9      -0.000838398625
 10      -0.000162261076
 11       0.001097735954
 12      -0.000398061640
 13      -0.000047182949
 14       0.000097103634
 15      -0.000011161653
 16      -0.000063636278
 17       0.000018839382
 18      -0.000380247191
 19      -0.000065891103
 20       0.000759649406
 21      -0.000012029977
 22       0.000030788222
 23       0.000037304050
 24      -0.000018590471
 25       0.000021339476
 26      -0.000141212047
 27      -0.000320990772
 28      -0.000421696266
 29       0.000158031220
 30       0.005139778413
 31       0.000023164195
 32       0.000067222456
 33      -0.000080592980
 34       0.000085709478
 35      -0.000463389987
 36      -0.000337273048
 37      -0.000001391163
 38      -0.000246742736
 39      -0.058136679843
 40      -0.002287617411
 41       0.000036435590
 42      -0.000292872216
 43       0.000124836511
 44       0.006834454408
 45      -0.000184424008
 46       0.002824791002
 47      -0.001332446714
 48      -0.000211331873
 49       0.002649896256
 50      -0.000135879935
 51       0.002739006277
 52       0.000019760349
 53      -0.000518370956
 54       0.000020190770
 55       0.000254692706
 56      -0.000006806741
 57      -0.000024632542
 58       0.000036593628
 59       0.000209246923
 60      -0.000114626187
 61      -0.000003098084
 Sym=     1a
 Ene= -1.12152679625151E+01
 Spin= Alpha
 Occup= 2.000000
  1      -0.000394343829
  2       0.000028793735
  3       0.000092224762
  4       0.000005218080
  5       0.000105507380
  6      -0.000271944613
  7      -0.000421901497
  8       0.000298951632
  9      -0.000652128481
 10      -0.000075864531
 11      -0.003222608423
 12      -0.996073824756
 13      -0.026132883861
 14       0.000072157219
 15      -0.000009125380
 16      -0.000070360971
 17       0.019223858922
 18      -0.000647948350
 19      -0.000716320248
 20       0.000614808780
 21       0.016214727317
 22       0.000837847707
 23       0.000082965943
 24       0.000111982342
 25      -0.000079071161
 26      -0.004071292546
 27      -0.001568696438
 28      -0.002241917121
 29       0.001312921109
 30      -0.001856378683
 31       0.000148193813
 32       0.000127169240
 33       0.000094492600
 34      -0.000029640996
 35      -0.000618293622
 36      -0.000791160589
 37      -0.000392700535
 38      -0.000059157821
 39      -0.000128460475
 40      -0.000018450310
 41       0.000057242373
 42       0.000040923706
 43       0.000013892284
 44       0.000483617908
 45       0.000113313813
 46       0.000426770707
 47      -0.000142628773
 48      -0.000056313482
 49      -0.000486549062
 50       0.000047082845
 51       0.000043976268
 52      -0.000072271836
 53      -0.003319090819
 54      -0.000039188643
 55      -0.003109210496
 56       0.000130875195
 57      -0.000066869903
 58      -0.000030534106
 59      -0.000432731431
 60       0.000026701245
 61       0.000022257038
 Sym=     1a
 Ene= -1.10026837386330E+00
 Spin= Alpha
 Occup= 2.000000
  1      -0.075361325796
  2       0.147207234086
  3       0.012824136132
  4      -0.056682017950
  5       0.032797976375
  6       0.100106866422
  7       0.000282138284
  8      -0.003046444759
  9      -0.001246007058
 10       0.038463676020
 11       0.001578379623
 12      -0.068411435663
 13       0.127022474324
 14      -0.024938775723
 15      -0.031757709019
 16       0.017021748780
 17       0.120569569732
 18      -0.012387723174
 19      -0.003648323417
 20       0.000810025980
 21      -0.113752483891
 22       0.225884006018
 23      -0.062998735900
 24      -0.005345486932
 25      -0.027623000734
 26       0.136967312434
 27       0.000581427779
 28      -0.004322827881
 29       0.004505120192
 30      -0.125942144975
 31       0.248473149653
 32       0.037918665545
 33       0.041737388349
 34      -0.026351778181
 35       0.163759336989
 36      -0.000082726577
 37       0.004017757370
 38      -0.005113637718
 39      -0.110510395237
 40       0.219243000524
 41       0.034788001219
 42       0.029906198460
 43       0.013677048456
 44       0.139043778239
 45       0.005635602507
 46      -0.000042751338
 47       0.003371742160
 48       0.033058135141
 49       0.001715079340
 50       0.039678013454
 51       0.007112563258
 52       0.034782561988
 53       0.000240834598
 54       0.031852518584
 55       0.005049304186
 56       0.052976956525
 57       0.004232072227
 58       0.058977423698
 59       0.008399332289
 60       0.053079806701
 61       0.008253919676
 Sym=     1a
 Ene= -1.02125423411039E+00
 Spin= Alpha
 Occup= 2.000000
  1       0.121546460835
  2      -0.238541712597
  3      -0.000106234230
  4       0.078803558739
  5      -0.032742439870
  6      -0.184038800472
  7      -0.002010283895
  8       0.003024553694
  9      -0.003934874233
 10       0.053789254717
 11       0.005427535747
 12      -0.100203594905
 13       0.190518802659
 14      -0.013471671635
 15      -0.030196638488
 16       0.022832252346
 17       0.178320860979
 18       0.000546699691
 19      -0.000867423568
 20       0.003444300498
 21      -0.101802280998
 22       0.202083175508
 23       0.003508236771
 24       0.021032093103
 25      -0.018520029591
 26       0.148307116072
 27       0.001268661454
 28       0.005927419432
 29      -0.004829380827
 30      -0.020852378392
 31       0.041502248096
 32       0.101149669405
 33       0.006694485422
 34       0.046837867488
 35       0.025927089975
 36       0.007912172916
 37      -0.011643073849
 38       0.012543291924
 39       0.115839350160
 40      -0.231350123172
 41       0.023341512953
 42      -0.076952414411
 43       0.050572043555
 44      -0.160019610674
 45       0.010857717726
 46       0.004421266896
 47       0.006704939432
 48      -0.069367736559
 49      -0.015901627636
 50      -0.061592323407
 51      -0.005939182751
 52       0.058104804334
 53       0.005544630162
 54       0.059482786875
 55       0.008747627976
 56       0.062615479174
 57       0.016544328239
 58       0.010199983489
 59      -0.003830218282
 60      -0.068478119042
 61      -0.011407896339
 Sym=     1a
 Ene= -9.41077876570390E-01
 Spin= Alpha
 Occup= 2.000000
  1       0.079243700478
  2      -0.155215075104
  3      -0.000022807522
  4       0.012937662524
  5      -0.001958197168
  6      -0.135870947994
  7      -0.004764289879
  8      -0.001947304356
  9      -0.000083498748
 10      -0.098772557681
 11      -0.022544015740
 12       0.139014712674
 13      -0.261654117839
 14      -0.013422607917
 15      -0.020437004563
 16       0.009332078384
 17      -0.293835819400
 18       0.003872714922
 19      -0.002149834530
 20      -0.000572253763
 21      -0.029796604818
 22       0.056040716662
 23      -0.132079918392
 24      -0.114450509785
 25       0.038356363880
 26       0.074415624256
 27      -0.019228603087
 28      -0.009806695033
 29       0.000414178904
 30      -0.118586587329
 31       0.235917408508
 32       0.036115784174
 33      -0.011609968528
 34       0.020628474574
 35       0.183776175903
 36      -0.005414291229
 37      -0.015426317176
 38       0.007205322793
 39       0.004079628489
 40      -0.006995305876
 41       0.049583074714
 42      -0.088485305572
 43       0.083061277506
 44      -0.003680899898
 45       0.013778159647
 46      -0.005879819690
 47       0.014569821849
 48      -0.057755842614
 49      -0.018579060206
 50      -0.059136604084
 51      -0.017055346030
 52      -0.099846168278
 53      -0.024531899272
 54      -0.101460357889
 55      -0.028041198856
 56       0.020560028438
 57       0.007333010691
 58       0.091092630053
 59       0.025207714590
 60       0.001100670270
 61       0.004374553590
 Sym=     1a
 Ene= -8.13969164798475E-01
 Spin= Alpha
 Occup= 2.000000
  1       0.102213635701
  2      -0.203527385669
  3       0.010378459410
  4      -0.080538400881
  5       0.043479084534
  6      -0.190172327031
  7       0.003470134009
  8      -0.032106718817
  9       0.016572833778
 10       0.059209148649
 11       0.023173664050
 12      -0.059471239826
 13       0.112676202105
 14       0.032973209066
 15       0.063461875410
 16      -0.044133777151
 17       0.145304719550
 18       0.015624984267
 19       0.014675754396
 20      -0.008269356420
 21       0.091661690316
 22      -0.183438685150
 23       0.016321759336
 24       0.065233056530
 25      -0.059462317940
 26      -0.178030676530
 27      -0.013956096379
 28       0.009728547090
 29      -0.019444050748
 30      -0.030599958768
 31       0.063875988208
 32      -0.195424821822
 33      -0.029609961633
 34      -0.095324268574
 35       0.053090308151
 36      -0.046823312471
 37      -0.007851833600
 38      -0.022072659105
 39      -0.086266074716
 40       0.176224314886
 41       0.021608739070
 42      -0.151698603193
 43       0.084062707090
 44       0.162847232522
 45       0.001822749394
 46      -0.050501096635
 47       0.022951456226
 48      -0.113469582158
 49      -0.048494076268
 50      -0.109341588685
 51      -0.042742053572
 52       0.059389568157
 53       0.023831990175
 54       0.061488058676
 55       0.020786080469
 56      -0.107013930950
 57      -0.043666278484
 58       0.040447009299
 59       0.018232088290
 60       0.108678345800
 61       0.044790740373
 Sym=     1a
 Ene= -7.17055572310103E-01
 Spin= Alpha
 Occup= 2.000000
  1       0.039356794158
  2      -0.078905804280
  3      -0.062378796882
  4      -0.197841347138
  5       0.014443374141
  6      -0.080816476688
  7      -0.019950557118
  8      -0.065124012193
  9       0.008127625737
 10      -0.079801407378
 11      -0.044004893165
 12       0.021697631261
 13      -0.038312864998
 14       0.020689885770
 15      -0.109329166041
 16       0.102222071786
 17      -0.063243207764
 18       0.010988328256
 19      -0.039366854215
 20       0.036848762212
 21      -0.073673827321
 22       0.149944428597
 23       0.172323711576
 24       0.003895048389
 25       0.071772305074
 26       0.154012134614
 27       0.073322567896
 28      -0.005111000620
 29       0.035001220239
 30       0.077763554202
 31      -0.159090182321
 32       0.029841136882
 33       0.029189905858
 34      -0.027708023572
 35      -0.153321677241
 36       0.030555844436
 37       0.034707281748
 38      -0.018638822428
 39      -0.069794583499
 40       0.141944605615
 41      -0.133890953114
 42      -0.027900645726
 43      -0.123270239254
 44       0.140423794648
 45      -0.053516772093
 46      -0.040783775208
 47      -0.034627326297
 48      -0.041181468192
 49      -0.019982558334
 50      -0.142251618941
 51      -0.087357705180
 52      -0.053590312672
 53      -0.029522066523
 54      -0.004338511718
 55       0.000506714606
 56       0.152009781051
 57       0.076722336704
 58      -0.101300412264
 59      -0.041151135331
 60       0.142193399909
 61       0.068294267492
 Sym=     1a
 Ene= -6.67169975491515E-01
 Spin= Alpha
 Occup= 2.000000
  1       0.021567855775
  2      -0.042848831517
  3       0.122927593454
  4      -0.088313990507
  5       0.148237255137
  6      -0.061040677186
  7       0.052556471271
  8      -0.022083231775
  9       0.053425501797
 10       0.016007290500
 11       0.010082821785
 12       0.016547403217
 13      -0.030205377777
 14      -0.139057237442
 15      -0.067366509760
 16      -0.005718648517
 17      -0.050081044322
 18      -0.063579427869
 19      -0.023363034799
 20      -0.009229668782
 21      -0.023785502038
 22       0.049910009445
 23      -0.110141576829
 24       0.087909907149
 25      -0.128582792536
 26       0.035555882047
 27      -0.026453260893
 28       0.037121052612
 29      -0.043861729668
 30       0.020660210167
 31      -0.039858012992
 32       0.093269932382
 33       0.231384938866
 34      -0.154794601200
 35      -0.052180848801
 36       0.040331092754
 37       0.097144981277
 38      -0.062017150793
 39      -0.025206951821
 40       0.054027340302
 41       0.124979402721
 42       0.141254119632
 43       0.028660317715
 44       0.046615780183
 45       0.041235693227
 46       0.044451967651
 47       0.007103323391
 48      -0.137817695524
 49      -0.086376817547
 50      -0.000045458529
 51      -0.005443006097
 52      -0.028440931124
 53      -0.016334609820
 54      -0.094582835086
 55      -0.057038951775
 56      -0.082298546845
 57      -0.058200535191
 58      -0.187820981433
 59      -0.114172605205
 60      -0.080600665060
 61      -0.059234727393
 Sym=     1a
 Ene= -6.03794745576161E-01
 Spin= Alpha
 Occup= 2.000000
  1      -0.007308556343
  2       0.016053921962
  3       0.174539876242
  4       0.100142991772
  5       0.189587293160
  6       0.029358575832
  7       0.077585776631
  8       0.046108859494
  9       0.088748431332
 10      -0.101761443125
 11      -0.068524769294
 12       0.010387015223
 13      -0.019744480279
 14       0.107792785529
 15      -0.028602641778
 16       0.131910858020
 17      -0.031419671278
 18       0.042418600063
 19      -0.013467585063
 20       0.061796342015
 21       0.003436099310
 22      -0.009607283261
 23       0.243896722790
 24       0.026597485907
 25       0.126776240874
 26      -0.000136953572
 27       0.097959689778
 28       0.003604921748
 29       0.060891076072
 30       0.009812718732
 31      -0.021931046772
 32      -0.227385792539
 33      -0.038425269640
 34      -0.041873532994
 35       0.009517705540
 36      -0.066414707879
 37       0.003907294326
 38      -0.013433813640
 39      -0.014544965919
 40       0.033637584029
 41       0.122672089081
 42       0.066446439839
 43       0.150040200396
 44       0.023746559138
 45       0.035411622509
 46       0.015549429578
 47       0.059721604165
 48      -0.139248327594
 49      -0.096834661405
 50       0.141416633764
 51       0.091396636148
 52      -0.007421203688
 53      -0.000262344634
 54       0.059567915516
 55       0.049706467225
 56       0.133459516151
 57       0.093268688323
 58       0.034519909929
 59       0.032343740918
 60      -0.088653940273
 61      -0.070581427172
 Sym=     1a
 Ene= -5.84867066788920E-01
 Spin= Alpha
 Occup= 2.000000
  1       0.007215775616
  2      -0.019316306219
  3      -0.033322414231
  4       0.284942322291
  5      -0.163624241390
  6       0.016925235209
  7      -0.007672038373
  8       0.102072655014
  9      -0.057569028584
 10      -0.019073427927
 11      -0.011179942432
 12       0.006404717987
 13      -0.007258260260
 14      -0.113817637778
 15      -0.178188099284
 16       0.063621564504
 17      -0.036991017610
 18      -0.048815966430
 19      -0.074575944929
 20       0.024057838703
 21      -0.024498611630
 22       0.049942163916
 23       0.110697567850
 24       0.142279151745
 25      -0.117419203197
 26       0.084856490103
 27       0.041233611338
 28       0.055836622183
 29      -0.052871881006
 30       0.009938385748
 31      -0.019602986678
 32      -0.111114763519
 33       0.045912669582
 34      -0.167710656911
 35      -0.020294664026
 36      -0.040629632924
 37       0.019037120161
 38      -0.072691674132
 39       0.007954322447
 40      -0.018874668268
 41       0.035327505503
 42      -0.308193541926
 43       0.127892457540
 44       0.003784827138
 45       0.004985177418
 46      -0.111413369763
 47       0.034340527937
 48       0.113404774863
 49       0.089248586613
 50       0.094680944149
 51       0.069205362054
 52      -0.068212442523
 53      -0.051404457156
 54      -0.074973539365
 55      -0.055283061046
 56      -0.018846924337
 57      -0.016657845025
 58      -0.073695221928
 59      -0.051290000392
 60       0.095879249818
 61       0.071588043011
 Sym=     1a
 Ene= -5.67320071888091E-01
 Spin= Alpha
 Occup= 2.000000
  1       0.005072540939
  2      -0.010166267265
  3      -0.030416049540
  4       0.019492960807
  5      -0.007215253974
  6      -0.014044674998
  7      -0.016553226255
  8       0.003428255249
  9       0.005389976694
 10      -0.137668532646
 11      -0.107677061830
 12       0.000474673948
 13      -0.001956137403
 14      -0.187640503221
 15       0.247953288860
 16       0.276067325206
 17      -0.000544122801
 18      -0.092973743159
 19       0.126984250617
 20       0.139669953457
 21      -0.005447366195
 22       0.008898116249
 23      -0.055023500711
 24       0.100593677274
 25       0.069021882443
 26       0.029941873548
 27      -0.035465438599
 28       0.047653373098
 29       0.032259413634
 30       0.003095993863
 31      -0.003978686724
 32      -0.014547726710
 33       0.045541777940
 34       0.054426071615
 35      -0.022859271028
 36      -0.021578804018
 37       0.021670185112
 38       0.036725776721
 39      -0.000908909412
 40       0.002305043271
 41      -0.053936438648
 42      -0.032091730346
 43       0.006623146610
 44       0.003179698339
 45      -0.026230750897
 46      -0.015411476439
 47       0.004549469985
 48       0.011824412784
 49       0.011630014821
 50       0.001175398064
 51       0.011338482966
 52       0.253974436543
 53       0.197964175221
 54      -0.132370720785
 55      -0.102858214652
 56      -0.013291462668
 57      -0.011255550987
 58      -0.002895888743
 59      -0.005766007738
 60       0.038035439479
 61       0.028147577508
 Sym=     1a
 Ene= -5.41104271356015E-01
 Spin= Alpha
 Occup= 2.000000
  1      -0.011405901742
  2       0.025311434206
  3      -0.140470666693
  4      -0.073997226208
  5      -0.108590773495
  6       0.010978945694
  7      -0.089142355542
  8      -0.034305207044
  9      -0.065575490219
 10      -0.186546558434
 11      -0.145277053752
 12      -0.005850018967
 13       0.015079807927
 14       0.230581951539
 15      -0.061247667908
 16       0.212851382976
 17      -0.006312105858
 18       0.139575832352
 19      -0.027577276354
 20       0.114437972048
 21       0.007850955185
 22      -0.015564118940
 23      -0.066997301293
 24       0.095723088520
 25      -0.093663736606
 26      -0.016172760955
 27      -0.043257698849
 28       0.062163914239
 29      -0.061732360111
 30      -0.035257352063
 31       0.078766417855
 32      -0.015989817280
 33       0.102571937952
 34      -0.072729739171
 35       0.071835145494
 36      -0.013269506273
 37       0.023483435267
 38      -0.011510388766
 39       0.007958619739
 40      -0.014578318908
 41       0.109918901575
 42       0.087197043298
 43       0.081270838263
 44      -0.015822779859
 45       0.070796870462
 46       0.063980177800
 47       0.049869489910
 48       0.126879750854
 49       0.090706661067
 50      -0.115527312718
 51      -0.088654123984
 52      -0.017840317364
 53      -0.016153714557
 54       0.171050317864
 55       0.131722362795
 56      -0.110205346424
 57      -0.074562809241
 58      -0.034088010416
 59      -0.043609872224
 60      -0.119770943927
 61      -0.081667458459
 Sym=     1a
 Ene= -5.07101265471055E-01
 Spin= Alpha
 Occup= 2.000000
  1      -0.011758419717
  2       0.026563908932