
                                 *****************
                                 * O   R   C   A *
                                 *****************

                                            #,                                       
                                            ###                                      
                                            ####                                     
                                            #####                                    
                                            ######                                   
                                           ########,                                 
                                     ,,################,,,,,                         
                               ,,#################################,,                 
                          ,,##########################################,,             
                       ,#########################################, ''#####,          
                    ,#############################################,,   '####,        
                  ,##################################################,,,,####,       
                ,###########''''           ''''###############################       
              ,#####''   ,,,,##########,,,,          '''####'''          '####       
            ,##' ,,,,###########################,,,                        '##       
           ' ,,###''''                  '''############,,,                           
         ,,##''                                '''############,,,,        ,,,,,,###''
      ,#''                                            '''#######################'''  
     '                                                          ''''####''''         
             ,#######,   #######,   ,#######,      ##                                
            ,#'     '#,  ##    ##  ,#'     '#,    #''#        ,####,    ,#,          
            ##       ##  ##   ,#'  ##            #'  '#       #'       ,# #          
            ##       ##  #######   ##           ,######,      #####,      #          
            '#,     ,#'  ##    ##  '#,     ,#' ,#      #,     #,   #      #          
             '#######'   ##     ##  '#######'  #'      '#     '####' #    #          



                #########################################################
                #                        -***-                          #
                #          Department of theory and spectroscopy        #
                #                                                       #
                #                      Frank Neese                      #
                #                                                       #
                #     Directorship, Architecture, Infrastructure        #
                #                    SHARK, DRIVERS                     #
                #        Core code/Algorithms in most modules           #
                #                                                       #
                #        Max Planck Institute fuer Kohlenforschung      #
                #                Kaiser Wilhelm Platz 1                 #
                #                 D-45470 Muelheim/Ruhr                 #
                #                      Germany                          #
                #                                                       #
                #                  All rights reserved                  #
                #                        -***-                          #
                #########################################################


                         Program Version 6.1.0  -  RELEASE   -
                                (GIT: $679e74b$)
                          ($2025-06-10 18:02:51 +0200$)


 With contributions from (in alphabetic order):
[Max-Planck-Institut fuer Kohlenforschung]                               
  Daniel Aravena         : Magnetic Suceptibility                        
  Michael Atanasov       : Ab Initio Ligand Field Theory (pilot matlab implementation)
  Alexander A. Auer      : GIAO ZORA, VPT2 properties, NMR spectrum      
  Ute Becker             : All parallelization in ORCA, NUMFREQ, NUMCALC 
  Giovanni Bistoni       : ED, misc. LED, open-shell LED, HFLD           
  Dmytro Bykov           : pre 5.0 version of the SCF Hessian            
  Marcos Casanova-Páez   : Triplet and SCS-CIS(D). UHF-(DLPNO)-IP/EA/STEOM-CCSD. UHF-CVS-IP/STEOM-CCSD   
  Vijay G. Chilkuri      : MRCI spin determinant printing, contributions to CSF-ICE 
  Pauline Colinet        : FMM embedding                                 
  Dipayan Datta          : RHF DLPNO-CCSD density                        
  Achintya Kumar Dutta   : EOM-CC, STEOM-CC                              
  Nicolas Foglia         : Exact transition moments, OPA infrastructure, MCD improvements    
  Dmitry Ganyushin       : Spin-Orbit,Spin-Spin,Magnetic field MRCI      
  Miquel Garcia-Rates    : C-PCM and meta-GGA Hessian, CCSD/C-PCM, Gaussian charge scheme 
  Tiago L. C. Gouveia    : GS-ROHF, GS-ROCIS                             
  Yang Guo               : DLPNO-NEVPT2, F12-NEVPT2, CIM, IAO-localization        
  Andreas Hansen         : Spin unrestricted coupled pair/coupled cluster methods 
  Ingolf Harden          : AUTO-CI MPn and infrastructure                
  Benjamin Helmich-Paris : MC-RPA, TRAH-(SCF,CASSCF), AVAS, COSX integrals, SCF dyn. polar., MC-PDFT, srDFT 
  Lee Huntington         : MR-EOM, pCC                                   
  Robert Izsak           : Overlap fitted RIJCOSX, COSX-SCS-MP3, EOM     
  Riya Kayal             : Wick's Theorem for AUTO-CI, AUTO-CI UHF-CCSDT 
  Emily Kempfer          : AUTO-CI RHF CISDT and CCSDT, approximate NEVPT4
  Christian Kollmar      : KDIIS, OOCD, Brueckner-CCSD(T), CCSD density, CASPT2, CASPT2-K, improved NEVPT2 
  Axel Koslowski         : Symmetry handling                             
  Simone Kossmann        : meta-GGA functionals, TD-DFT gradient, OOMP2, (MP2 Hessian; deprecated post 5.0) 
  Lucas Lang             : DCDCAS, Hyperfine gauge corrections, ICE-SOC+SSC
  Marvin Lechner         : AUTO-CI (C++ implementation), FIC-MRCC        
  Spencer Leger          : CASSCF response                               
  Dagmar Lenk            : GEPOL surface, SMD, ORCA-2-JSON               
  Dimitrios Liakos       : Extrapolation schemes; Compound Job, Property file
  Dimitrios Manganas     : Further ROCIS development; embedding schemes. LFT, Crystal Embedding 
  Dimitrios Pantazis     : SARC Basis sets                               
  Anastasios Papadopoulos: AUTO-CI, single reference methods and gradients 
  Taras Petrenko         : pre 6.0 DFT Hessian and TD-DFT gradient,  ECA, NRVS 
  Petra Pikulova         : Analytic Raman intensities                    
  Peter Pinski           : DLPNO-MP2, DLPNO-MP2 Gradient                 
  Shashank Vittal Rao    : ES-AILFT, MagRelax                            
  Christoph Reimann      : Effective Core Potentials                     
  Marius Retegan         : Local ZFS, SOC                                
  Christoph Riplinger    : Optimizer, TS searches, QM/MM, DLPNO-CCSD(T), (RO)-DLPNO pert. Triples 
  Michael Roemelt        : Original ROCIS implementation, recursive CI coupling coefficients
  Masaaki Saitow         : Open-shell DLPNO-CCSD energy and density      
  Barbara Sandhoefer     : DKH picture change effects                    
  Yorick L. A. Schmerwitz: GMF and freeze-and-release deltaSCF, NEB S-IDPP initial path                    
  Kantharuban Sivalingam : CASSCF convergence/infrastructure, NEVPT2, NEVPT3, NEVPT4(SD), FIC-MRCI and CEPA variants
  Bernardo de Souza      : ESD, SOC TD-DFT                               
  Georgi L. Stoychev     : AutoAux, RI-MP2 NMR, DLPNO-MP2 response, X2C  
  Van Anh Tran           : RI-MP2 g-tensors                              
  Willem Van den Heuvel  : Paramagnetic NMR                              
  Zikuan Wang            : NOTCH, Electric field optimization            
  Frank Wennmohs         : Technical directorship and infrastructure     
  Hang Xu                : AUTO-CI-Response properties                   
                                                                         
[FACCTs GmbH]                                                            
  Markus Bursch, Nicolas Foglia, Miquel Garcia-Rates, Ingolf Harden, Hagen Neugebauer, Anastasios Papadopoulos, 
  Christoph Riplinger, Bernardo de Souza, Georgi L. Stoychev                                                    
                                                                 
  APM, various basis sets, CI-OPT, improved COSX, DLPNO-Multilevel,           
  DOCKER, DRACO, updates on ESD, Fragmentator, GOAT, IRC, LR-CPCM, L-BFGS, MBIS, meta-GGA TD-DFT gradient, ML-optimized integration grids, 
  MM, NACMEs, nearIR, NEB, NEB-TS, NL-DFT gradient (VV10), 2- and 3-layer-ONIOM, interface openCOSMO-RS, QMMM,   
  Crystal-QMMM, RESP, rigid body optimization, SF, symmetry and pop. for TD-DFT, various functionals, SOLVATOR                                   
                                                                         
[Other institutions]                                                     
  V. Asgeirsson          : NEB                                           
  Christoph Bannwarth    : sTDA-DFT, sTD-DFT, PBEh-3c, B97-3c, D3        
  Giovanni Bistoni       : ETS/NOCV, ADLD/ADEX, COVALED                  
  Martin Brehm           : Molecular dynamics                            
  Ronald Cardenas        : ETS/NOCV                                      
  Martina Colucci        : COVALED                                       
  Sebastian Ehlert       : rSCAN, r2SCAN, r2SCAN-3c, D4, dhf basis sets  
  Marvin Friede          : D4 for Fr, Ra, Ac-Lr                          
  Lars Goerigk           : TD-DFT with DH, B97 family of functionals     
  Stefan Grimme          : VdW corrections, initial TS optimization, DFT functionals, gCP, sTDA/sTD-DF 
  Waldemar Hujo          : DFT-NL                                        
  H. Jonsson             : NEB                                           
  Holger Kruse           : gCP                                           
  Marcel Mueller         : wB97X-3c, vDZP basis set                      
  Hagen Neugebauer       : wr2SCAN, Native XTB                           
  Gianluca Regni         : ADLD/ADEX                                     
  Tobias Risthaus        : pre 6.0 range-separated hybrid DFT and stability analysis
  Lukas Wittmann         : regularized MP2, r2SCAN double-hybrids, wr2SCAN        
                                                                         
We gratefully acknowledge several colleagues who have allowed us to      
interface, adapt or use parts of their codes:                            
  Ed Valeev, F. Pavosevic, A. Kumar             : LibInt (2-el integral package), F12 methods 
  Garnet Chan, S. Sharma, J. Yang, R. Olivares  : DMRG                   
  Ulf Ekstrom                                   : XCFun DFT Library      
  Mihaly Kallay                                 : mrcc  (arbitrary order and MRCC methods)
  Frank Weinhold                                : gennbo (NPA and NBO analysis)           
  Simon Mueller                                 : openCOSMO-RS                            
  Christopher J. Cramer and Donald G. Truhlar   : smd solvation model                     
  S Lehtola, MJT Oliveira, MAL Marques          : LibXC Library                           
  Liviu Ungur et al                             : ANISO software                          


 Your calculation uses the libint2 library for the computation of 2-el integrals
 For citations please refer to: http://libint.valeyev.net

 Your ORCA version has been built with support for libXC version: 7.0.0
 For citations please refer to: https://libxc.gitlab.io

 This ORCA versions uses:
   CBLAS   interface :  Fast vector & matrix operations
   LAPACKE interface :  Fast linear algebra routines
   SCALAPACK package :  Parallel linear algebra routines
   Shared memory     :  Shared parallel matrices
   BLAS/LAPACK       :  OpenBLAS 0.3.29  USE64BITINT DYNAMIC_ARCH NO_AFFINITY Zen SINGLE_THREADED
        Core in use  :  Zen
   Copyright (c) 2011-2014, The OpenBLAS Project


  ***********************************
  * Starting time: Sun Apr  5 13:02:24 2026
  * Host name:     QC1
  * Process ID:    11565
  * Working dir.:  /home/user/QC/h-shift/split_2
  ***********************************

NOTE: MaxCore=1200 MB was set to SCF,MP2,MDCI,CIPSI,MRCI,RASCI and CIS
      => If you want to overwrite this, your respective input block should be placed after the MaxCore statement
================================================================================

----- Orbital basis set information -----
Your calculation utilizes the basis: 6-31G
   H-He, Li-Ne : W. J. Hehre, R. Ditchfield and J.A. Pople, J. Chem. Phys. 56, 2257 (1972).
                 Note: He and Ne are unpublished basis sets taken from the Gaussian program.
                 Note: Li and B from J. D. Dill and J. A. Pople, J. Chem. Phys. 62, 2921 (1975).
   Na - Ar     : M. M. Francl, W. J. Pietro, W. J. Hehre, J. S. Binkley, M. S. Gordon, 
                 D. J. DeFrees and J. A. Pople, J. Chem. Phys. 77, 3654 (1982).
   K - Zn      : V. A. Rassolov, J. A. Pople, M. A. Ratner, and T. L. Windus, J. Chem. Phys. 109, 1223 (1998).

================================================================================
                                        WARNINGS
                       Please study these warnings very carefully!
================================================================================


================================================================================
                                       INPUT FILE
================================================================================
NAME = h-shift_063.inp
|  1> ! HF 6-31G
|  2> %maxcore 1200
|  3> %pal nprocs 8 end
|  4> * xyz 0 1
|  5> C   -0.37321900   0.02114300   0.03383600
|  6> H    2.02408300   0.00200400   0.04341200
|  7> C    2.41260400   0.01189300   1.05411900
|  8> C    1.86109600  -1.15171900   1.82338600
|  9> C    0.61109400  -1.60000900   1.69835800
| 10> C   -0.32596200  -1.15732800   0.65688300
| 11> H   -0.93742300   0.14349000  -0.86870600
| 12> H    0.15897300   0.88587800   0.36794100
| 13> H    2.09327700   0.95045000   1.49950500
| 14> H    3.49087400   0.01466200   1.00873900
| 15> H    2.53602900  -1.67004400   2.48171700
| 16> H    0.30174200  -2.44517000   2.28964900
| 17> H   -0.97122100  -1.93712200   0.29403200
| 18> *
| 19> 
| 20>                          ****END OF INPUT****
================================================================================

                       ****************************
                       * Single Point Calculation *
                       ****************************

---------------------------------
CARTESIAN COORDINATES (ANGSTROEM)
---------------------------------
  C     -0.373219    0.021143    0.033836
  H      2.024083    0.002004    0.043412
  C      2.412604    0.011893    1.054119
  C      1.861096   -1.151719    1.823386
  C      0.611094   -1.600009    1.698358
  C     -0.325962   -1.157328    0.656883
  H     -0.937423    0.143490   -0.868706
  H      0.158973    0.885878    0.367941
  H      2.093277    0.950450    1.499505
  H      3.490874    0.014662    1.008739
  H      2.536029   -1.670044    2.481717
  H      0.301742   -2.445170    2.289649
  H     -0.971221   -1.937122    0.294032

----------------------------
CARTESIAN COORDINATES (A.U.)
----------------------------
  NO LB      ZA    FRAG     MASS         X           Y           Z
   0 C     6.0000    0    12.011   -0.705282    0.039954    0.063941
   1 H     1.0000    0     1.008    3.824963    0.003787    0.082037
   2 C     6.0000    0    12.011    4.559161    0.022475    1.991996
   3 C     6.0000    0    12.011    3.516962   -2.176433    3.445700
   4 C     6.0000    0    12.011    1.154800   -3.023579    3.209431
   5 C     6.0000    0    12.011   -0.615979   -2.187033    1.241329
   6 H     1.0000    0     1.008   -1.771473    0.271157   -1.641616
   7 H     1.0000    0     1.008    0.300415    1.674067    0.695308
   8 H     1.0000    0     1.008    3.955720    1.796090    2.833654
   9 H     1.0000    0     1.008    6.596796    0.027707    1.906240
  10 H     1.0000    0     1.008    4.792400   -3.155926    4.689765
  11 H     1.0000    0     1.008    0.570210   -4.620702    4.326810
  12 H     1.0000    0     1.008   -1.835342   -3.660630    0.555640

--------------------------------
INTERNAL COORDINATES (ANGSTROEM)
--------------------------------
 C      0   0   0     0.000000000000     0.00000000     0.00000000
 H      1   0   0     2.397397522377     0.00000000     0.00000000
 C      2   1   0     1.082855022434   111.24976281     0.00000000
 C      3   2   1     1.499975225761   109.85726530    56.60118271
 C      4   3   2     1.333829421211   123.86395185   322.07765099
 C      1   2   3     1.333872065117    87.45833215   297.12704329
 H      1   2   3     1.071390220129   122.06390086   171.80534277
 H      1   2   3     1.068934561194    60.48562677    68.35201253
 H      3   2   1     1.086842980459   106.55662802   296.76682191
 H      3   2   1     1.079228059615   108.61764219   180.67314724
 H      4   3   2     1.075915919426   117.18580386   139.54319772
 H      5   4   3     1.076856918307   118.78526068   179.80159675
 H      6   1   2     1.075220306597   117.50700814   225.94518107

---------------------------
INTERNAL COORDINATES (A.U.)
---------------------------
 C      0   0   0     0.000000000000     0.00000000     0.00000000
 H      1   0   0     4.530424751435     0.00000000     0.00000000
 C      2   1   0     2.046299435142   111.24976281     0.00000000
 C      3   2   1     2.834542384355   109.85726530    56.60118271
 C      4   3   2     2.520572315455   123.86395185   322.07765099
 C      1   2   3     2.520652900759    87.45833215   297.12704329
 H      1   2   3     2.024634098606   122.06390086   171.80534277
 H      1   2   3     2.019993575739    60.48562677    68.35201253
 H      3   2   1     2.053835583643   106.55662802   296.76682191
 H      3   2   1     2.039445468716   108.61764219   180.67314724
 H      4   3   2     2.033186430842   117.18580386   139.54319772
 H      5   4   3     2.034964661019   118.78526068   179.80159675
 H      6   1   2     2.031871913099   117.50700814   225.94518107

---------------------
BASIS SET INFORMATION
---------------------
There are 2 groups of distinct atoms

 Group   1 Type C   : 10s4p contracted to 3s2p pattern {631/31}
 Group   2 Type H   : 4s contracted to 2s pattern {31}

Atom   0C    basis set group =>   1
Atom   1H    basis set group =>   2
Atom   2C    basis set group =>   1
Atom   3C    basis set group =>   1
Atom   4C    basis set group =>   1
Atom   5C    basis set group =>   1
Atom   6H    basis set group =>   2
Atom   7H    basis set group =>   2
Atom   8H    basis set group =>   2
Atom   9H    basis set group =>   2
Atom  10H    basis set group =>   2
Atom  11H    basis set group =>   2
Atom  12H    basis set group =>   2


           ************************************************************
           *        Program running with 8 parallel MPI-processes     *
           *              working on a common directory               *
           ************************************************************
------------------------------------------------------------------------------
                             ORCA STARTUP CALCULATIONS
------------------------------------------------------------------------------
------------------------------------------------------------------------------
                   ___                                                        
                  /   \      - P O W E R E D   B Y -                         
                 /     \                                                     
                 |  |  |   _    _      __       _____    __    __             
                 |  |  |  | |  | |    /  \     |  _  \  |  |  /  |          
                  \  \/   | |  | |   /    \    | | | |  |  | /  /          
                 / \  \   | |__| |  /  /\  \   | |_| |  |  |/  /          
                |  |  |   |  __  | /  /__\  \  |    /   |      \           
                |  |  |   | |  | | |   __   |  |    \   |  |\   \          
                \     /   | |  | | |  |  |  |  | |\  \  |  | \   \       
                 \___/    |_|  |_| |__|  |__|  |_| \__\ |__|  \__/        
                                                                              
                      - O R C A' S   B I G   F R I E N D -                    
                                      &                                       
                       - I N T E G R A L  F E E D E R -                       
                                                                              
 v1 FN, 2020, v2 2021, v3 2022-2024                                           
------------------------------------------------------------------------------


----------------------
SHARK INTEGRAL PACKAGE
----------------------

Number of atoms                             ...     13
Number of basis functions                   ...     61
Number of shells                            ...     41
Maximum angular momentum                    ...      1
Integral batch strategy                     ... SHARK/LIBINT Hybrid
RI-J (if used) integral strategy            ... SPLIT-RIJ (Revised 2003 algorithm where possible)
Printlevel                                  ...      1
Contraction scheme used                     ... SEGMENTED contraction
Prescreening option                         ... SCHWARTZ
   Thresh                                   ... 1.000e-10
   Tcut                                     ... 1.000e-11
   Tpresel                                  ... 1.000e-11 
Coulomb Range Separation                    ... NOT USED
Exchange Range Separation                   ... NOT USED
Multipole approximations                    ... NOT USED
Finite Nucleus Model                        ... NOT USED
CABS basis                                  ... NOT available
Auxiliary Coulomb fitting basis             ... NOT available
Auxiliary J/K fitting basis                 ... NOT available
Auxiliary Correlation fitting basis         ... NOT available
Auxiliary 'external' fitting basis          ... NOT available

Checking pre-screening integrals            ... done (  0.0 sec) Dimension = 41
   => SHARK Basis and OBASIS are compatible. Storing Pre-screening
Shell pair information
Shell pair cut-off parameter TPreSel        ...   1.0e-11
Total number of shell pairs                 ...       861
Shell pairs after pre-screening             ...       846
Total number of primitive shell pairs       ...      5382
Primitive shell pairs kept                  ...      3741
          la=0 lb=0:    481 shell pairs
          la=1 lb=0:    310 shell pairs
          la=1 lb=1:     55 shell pairs

Checking whether 4 symmetric matrices of dimension 61 fit in memory
:Max Core in MB      =   1200.00
 MB in use           =      2.04
 MB left             =   1197.96
 MB needed           =      0.06
 Data fit in memory  = YES
Calculating Nuclear repulsion               ... done (  0.0 sec) ENN=    161.607359255755 Eh

Diagonalization of the overlap matrix:
Smallest eigenvalue                        ... 3.416e-03
Time for diagonalization                   ...    0.001 sec
Threshold for overlap eigenvalues          ... 1.000e-07
Number of eigenvalues below threshold      ... 0
Time for construction of square roots      ...    0.000 sec
Total time needed                          ...    0.001 sec

-------------------
DFT GRID GENERATION
-------------------

General Integration Accuracy     IntAcc      ... 4.388
Radial Grid Type                 RadialGrid  ... OptM3 with GC (2021)
Angular Grid (max. ang.)         AngularGrid ... 4 (Lebedev-302)
Angular grid pruning method      GridPruning ... 4 (adaptive)
Weight generation scheme         WeightScheme... mBecke (2022)
Basis function cutoff            BFCut       ... 1.0000e-10
Integration weight cutoff        WCut        ... 1.0000e-14
Partially contracted basis set               ... off
Rotationally invariant grid construction     ... off
Angular grids for H and He will be reduced by one unit

Total number of grid points                  ...    56056
Total number of batches                      ...      882
Average number of points per batch           ...       63
Average number of grid points per atom       ...     4312
Grids setup in   0.3 sec
Initializing property integral containers    ... done (  0.0 sec)

SHARK setup successfully completed in   0.3 seconds

Maximum memory used throughout the entire STARTUP-calculation: 11.9 MB


           ************************************************************
           *        Program running with 8 parallel MPI-processes     *
           *              working on a common directory               *
           ************************************************************
-------------------------------------------------------------------------------
                                 ORCA GUESS
                   Start orbitals & Density for SCF / CASSCF
-------------------------------------------------------------------------------

------------
SCF SETTINGS
------------
Hamiltonian:
 Ab initio Hamiltonian  Method          .... Hartree-Fock(GTOs)


General Settings:
 Integral files         IntName         .... h-shift_063
 Hartree-Fock type      HFTyp           .... RHF
 Total Charge           Charge          ....    0
 Multiplicity           Mult            ....    1
 Number of Electrons    NEL             ....   38
 Basis Dimension        Dim             ....   61
 Nuclear Repulsion      ENuc            ....    161.6073592558 Eh

Convergence Acceleration:
 AO-DIIS                CNVDIIS         .... on
   Start iteration      DIISMaxIt       ....    12
   Startup error        DIISStart       ....  0.200000
   # of expansion vecs  DIISMaxEq       ....     5
   Bias factor          DIISBfac        ....   1.050
   Max. coefficient     DIISMaxC        ....  10.000
 MO-DIIS                CNVKDIIS        .... off
 Trust-Rad. Augm. Hess. CNVTRAH         .... auto
   Auto Start mean grad. ratio tolernc. ....  1.125000
   Auto Start start iteration           ....    50
   Auto Start num. interpolation iter.  ....    10
   Max. Number of Micro iterations      ....    24
   Max. Number of Macro iterations      .... Maxiter - #DIIS iter
   Number of Davidson start vectors     ....     2
   Converg. threshold    (grad. norm)   ....   5.000e-05
   Grad. Scal. Fac. for Micro threshold ....   0.100
   Minimum threshold for Micro iter.    ....   1.000e-02
   NR start threshold (gradient norm)   ....   1.000e-04
   Initial trust radius                 ....   0.400
   Minimum AH scaling param. (alpha)    ....   1.000
   Maximum AH scaling param. (alpha)    .... 1000.000
   Quad. conv. algorithm                .... NR
   White noise on init. David. guess    .... on
   Maximum white noise                  ....   0.010
   Pseudo random numbers                .... off
   Inactive MOs                         .... canonical
   Orbital update algorithm             .... Taylor
   Preconditioner                       .... Diag
   Full preconditioner red. dimension   ....   250
 SOSCF                 CNVSOSCF           .... on
   Start iteration     SOSCFMaxIt         ....   150
   Startup grad/error  SOSCFStart         ....  0.003300
   Hessian update      SOSCFHessUp        .... L-BFGS
   Autom. constraints  SOSCFAutoConstrain .... off
 Level Shifting         CNVShift        .... on
   Level shift para.    LevelShift      ....    0.2500
   Turn off err/grad.   ShiftErr        ....    0.0010
 Zerner damping         CNVZerner       .... off
 Static damping         CNVDamp         .... on
   Fraction old density DampFac         ....    0.7000
   Max. Damping (<1)    DampMax         ....    0.9800
   Min. Damping (>=0)   DampMin         ....    0.0000
   Turn off err/grad.   DampErr         ....    0.1000

SCF Procedure:
 Maximum # iterations   MaxIter         ....   125
 SCF integral mode      SCFMode         .... Direct
   Integral package                     .... SHARK and LIBINT hybrid scheme
 Reset frequency        DirectResetFreq ....    20
 Integral Threshold     Thresh          ....  1.000e-10 Eh
 Primitive CutOff       TCut            ....  1.000e-11 Eh

Convergence Tolerance:
 Convergence Check Mode ConvCheckMode   .... Total+1el-Energy
 Convergence forced     ConvForced      .... 0
 Energy Change          TolE            ....  1.000e-06 Eh
 1-El. energy change                    ....  1.000e-03 Eh
 Orbital Gradient       TolG            ....  5.000e-05
 Orbital Rotation angle TolX            ....  5.000e-05
 DIIS Error             TolErr          ....  1.000e-06

------------------------------
INITIAL GUESS: MODEL POTENTIAL
------------------------------
Loading Hartree-Fock densities                     ... done
Calculating cut-offs                               ... done
Initializing the effective Hamiltonian             ... done
Setting up the integral package (SHARK)            ... done
Starting the Coulomb interaction                   ... done (   0.0 sec)
Making the grid                                    ... done (   0.1 sec)
Mapping shells                                     ... done
Starting the XC term evaluation                    ... done (   0.0 sec)
Transforming the Hamiltonian                       ... done (   0.0 sec)
Diagonalizing the Hamiltonian                      ... done (   0.0 sec)
Back transforming the eigenvectors                 ... done (   0.0 sec)
Now organizing SCF variables                       ... done
                      ------------------
                      INITIAL GUESS DONE (   0.1 sec)
                      ------------------
             **** ENERGY FILE WAS UPDATED (h-shift_063.en.tmp) ****
Finished Guess after   0.3 sec
Maximum memory used throughout the entire GUESS-calculation: 4.2 MB


           ************************************************************
           *        Program running with 8 parallel MPI-processes     *
           *              working on a common directory               *
           ************************************************************

-------------------------------------------------------------------------------------------
                                      ORCA LEAN-SCF
                              memory conserving SCF solver
-------------------------------------------------------------------------------------------

----------------------------------------D-I-I-S--------------------------------------------
Iteration    Energy (Eh)           Delta-E    RMSDP     MaxDP     DIISErr   Damp  Time(sec)
-------------------------------------------------------------------------------------------
               ***  Starting incremental Fock matrix formation  ***
    1    -193.6413787820772825     0.00e+00  1.57e-02  5.29e-02  1.83e-01  0.700   0.0
    2    -193.7220872325383709    -8.07e-02  1.25e-02  4.01e-02  1.20e-01  0.700   0.0
                               ***Turning on AO-DIIS***
    3    -193.7719682100294847    -4.99e-02  7.67e-03  2.02e-02  7.22e-02  0.700   0.0
    4    -193.8034879136017423    -3.15e-02  1.82e-02  4.40e-02  4.90e-02  0.000   0.0
                              *** Initializing SOSCF ***
---------------------------------------S-O-S-C-F--------------------------------------
Iteration    Energy (Eh)           Delta-E    RMSDP     MaxDP     MaxGrad    Time(sec)
--------------------------------------------------------------------------------------
    5    -193.8716879893765110    -6.82e-02  1.70e-03  2.79e-03  2.24e-03     0.0
               *** Restarting incremental Fock matrix formation ***
    6    -193.8718116574305270    -1.24e-04  8.86e-04  1.50e-03  1.39e-03     0.0
    7    -193.8718491720419763    -3.75e-05  5.67e-04  1.16e-03  5.82e-04     0.0
    8    -193.8718567652296940    -7.59e-06  7.59e-05  2.32e-04  1.38e-04     0.0
    9    -193.8718570001312571    -2.35e-07  3.38e-05  1.01e-04  3.19e-05     0.0
                 **** Energy Check signals convergence ****

               *****************************************************
               *                     SUCCESS                       *
               *           SCF CONVERGED AFTER   9 CYCLES          *
               *****************************************************

             **** ENERGY FILE WAS UPDATED (h-shift_063.en.tmp) ****

----------------
TOTAL SCF ENERGY
----------------

Total Energy       :       -193.87185706178352 Eh           -5275.52143 eV

Components:
Nuclear Repulsion  :        161.60735925575497 Eh            4397.55981 eV
Electronic Energy  :       -355.47921631753849 Eh           -9673.08125 eV
One Electron Energy:       -580.16560480475630 Eh          -15787.10871 eV
Two Electron Energy:        224.68638848721781 Eh            6114.02746 eV

Virial components:
Potential Energy   :       -388.05548995880429 Eh          -10559.52672 eV
Kinetic Energy     :        194.18363289702074 Eh            5284.00528 eV
Virial Ratio       :          1.99839442783830

---------------
SCF CONVERGENCE
---------------

  Last Energy change         ...    2.3490e-07  Tolerance :   1.0000e-06
  Last MAX-Density change    ...    1.0088e-04  Tolerance :   1.0000e-05
  Last RMS-Density change    ...    3.3837e-05  Tolerance :   1.0000e-06
  Last DIIS Error            ...    2.2444e-03  Tolerance :   1.0000e-06
  Last Orbital Gradient      ...    3.1895e-05  Tolerance :   5.0000e-05
  Last Orbital Rotation      ...    3.1371e-05  Tolerance :   5.0000e-05


----------------
ORBITAL ENERGIES
----------------

  NO   OCC          E(Eh)            E(eV) 
   0   2.0000     -11.236206      -305.7527 
   1   2.0000     -11.236146      -305.7511 
   2   2.0000     -11.227807      -305.5242 
   3   2.0000     -11.220955      -305.3377 
   4   2.0000     -11.213622      -305.1382 
   5   2.0000      -1.102573       -30.0025 
   6   2.0000      -1.019095       -27.7310 
   7   2.0000      -0.941756       -25.6265 
   8   2.0000      -0.812996       -22.1228 
   9   2.0000      -0.719361       -19.5748 
  10   2.0000      -0.668498       -18.1907 
  11   2.0000      -0.601670       -16.3723 
  12   2.0000      -0.584074       -15.8935 
  13   2.0000      -0.567669       -15.4471 
  14   2.0000      -0.543593       -14.7919 
  15   2.0000      -0.507705       -13.8153 
  16   2.0000      -0.470278       -12.7969 
  17   2.0000      -0.407935       -11.1005 
  18   2.0000      -0.314475        -8.5573 
  19   0.0000       0.132715         3.6114 
  20   0.0000       0.228308         6.2126 
  21   0.0000       0.251219         6.8360 
  22   0.0000       0.268999         7.3198 
  23   0.0000       0.291561         7.9338 
  24   0.0000       0.322868         8.7857 
  25   0.0000       0.335386         9.1263 
  26   0.0000       0.347877         9.4662 
  27   0.0000       0.362751         9.8710 
  28   0.0000       0.369350        10.0505 
  29   0.0000       0.432331        11.7643 
*Only the first 10 virtual orbitals were printed.

                    ********************************
                    * MULLIKEN POPULATION ANALYSIS *
                    ********************************

-----------------------
MULLIKEN ATOMIC CHARGES
-----------------------
   0 C :   -0.365287
   1 H :    0.184769
   2 C :   -0.513927
   3 C :   -0.146158
   4 C :   -0.197804
   5 C :   -0.153797
   6 H :    0.161876
   7 H :    0.173654
   8 H :    0.171665
   9 H :    0.158561
  10 H :    0.177461
  11 H :    0.176335
  12 H :    0.172650
Sum of atomic charges:    0.0000000

--------------------------------
MULLIKEN REDUCED ORBITAL CHARGES
--------------------------------
  0 C s       :     3.268435  s :     3.268435
      pz      :     1.048663  p :     3.096853
      px      :     1.049403
      py      :     0.998786

  1 H s       :     0.815231  s :     0.815231

  2 C s       :     3.367193  s :     3.367193
      pz      :     1.061715  p :     3.146734
      px      :     1.090984
      py      :     0.994036

  3 C s       :     3.211650  s :     3.211650
      pz      :     0.983550  p :     2.934508
      px      :     0.985356
      py      :     0.965602

  4 C s       :     3.196258  s :     3.196258
      pz      :     1.005461  p :     3.001546
      px      :     0.933048
      py      :     1.063036

  5 C s       :     3.196654  s :     3.196654
      pz      :     0.934481  p :     2.957143
      px      :     1.025600
      py      :     0.997061

  6 H s       :     0.838124  s :     0.838124

  7 H s       :     0.826346  s :     0.826346

  8 H s       :     0.828335  s :     0.828335

  9 H s       :     0.841439  s :     0.841439

 10 H s       :     0.822539  s :     0.822539

 11 H s       :     0.823665  s :     0.823665

 12 H s       :     0.827350  s :     0.827350



                     *******************************
                     * LOEWDIN POPULATION ANALYSIS *
                     *******************************

----------------------
LOEWDIN ATOMIC CHARGES
----------------------
   0 C :   -0.249891
   1 H :    0.127285
   2 C :   -0.320915
   3 C :   -0.104952
   4 C :   -0.150491
   5 C :   -0.113968
   6 H :    0.116151
   7 H :    0.118171
   8 H :    0.117082
   9 H :    0.109929
  10 H :    0.117439
  11 H :    0.117454
  12 H :    0.116707

-------------------------------
LOEWDIN REDUCED ORBITAL CHARGES
-------------------------------
  0 C s       :     2.989101  s :     2.989101
      pz      :     1.085060  p :     3.260790
      px      :     1.069130
      py      :     1.106599

  1 H s       :     0.872715  s :     0.872715

  2 C s       :     2.976559  s :     2.976559
      pz      :     1.127644  p :     3.344356
      px      :     1.125687
      py      :     1.091024

  3 C s       :     2.952701  s :     2.952701
      pz      :     1.021833  p :     3.152251
      px      :     1.095024
      py      :     1.035394

  4 C s       :     2.941489  s :     2.941489
      pz      :     1.054215  p :     3.209002
      px      :     1.084258
      py      :     1.070528

  5 C s       :     2.945342  s :     2.945342
      pz      :     1.027604  p :     3.168627
      px      :     1.032611
      py      :     1.108412

  6 H s       :     0.883849  s :     0.883849

  7 H s       :     0.881829  s :     0.881829

  8 H s       :     0.882918  s :     0.882918

  9 H s       :     0.890071  s :     0.890071

 10 H s       :     0.882561  s :     0.882561

 11 H s       :     0.882546  s :     0.882546

 12 H s       :     0.883293  s :     0.883293



                      *****************************
                      * MAYER POPULATION ANALYSIS *
                      *****************************

  NA   - Mulliken gross atomic population
  ZA   - Total nuclear charge
  QA   - Mulliken gross atomic charge
  VA   - Mayer's total valence
  BVA  - Mayer's bonded valence
  FA   - Mayer's free valence

  ATOM       NA         ZA         QA         VA         BVA        FA
  0 C      6.3653     6.0000    -0.3653     3.8422     3.8422    -0.0000
  1 H      0.8152     1.0000     0.1848     0.9285     0.9285     0.0000
  2 C      6.5139     6.0000    -0.5139     3.7703     3.7703    -0.0000
  3 C      6.1462     6.0000    -0.1462     3.7615     3.7615     0.0000
  4 C      6.1978     6.0000    -0.1978     3.8190     3.8190     0.0000
  5 C      6.1538     6.0000    -0.1538     3.8074     3.8074     0.0000
  6 H      0.8381     1.0000     0.1619     0.9435     0.9435    -0.0000
  7 H      0.8263     1.0000     0.1737     0.9377     0.9377    -0.0000
  8 H      0.8283     1.0000     0.1717     0.9217     0.9217    -0.0000
  9 H      0.8414     1.0000     0.1586     0.9335     0.9335    -0.0000
 10 H      0.8225     1.0000     0.1775     0.9384     0.9384     0.0000
 11 H      0.8237     1.0000     0.1763     0.9386     0.9386     0.0000
 12 H      0.8274     1.0000     0.1726     0.9371     0.9371     0.0000

  Mayer bond orders larger than 0.100000
B(  0-C ,  5-C ) :   1.8710 B(  0-C ,  6-H ) :   0.9626 B(  0-C ,  7-H ) :   0.9610 
B(  1-H ,  2-C ) :   0.9370 B(  2-C ,  3-C ) :   0.9621 B(  2-C ,  8-H ) :   0.9456 
B(  2-C ,  9-H ) :   0.9603 B(  3-C ,  4-C ) :   1.8716 B(  3-C , 10-H ) :   0.9565 
B(  4-C ,  5-C ) :   1.0521 B(  4-C , 11-H ) :   0.9563 B(  5-C , 12-H ) :   0.9577 


-------
TIMINGS
-------

Total SCF time: 0 days 0 hours 0 min 0 sec 

Total time                  ....       0.646 sec
Sum of individual times     ....       0.600 sec  ( 92.9%)

SCF preparation             ....       0.255 sec  ( 39.4%)
Fock matrix formation       ....       0.291 sec  ( 45.0%)
  Startup                   ....       0.001 sec  (  0.5% of F)
  Coulomb+Exchange Fock     ....       0.312 sec  (107.2% of F)
Diagonalization             ....       0.000 sec  (  0.0%)
Density matrix formation    ....       0.008 sec  (  1.2%)
Total Energy calculation    ....       0.005 sec  (  0.7%)
Population analysis         ....       0.005 sec  (  0.7%)
Orbital Transformation      ....       0.005 sec  (  0.7%)
Orbital Orthonormalization  ....       0.000 sec  (  0.0%)
DIIS solution               ....       0.020 sec  (  3.1%)
SOSCF solution              ....       0.013 sec  (  2.1%)
Finished LeanSCF after   0.7 sec

Maximum memory used throughout the entire LEANSCF-calculation: 6.4 MB

-------------------------   --------------------
FINAL SINGLE POINT ENERGY      -193.871857061784
-------------------------   --------------------



           ************************************************************
           *        Program running with 8 parallel MPI-processes     *
           *              working on a common directory               *
           ************************************************************

------------------------------------------------------------------------------
                              ORCA PROPERTY CALCULATIONS
------------------------------------------------------------------------------

GBWName                                 ... h-shift_063.gbw
Number of atoms                         ...     13
Number of basis functions               ...     61
Max core memory                         ...   1200 MB

Electric properties:
Dipole moment                           ... YES
Quadrupole moment                       ...  NO
Static polarizability (Dipole/Dipole)   ...  NO
Static polarizability (Dipole/Quad.)    ...  NO
Static polarizability (Quad./Quad.)     ...  NO
Static polarizability (Velocity)        ...  NO
Static hyperpolarizability              ...  NO

Atomic electric properties:
Dipole moment                           ...  NO
Quadrupole moment                       ...  NO
Static polarizability                   ...  NO

Choice of electric origin               ... Center of mass
Position of electric origin             ...     1.637841    -1.404920     1.953841

General magnetic properties:
Magnetizability                         ...  NO

EPR properties:
g-Tensor (aka g-matrix)                 ...  NO
Zero-Field splitting spin-orbit         ...  NO
Zero-field splitting spin-spin          ...  NO
Hyperfine couplings                     ...  NO (   0 nuclei)
Quadrupole couplings                    ...  NO (   0 nuclei)
Contact density                         ...  NO (   0 nuclei)

NMR properties:
Chemical shifts                         ...  NO (   0 nuclei)
Spin-rotation constants                 ...  NO (   0 nuclei)
Spin-spin couplings                     ...  NO (   0 nuclei,    0 pairs)

Choice of magnetic origin               ... GIAO
Position of magnetic origin             ...     0.000000     0.000000     0.000000

Properties with geometric perturbations:
SCF Hessian                             ...  NO
IR spectrum                             ...  NO
VCD spectrum                            ...  NO
X-ray spectroscopy properties:
SCF XES/XAS/RIXS spectra                ...  NO

SCF SOC stabilization energy            ...  NO
Diagonal Born-Oppenheimer correction    ...  NO

-------------
DIPOLE MOMENT
-------------

Method             : SCF
Type of density    : Electron Density
Multiplicity       :   1
Irrep              :   0
Energy             :  -193.8718570617835155 Eh
Basis              : AO
                                X                 Y                 Z
Electronic contribution:     -1.500065244      -1.790501716       1.023532088
Nuclear contribution   :      1.653693202       1.774804872      -1.083719785
                        -----------------------------------------
Total Dipole Moment    :      0.153627958      -0.015696844      -0.060187697
                        -----------------------------------------
Magnitude (a.u.)       :      0.165742268
Magnitude (Debye)      :      0.421283365



--------------------
Rotational spectrum 
--------------------
 
Rotational constants in cm-1:             0.280818             0.145907             0.099394 
Rotational constants in MHz :          8418.719570          4374.185640          2979.753822 

Dipole components along the rotational axes: 
x,y,z [a.u.] :    -0.115294     0.054866    -0.105677 
x,y,z [Debye]:    -0.293054     0.139458    -0.268609 

 

Dipole moment calculation done in   0.0 sec 

Maximum memory used throughout the entire PROP-calculation: 2.2 MB

--------------------------------
SUGGESTED CITATIONS FOR THIS RUN
--------------------------------

Below you find a list of papers that are relevant to this ORCA run
We neither can nor want to force you to cite these papers, but we appreciate if you do
You receive ORCA, which is the product of decades of hard work by many enthusiastic individuals, for free
The only thing we kindly ask in return is that you cite our papers,
We deeply appreciate it, if you show your appreciation for ORCA by not just citing the generic ORCA reference.

Please note that relegating all ORCA citations to the supporting information does *not* help us.
SI sections are not indexed - citations you put there will not count into any citation statistics
But we need these citations in order to attract the funding resources that allow us to do what we are doing

Therefore, if you are a happy ORCA user, please consider citing a few of the papers listed below in the main body of your paper

In addition to the list printed below, the program has created the file h-shift_063.bibtex that contains the list in bibtex format
You can import this file easily into all common literature databanks and citation aid programs


List of essential papers. We consider these as the minimum necessary citations

  1. Neese, F.
     Software update: the ORCA program system, version 6.0
     WIRES Comput. Molec. Sci. 2025 15(1), e70019
     doi.org/10.1002/wcms.7019

List of papers to cite with high priority. The work reported in these papers was absolutely
necessary for this run to complete.
Our perspective: the developers of density functionals and basis sets usually get cited in chemistry papers
Good! But without the algorithms to do something with them, the functionals or basis sets would not do anything.
Hence, in our opinion, the algorithm design and method developments papers are equally worthy of getting cited

  1. Neese, F.
     The SHARK Integral Generation and Digestion System
     J. Comp. Chem. 2022 44(3), 381
     doi.org/10.1002/jcc.26942

List of suggested additional citations. These are papers that are important in the 'surrounding' of 
of this run, or papers that preceded the highly important papers. If you like your results we are grateful for a citation.

  1. Neese, F.
     The ORCA program system
     WIRES Comput. Molec. Sci. 2012 2(1), 73-78
     doi.org/10.1002/wcms.81
  2. Neese, F.
     Software update: the ORCA program system, version 4.0
     WIRES Comput. Molec. Sci. 2018 8(1), 1-6
     doi.org/10.1002/wcms.1327
  3. Neese, F.; Wennmohs, F.; Becker, U.; Riplinger, C.
     The ORCA quantum chemistry program package
     J. Chem. Phys. 2020 152(22), 224108
     doi.org/10.1063/5.0004608
  4. Neese, F.
     Software update: The ORCA program system—Version 5.0
     WIRES Comput. Molec. Sci. 2022 12(1), e1606
     doi.org/10.1002/wcms.1606

List of optional additional citations

  1. Neese, F.
     Approximate second-order SCF convergence for spin unrestricted wavefunctions
     Chem. Phys. Lett. 2000 325(1-3), 93-98
     doi.org/10.1016/s0009-2614(00)00662-x

Timings for individual modules:

Sum of individual times          ...        2.341 sec (=   0.039 min)
Startup calculation              ...        0.669 sec (=   0.011 min)  28.6 %
SCF iterations                   ...        1.266 sec (=   0.021 min)  54.1 %
Property calculations            ...        0.406 sec (=   0.007 min)  17.3 %
                             ****ORCA TERMINATED NORMALLY****
TOTAL RUN TIME: 0 days 0 hours 0 minutes 2 seconds 787 msec
