
                                 *****************
                                 * O   R   C   A *
                                 *****************

                                            #,                                       
                                            ###                                      
                                            ####                                     
                                            #####                                    
                                            ######                                   
                                           ########,                                 
                                     ,,################,,,,,                         
                               ,,#################################,,                 
                          ,,##########################################,,             
                       ,#########################################, ''#####,          
                    ,#############################################,,   '####,        
                  ,##################################################,,,,####,       
                ,###########''''           ''''###############################       
              ,#####''   ,,,,##########,,,,          '''####'''          '####       
            ,##' ,,,,###########################,,,                        '##       
           ' ,,###''''                  '''############,,,                           
         ,,##''                                '''############,,,,        ,,,,,,###''
      ,#''                                            '''#######################'''  
     '                                                          ''''####''''         
             ,#######,   #######,   ,#######,      ##                                
            ,#'     '#,  ##    ##  ,#'     '#,    #''#        ,####,    ,#,          
            ##       ##  ##   ,#'  ##            #'  '#       #'       ,# #          
            ##       ##  #######   ##           ,######,      #####,      #          
            '#,     ,#'  ##    ##  '#,     ,#' ,#      #,     #,   #      #          
             '#######'   ##     ##  '#######'  #'      '#     '####' #    #          



                #########################################################
                #                        -***-                          #
                #          Department of theory and spectroscopy        #
                #                                                       #
                #                      Frank Neese                      #
                #                                                       #
                #     Directorship, Architecture, Infrastructure        #
                #                    SHARK, DRIVERS                     #
                #        Core code/Algorithms in most modules           #
                #                                                       #
                #        Max Planck Institute fuer Kohlenforschung      #
                #                Kaiser Wilhelm Platz 1                 #
                #                 D-45470 Muelheim/Ruhr                 #
                #                      Germany                          #
                #                                                       #
                #                  All rights reserved                  #
                #                        -***-                          #
                #########################################################


                         Program Version 6.1.0  -  RELEASE   -
                                (GIT: $679e74b$)
                          ($2025-06-10 18:02:51 +0200$)


 With contributions from (in alphabetic order):
[Max-Planck-Institut fuer Kohlenforschung]                               
  Daniel Aravena         : Magnetic Suceptibility                        
  Michael Atanasov       : Ab Initio Ligand Field Theory (pilot matlab implementation)
  Alexander A. Auer      : GIAO ZORA, VPT2 properties, NMR spectrum      
  Ute Becker             : All parallelization in ORCA, NUMFREQ, NUMCALC 
  Giovanni Bistoni       : ED, misc. LED, open-shell LED, HFLD           
  Dmytro Bykov           : pre 5.0 version of the SCF Hessian            
  Marcos Casanova-Páez   : Triplet and SCS-CIS(D). UHF-(DLPNO)-IP/EA/STEOM-CCSD. UHF-CVS-IP/STEOM-CCSD   
  Vijay G. Chilkuri      : MRCI spin determinant printing, contributions to CSF-ICE 
  Pauline Colinet        : FMM embedding                                 
  Dipayan Datta          : RHF DLPNO-CCSD density                        
  Achintya Kumar Dutta   : EOM-CC, STEOM-CC                              
  Nicolas Foglia         : Exact transition moments, OPA infrastructure, MCD improvements    
  Dmitry Ganyushin       : Spin-Orbit,Spin-Spin,Magnetic field MRCI      
  Miquel Garcia-Rates    : C-PCM and meta-GGA Hessian, CCSD/C-PCM, Gaussian charge scheme 
  Tiago L. C. Gouveia    : GS-ROHF, GS-ROCIS                             
  Yang Guo               : DLPNO-NEVPT2, F12-NEVPT2, CIM, IAO-localization        
  Andreas Hansen         : Spin unrestricted coupled pair/coupled cluster methods 
  Ingolf Harden          : AUTO-CI MPn and infrastructure                
  Benjamin Helmich-Paris : MC-RPA, TRAH-(SCF,CASSCF), AVAS, COSX integrals, SCF dyn. polar., MC-PDFT, srDFT 
  Lee Huntington         : MR-EOM, pCC                                   
  Robert Izsak           : Overlap fitted RIJCOSX, COSX-SCS-MP3, EOM     
  Riya Kayal             : Wick's Theorem for AUTO-CI, AUTO-CI UHF-CCSDT 
  Emily Kempfer          : AUTO-CI RHF CISDT and CCSDT, approximate NEVPT4
  Christian Kollmar      : KDIIS, OOCD, Brueckner-CCSD(T), CCSD density, CASPT2, CASPT2-K, improved NEVPT2 
  Axel Koslowski         : Symmetry handling                             
  Simone Kossmann        : meta-GGA functionals, TD-DFT gradient, OOMP2, (MP2 Hessian; deprecated post 5.0) 
  Lucas Lang             : DCDCAS, Hyperfine gauge corrections, ICE-SOC+SSC
  Marvin Lechner         : AUTO-CI (C++ implementation), FIC-MRCC        
  Spencer Leger          : CASSCF response                               
  Dagmar Lenk            : GEPOL surface, SMD, ORCA-2-JSON               
  Dimitrios Liakos       : Extrapolation schemes; Compound Job, Property file
  Dimitrios Manganas     : Further ROCIS development; embedding schemes. LFT, Crystal Embedding 
  Dimitrios Pantazis     : SARC Basis sets                               
  Anastasios Papadopoulos: AUTO-CI, single reference methods and gradients 
  Taras Petrenko         : pre 6.0 DFT Hessian and TD-DFT gradient,  ECA, NRVS 
  Petra Pikulova         : Analytic Raman intensities                    
  Peter Pinski           : DLPNO-MP2, DLPNO-MP2 Gradient                 
  Shashank Vittal Rao    : ES-AILFT, MagRelax                            
  Christoph Reimann      : Effective Core Potentials                     
  Marius Retegan         : Local ZFS, SOC                                
  Christoph Riplinger    : Optimizer, TS searches, QM/MM, DLPNO-CCSD(T), (RO)-DLPNO pert. Triples 
  Michael Roemelt        : Original ROCIS implementation, recursive CI coupling coefficients
  Masaaki Saitow         : Open-shell DLPNO-CCSD energy and density      
  Barbara Sandhoefer     : DKH picture change effects                    
  Yorick L. A. Schmerwitz: GMF and freeze-and-release deltaSCF, NEB S-IDPP initial path                    
  Kantharuban Sivalingam : CASSCF convergence/infrastructure, NEVPT2, NEVPT3, NEVPT4(SD), FIC-MRCI and CEPA variants
  Bernardo de Souza      : ESD, SOC TD-DFT                               
  Georgi L. Stoychev     : AutoAux, RI-MP2 NMR, DLPNO-MP2 response, X2C  
  Van Anh Tran           : RI-MP2 g-tensors                              
  Willem Van den Heuvel  : Paramagnetic NMR                              
  Zikuan Wang            : NOTCH, Electric field optimization            
  Frank Wennmohs         : Technical directorship and infrastructure     
  Hang Xu                : AUTO-CI-Response properties                   
                                                                         
[FACCTs GmbH]                                                            
  Markus Bursch, Nicolas Foglia, Miquel Garcia-Rates, Ingolf Harden, Hagen Neugebauer, Anastasios Papadopoulos, 
  Christoph Riplinger, Bernardo de Souza, Georgi L. Stoychev                                                    
                                                                 
  APM, various basis sets, CI-OPT, improved COSX, DLPNO-Multilevel,           
  DOCKER, DRACO, updates on ESD, Fragmentator, GOAT, IRC, LR-CPCM, L-BFGS, MBIS, meta-GGA TD-DFT gradient, ML-optimized integration grids, 
  MM, NACMEs, nearIR, NEB, NEB-TS, NL-DFT gradient (VV10), 2- and 3-layer-ONIOM, interface openCOSMO-RS, QMMM,   
  Crystal-QMMM, RESP, rigid body optimization, SF, symmetry and pop. for TD-DFT, various functionals, SOLVATOR                                   
                                                                         
[Other institutions]                                                     
  V. Asgeirsson          : NEB                                           
  Christoph Bannwarth    : sTDA-DFT, sTD-DFT, PBEh-3c, B97-3c, D3        
  Giovanni Bistoni       : ETS/NOCV, ADLD/ADEX, COVALED                  
  Martin Brehm           : Molecular dynamics                            
  Ronald Cardenas        : ETS/NOCV                                      
  Martina Colucci        : COVALED                                       
  Sebastian Ehlert       : rSCAN, r2SCAN, r2SCAN-3c, D4, dhf basis sets  
  Marvin Friede          : D4 for Fr, Ra, Ac-Lr                          
  Lars Goerigk           : TD-DFT with DH, B97 family of functionals     
  Stefan Grimme          : VdW corrections, initial TS optimization, DFT functionals, gCP, sTDA/sTD-DF 
  Waldemar Hujo          : DFT-NL                                        
  H. Jonsson             : NEB                                           
  Holger Kruse           : gCP                                           
  Marcel Mueller         : wB97X-3c, vDZP basis set                      
  Hagen Neugebauer       : wr2SCAN, Native XTB                           
  Gianluca Regni         : ADLD/ADEX                                     
  Tobias Risthaus        : pre 6.0 range-separated hybrid DFT and stability analysis
  Lukas Wittmann         : regularized MP2, r2SCAN double-hybrids, wr2SCAN        
                                                                         
We gratefully acknowledge several colleagues who have allowed us to      
interface, adapt or use parts of their codes:                            
  Ed Valeev, F. Pavosevic, A. Kumar             : LibInt (2-el integral package), F12 methods 
  Garnet Chan, S. Sharma, J. Yang, R. Olivares  : DMRG                   
  Ulf Ekstrom                                   : XCFun DFT Library      
  Mihaly Kallay                                 : mrcc  (arbitrary order and MRCC methods)
  Frank Weinhold                                : gennbo (NPA and NBO analysis)           
  Simon Mueller                                 : openCOSMO-RS                            
  Christopher J. Cramer and Donald G. Truhlar   : smd solvation model                     
  S Lehtola, MJT Oliveira, MAL Marques          : LibXC Library                           
  Liviu Ungur et al                             : ANISO software                          


 Your calculation uses the libint2 library for the computation of 2-el integrals
 For citations please refer to: http://libint.valeyev.net

 Your ORCA version has been built with support for libXC version: 7.0.0
 For citations please refer to: https://libxc.gitlab.io

 This ORCA versions uses:
   CBLAS   interface :  Fast vector & matrix operations
   LAPACKE interface :  Fast linear algebra routines
   SCALAPACK package :  Parallel linear algebra routines
   Shared memory     :  Shared parallel matrices
   BLAS/LAPACK       :  OpenBLAS 0.3.29  USE64BITINT DYNAMIC_ARCH NO_AFFINITY Zen SINGLE_THREADED
        Core in use  :  Zen
   Copyright (c) 2011-2014, The OpenBLAS Project


  ***********************************
  * Starting time: Sun Apr  5 13:03:06 2026
  * Host name:     QC1
  * Process ID:    13785
  * Working dir.:  /home/user/QC/h-shift/split_2
  ***********************************

NOTE: MaxCore=1200 MB was set to SCF,MP2,MDCI,CIPSI,MRCI,RASCI and CIS
      => If you want to overwrite this, your respective input block should be placed after the MaxCore statement
================================================================================

----- Orbital basis set information -----
Your calculation utilizes the basis: 6-31G
   H-He, Li-Ne : W. J. Hehre, R. Ditchfield and J.A. Pople, J. Chem. Phys. 56, 2257 (1972).
                 Note: He and Ne are unpublished basis sets taken from the Gaussian program.
                 Note: Li and B from J. D. Dill and J. A. Pople, J. Chem. Phys. 62, 2921 (1975).
   Na - Ar     : M. M. Francl, W. J. Pietro, W. J. Hehre, J. S. Binkley, M. S. Gordon, 
                 D. J. DeFrees and J. A. Pople, J. Chem. Phys. 77, 3654 (1982).
   K - Zn      : V. A. Rassolov, J. A. Pople, M. A. Ratner, and T. L. Windus, J. Chem. Phys. 109, 1223 (1998).

================================================================================
                                        WARNINGS
                       Please study these warnings very carefully!
================================================================================


================================================================================
                                       INPUT FILE
================================================================================
NAME = h-shift_078.inp
|  1> ! HF 6-31G
|  2> %maxcore 1200
|  3> %pal nprocs 8 end
|  4> * xyz 0 1
|  5> C   -0.43125900   0.00921700   0.02993300
|  6> H    2.12654100   0.01296000   0.03047000
|  7> C    2.46653000   0.01006500   1.05886900
|  8> C    1.85843200  -1.13171600   1.82043800
|  9> C    0.62591400  -1.60664200   1.64616900
| 10> C   -0.32847200  -1.18298000   0.61077500
| 11> H   -1.09856300   0.16686800  -0.79460600
| 12> H    0.13503500   0.86275200   0.34155500
| 13> H    2.17054600   0.96115400   1.49388300
| 14> H    3.54679100  -0.02882300   1.06335000
| 15> H    2.48660100  -1.60514600   2.55551000
| 16> H    0.30898800  -2.43469300   2.25759300
| 17> H   -0.98513700  -1.96489000   0.26892900
| 18> *
| 19> 
| 20>                          ****END OF INPUT****
================================================================================

                       ****************************
                       * Single Point Calculation *
                       ****************************

---------------------------------
CARTESIAN COORDINATES (ANGSTROEM)
---------------------------------
  C     -0.431259    0.009217    0.029933
  H      2.126541    0.012960    0.030470
  C      2.466530    0.010065    1.058869
  C      1.858432   -1.131716    1.820438
  C      0.625914   -1.606642    1.646169
  C     -0.328472   -1.182980    0.610775
  H     -1.098563    0.166868   -0.794606
  H      0.135035    0.862752    0.341555
  H      2.170546    0.961154    1.493883
  H      3.546791   -0.028823    1.063350
  H      2.486601   -1.605146    2.555510
  H      0.308988   -2.434693    2.257593
  H     -0.985137   -1.964890    0.268929

----------------------------
CARTESIAN COORDINATES (A.U.)
----------------------------
  NO LB      ZA    FRAG     MASS         X           Y           Z
   0 C     6.0000    0    12.011   -0.814961    0.017418    0.056565
   1 H     1.0000    0     1.008    4.018580    0.024491    0.057580
   2 C     6.0000    0    12.011    4.661066    0.019020    2.000972
   3 C     6.0000    0    12.011    3.511928   -2.138633    3.440129
   4 C     6.0000    0    12.011    1.182806   -3.036113    3.110809
   5 C     6.0000    0    12.011   -0.620722   -2.235508    1.154197
   6 H     1.0000    0     1.008   -2.075983    0.315335   -1.501588
   7 H     1.0000    0     1.008    0.255179    1.630365    0.645445
   8 H     1.0000    0     1.008    4.101738    1.816318    2.823030
   9 H     1.0000    0     1.008    6.702464   -0.054468    2.009440
  10 H     1.0000    0     1.008    4.698995   -3.033286    4.829214
  11 H     1.0000    0     1.008    0.583903   -4.600903    4.266232
  12 H     1.0000    0     1.008   -1.861639   -3.713104    0.508202

--------------------------------
INTERNAL COORDINATES (ANGSTROEM)
--------------------------------
 C      0   0   0     0.000000000000     0.00000000     0.00000000
 H      1   0   0     2.557802795060     0.00000000     0.00000000
 C      2   1   0     1.083146067872   108.30560539     0.00000000
 C      3   2   1     1.501144353927   110.88922770    54.26101034
 C      4   3   2     1.332300645561   125.41712271   324.55167872
 C      1   2   3     1.330141452306    85.63814432   296.16086039
 H      1   2   3     1.072386604140   128.47742824   169.29752461
 H      1   2   3     1.070662954223    57.98467017    70.12120669
 H      3   2   1     1.086928697925   106.98846362   293.54582220
 H      3   2   1     1.080970019948   108.52487577   177.73798537
 H      4   3   2     1.076597929891   116.39150439   143.65509624
 H      5   4   3     1.077009682339   118.16667111   179.87214312
 H      6   1   2     1.076777998494   117.71616135   222.92580201

---------------------------
INTERNAL COORDINATES (A.U.)
---------------------------
 C      0   0   0     0.000000000000     0.00000000     0.00000000
 H      1   0   0     4.833546787242     0.00000000     0.00000000
 C      2   1   0     2.046849431312   108.30560539     0.00000000
 C      3   2   1     2.836751716404   110.88922770    54.26101034
 C      4   3   2     2.517683348156   125.41712271   324.55167872
 C      1   2   3     2.513603064234    85.63814432   296.16086039
 H      1   2   3     2.026516991510   128.47742824   169.29752461
 H      1   2   3     2.023259765216    57.98467017    70.12120669
 H      3   2   1     2.053997566178   106.98846362   293.54582220
 H      3   2   1     2.042737296681   108.52487577   177.73798537
 H      4   3   2     2.034475243840   116.39150439   143.65509624
 H      5   4   3     2.035253343203   118.16667111   179.87214312
 H      6   1   2     2.034815524186   117.71616135   222.92580201

---------------------
BASIS SET INFORMATION
---------------------
There are 2 groups of distinct atoms

 Group   1 Type C   : 10s4p contracted to 3s2p pattern {631/31}
 Group   2 Type H   : 4s contracted to 2s pattern {31}

Atom   0C    basis set group =>   1
Atom   1H    basis set group =>   2
Atom   2C    basis set group =>   1
Atom   3C    basis set group =>   1
Atom   4C    basis set group =>   1
Atom   5C    basis set group =>   1
Atom   6H    basis set group =>   2
Atom   7H    basis set group =>   2
Atom   8H    basis set group =>   2
Atom   9H    basis set group =>   2
Atom  10H    basis set group =>   2
Atom  11H    basis set group =>   2
Atom  12H    basis set group =>   2


           ************************************************************
           *        Program running with 8 parallel MPI-processes     *
           *              working on a common directory               *
           ************************************************************
------------------------------------------------------------------------------
                             ORCA STARTUP CALCULATIONS
------------------------------------------------------------------------------
------------------------------------------------------------------------------
                   ___                                                        
                  /   \      - P O W E R E D   B Y -                         
                 /     \                                                     
                 |  |  |   _    _      __       _____    __    __             
                 |  |  |  | |  | |    /  \     |  _  \  |  |  /  |          
                  \  \/   | |  | |   /    \    | | | |  |  | /  /          
                 / \  \   | |__| |  /  /\  \   | |_| |  |  |/  /          
                |  |  |   |  __  | /  /__\  \  |    /   |      \           
                |  |  |   | |  | | |   __   |  |    \   |  |\   \          
                \     /   | |  | | |  |  |  |  | |\  \  |  | \   \       
                 \___/    |_|  |_| |__|  |__|  |_| \__\ |__|  \__/        
                                                                              
                      - O R C A' S   B I G   F R I E N D -                    
                                      &                                       
                       - I N T E G R A L  F E E D E R -                       
                                                                              
 v1 FN, 2020, v2 2021, v3 2022-2024                                           
------------------------------------------------------------------------------


----------------------
SHARK INTEGRAL PACKAGE
----------------------

Number of atoms                             ...     13
Number of basis functions                   ...     61
Number of shells                            ...     41
Maximum angular momentum                    ...      1
Integral batch strategy                     ... SHARK/LIBINT Hybrid
RI-J (if used) integral strategy            ... SPLIT-RIJ (Revised 2003 algorithm where possible)
Printlevel                                  ...      1
Contraction scheme used                     ... SEGMENTED contraction
Prescreening option                         ... SCHWARTZ
   Thresh                                   ... 1.000e-10
   Tcut                                     ... 1.000e-11
   Tpresel                                  ... 1.000e-11 
Coulomb Range Separation                    ... NOT USED
Exchange Range Separation                   ... NOT USED
Multipole approximations                    ... NOT USED
Finite Nucleus Model                        ... NOT USED
CABS basis                                  ... NOT available
Auxiliary Coulomb fitting basis             ... NOT available
Auxiliary J/K fitting basis                 ... NOT available
Auxiliary Correlation fitting basis         ... NOT available
Auxiliary 'external' fitting basis          ... NOT available

Checking pre-screening integrals            ... done (  0.0 sec) Dimension = 41
   => SHARK Basis and OBASIS are compatible. Storing Pre-screening
Shell pair information
Shell pair cut-off parameter TPreSel        ...   1.0e-11
Total number of shell pairs                 ...       861
Shell pairs after pre-screening             ...       846
Total number of primitive shell pairs       ...      5382
Primitive shell pairs kept                  ...      3730
          la=0 lb=0:    481 shell pairs
          la=1 lb=0:    310 shell pairs
          la=1 lb=1:     55 shell pairs

Checking whether 4 symmetric matrices of dimension 61 fit in memory
:Max Core in MB      =   1200.00
 MB in use           =      2.04
 MB left             =   1197.96
 MB needed           =      0.06
 Data fit in memory  = YES
Calculating Nuclear repulsion               ... done (  0.0 sec) ENN=    160.707515010494 Eh

Diagonalization of the overlap matrix:
Smallest eigenvalue                        ... 3.367e-03
Time for diagonalization                   ...    0.001 sec
Threshold for overlap eigenvalues          ... 1.000e-07
Number of eigenvalues below threshold      ... 0
Time for construction of square roots      ...    0.000 sec
Total time needed                          ...    0.001 sec

-------------------
DFT GRID GENERATION
-------------------

General Integration Accuracy     IntAcc      ... 4.388
Radial Grid Type                 RadialGrid  ... OptM3 with GC (2021)
Angular Grid (max. ang.)         AngularGrid ... 4 (Lebedev-302)
Angular grid pruning method      GridPruning ... 4 (adaptive)
Weight generation scheme         WeightScheme... mBecke (2022)
Basis function cutoff            BFCut       ... 1.0000e-10
Integration weight cutoff        WCut        ... 1.0000e-14
Partially contracted basis set               ... off
Rotationally invariant grid construction     ... off
Angular grids for H and He will be reduced by one unit

Total number of grid points                  ...    56072
Total number of batches                      ...      883
Average number of points per batch           ...       63
Average number of grid points per atom       ...     4313
Grids setup in   0.3 sec
Initializing property integral containers    ... done (  0.0 sec)

SHARK setup successfully completed in   0.3 seconds

Maximum memory used throughout the entire STARTUP-calculation: 11.9 MB


           ************************************************************
           *        Program running with 8 parallel MPI-processes     *
           *              working on a common directory               *
           ************************************************************
-------------------------------------------------------------------------------
                                 ORCA GUESS
                   Start orbitals & Density for SCF / CASSCF
-------------------------------------------------------------------------------

------------
SCF SETTINGS
------------
Hamiltonian:
 Ab initio Hamiltonian  Method          .... Hartree-Fock(GTOs)


General Settings:
 Integral files         IntName         .... h-shift_078
 Hartree-Fock type      HFTyp           .... RHF
 Total Charge           Charge          ....    0
 Multiplicity           Mult            ....    1
 Number of Electrons    NEL             ....   38
 Basis Dimension        Dim             ....   61
 Nuclear Repulsion      ENuc            ....    160.7075150105 Eh

Convergence Acceleration:
 AO-DIIS                CNVDIIS         .... on
   Start iteration      DIISMaxIt       ....    12
   Startup error        DIISStart       ....  0.200000
   # of expansion vecs  DIISMaxEq       ....     5
   Bias factor          DIISBfac        ....   1.050
   Max. coefficient     DIISMaxC        ....  10.000
 MO-DIIS                CNVKDIIS        .... off
 Trust-Rad. Augm. Hess. CNVTRAH         .... auto
   Auto Start mean grad. ratio tolernc. ....  1.125000
   Auto Start start iteration           ....    50
   Auto Start num. interpolation iter.  ....    10
   Max. Number of Micro iterations      ....    24
   Max. Number of Macro iterations      .... Maxiter - #DIIS iter
   Number of Davidson start vectors     ....     2
   Converg. threshold    (grad. norm)   ....   5.000e-05
   Grad. Scal. Fac. for Micro threshold ....   0.100
   Minimum threshold for Micro iter.    ....   1.000e-02
   NR start threshold (gradient norm)   ....   1.000e-04
   Initial trust radius                 ....   0.400
   Minimum AH scaling param. (alpha)    ....   1.000
   Maximum AH scaling param. (alpha)    .... 1000.000
   Quad. conv. algorithm                .... NR
   White noise on init. David. guess    .... on
   Maximum white noise                  ....   0.010
   Pseudo random numbers                .... off
   Inactive MOs                         .... canonical
   Orbital update algorithm             .... Taylor
   Preconditioner                       .... Diag
   Full preconditioner red. dimension   ....   250
 SOSCF                 CNVSOSCF           .... on
   Start iteration     SOSCFMaxIt         ....   150
   Startup grad/error  SOSCFStart         ....  0.003300
   Hessian update      SOSCFHessUp        .... L-BFGS
   Autom. constraints  SOSCFAutoConstrain .... off
 Level Shifting         CNVShift        .... on
   Level shift para.    LevelShift      ....    0.2500
   Turn off err/grad.   ShiftErr        ....    0.0010
 Zerner damping         CNVZerner       .... off
 Static damping         CNVDamp         .... on
   Fraction old density DampFac         ....    0.7000
   Max. Damping (<1)    DampMax         ....    0.9800
   Min. Damping (>=0)   DampMin         ....    0.0000
   Turn off err/grad.   DampErr         ....    0.1000

SCF Procedure:
 Maximum # iterations   MaxIter         ....   125
 SCF integral mode      SCFMode         .... Direct
   Integral package                     .... SHARK and LIBINT hybrid scheme
 Reset frequency        DirectResetFreq ....    20
 Integral Threshold     Thresh          ....  1.000e-10 Eh
 Primitive CutOff       TCut            ....  1.000e-11 Eh

Convergence Tolerance:
 Convergence Check Mode ConvCheckMode   .... Total+1el-Energy
 Convergence forced     ConvForced      .... 0
 Energy Change          TolE            ....  1.000e-06 Eh
 1-El. energy change                    ....  1.000e-03 Eh
 Orbital Gradient       TolG            ....  5.000e-05
 Orbital Rotation angle TolX            ....  5.000e-05
 DIIS Error             TolErr          ....  1.000e-06

------------------------------
INITIAL GUESS: MODEL POTENTIAL
------------------------------
Loading Hartree-Fock densities                     ... done
Calculating cut-offs                               ... done
Initializing the effective Hamiltonian             ... done
Setting up the integral package (SHARK)            ... done
Starting the Coulomb interaction                   ... done (   0.0 sec)
Making the grid                                    ... done (   0.1 sec)
Mapping shells                                     ... done
Starting the XC term evaluation                    ... done (   0.0 sec)
Transforming the Hamiltonian                       ... done (   0.0 sec)
Diagonalizing the Hamiltonian                      ... done (   0.0 sec)
Back transforming the eigenvectors                 ... done (   0.0 sec)
Now organizing SCF variables                       ... done
                      ------------------
                      INITIAL GUESS DONE (   0.1 sec)
                      ------------------
             **** ENERGY FILE WAS UPDATED (h-shift_078.en.tmp) ****
Finished Guess after   0.3 sec
Maximum memory used throughout the entire GUESS-calculation: 4.2 MB


           ************************************************************
           *        Program running with 8 parallel MPI-processes     *
           *              working on a common directory               *
           ************************************************************

-------------------------------------------------------------------------------------------
                                      ORCA LEAN-SCF
                              memory conserving SCF solver
-------------------------------------------------------------------------------------------

----------------------------------------D-I-I-S--------------------------------------------
Iteration    Energy (Eh)           Delta-E    RMSDP     MaxDP     DIISErr   Damp  Time(sec)
-------------------------------------------------------------------------------------------
               ***  Starting incremental Fock matrix formation  ***
    1    -193.6460948884305253     0.00e+00  1.57e-02  5.22e-02  1.82e-01  0.700   0.0
    2    -193.7271218198018232    -8.10e-02  1.25e-02  3.95e-02  1.20e-01  0.700   0.0
                               ***Turning on AO-DIIS***
    3    -193.7772196523466164    -5.01e-02  7.70e-03  2.01e-02  7.17e-02  0.700   0.0
    4    -193.8088763253949764    -3.17e-02  1.83e-02  4.39e-02  4.86e-02  0.000   0.0
                              *** Initializing SOSCF ***
---------------------------------------S-O-S-C-F--------------------------------------
Iteration    Energy (Eh)           Delta-E    RMSDP     MaxDP     MaxGrad    Time(sec)
--------------------------------------------------------------------------------------
    5    -193.8773527207144411    -6.85e-02  1.69e-03  2.69e-03  2.16e-03     0.0
               *** Restarting incremental Fock matrix formation ***
    6    -193.8774727936021236    -1.20e-04  8.65e-04  1.43e-03  1.34e-03     0.0
    7    -193.8775079081774493    -3.51e-05  5.36e-04  1.10e-03  5.44e-04     0.0
    8    -193.8775146375310214    -6.73e-06  7.05e-05  2.02e-04  1.34e-04     0.0
    9    -193.8775148519167146    -2.14e-07  3.20e-05  9.54e-05  3.32e-05     0.0
                 **** Energy Check signals convergence ****

               *****************************************************
               *                     SUCCESS                       *
               *           SCF CONVERGED AFTER   9 CYCLES          *
               *****************************************************

             **** ENERGY FILE WAS UPDATED (h-shift_078.en.tmp) ****

----------------
TOTAL SCF ENERGY
----------------

Total Energy       :       -193.87751490813952 Eh           -5275.67539 eV

Components:
Nuclear Repulsion  :        160.70751501049386 Eh            4373.07381 eV
Electronic Energy  :       -354.58502991863338 Eh           -9648.74920 eV
One Electron Energy:       -578.37594305168818 Eh          -15738.40954 eV
Two Electron Energy:        223.79091313305480 Eh            6089.66034 eV

Virial components:
Potential Energy   :       -388.04293254285744 Eh          -10559.18501 eV
Kinetic Energy     :        194.16541763471795 Eh            5283.50962 eV
Virial Ratio       :          1.99851722963808

---------------
SCF CONVERGENCE
---------------

  Last Energy change         ...    2.1439e-07  Tolerance :   1.0000e-06
  Last MAX-Density change    ...    9.5439e-05  Tolerance :   1.0000e-05
  Last RMS-Density change    ...    3.1974e-05  Tolerance :   1.0000e-06
  Last DIIS Error            ...    2.1632e-03  Tolerance :   1.0000e-06
  Last Orbital Gradient      ...    3.3250e-05  Tolerance :   5.0000e-05
  Last Orbital Rotation      ...    3.2761e-05  Tolerance :   5.0000e-05


----------------
ORBITAL ENERGIES
----------------

  NO   OCC          E(Eh)            E(eV) 
   0   2.0000     -11.236019      -305.7476 
   1   2.0000     -11.235486      -305.7331 
   2   2.0000     -11.227446      -305.5143 
   3   2.0000     -11.221533      -305.3534 
   4   2.0000     -11.215268      -305.1830 
   5   2.0000      -1.100268       -29.9398 
   6   2.0000      -1.021254       -27.7897 
   7   2.0000      -0.941078       -25.6080 
   8   2.0000      -0.813969       -22.1492 
   9   2.0000      -0.717056       -19.5121 
  10   2.0000      -0.667170       -18.1546 
  11   2.0000      -0.603795       -16.4301 
  12   2.0000      -0.584867       -15.9150 
  13   2.0000      -0.567320       -15.4376 
  14   2.0000      -0.541104       -14.7242 
  15   2.0000      -0.507101       -13.7989 
  16   2.0000      -0.468890       -12.7591 
  17   2.0000      -0.411722       -11.2035 
  18   2.0000      -0.315713        -8.5910 
  19   0.0000       0.132880         3.6158 
  20   0.0000       0.232629         6.3301 
  21   0.0000       0.253413         6.8957 
  22   0.0000       0.265074         7.2130 
  23   0.0000       0.291815         7.9407 
  24   0.0000       0.320146         8.7116 
  25   0.0000       0.336837         9.1658 
  26   0.0000       0.347189         9.4475 
  27   0.0000       0.358567         9.7571 
  28   0.0000       0.368064        10.0155 
  29   0.0000       0.428833        11.6691 
*Only the first 10 virtual orbitals were printed.

                    ********************************
                    * MULLIKEN POPULATION ANALYSIS *
                    ********************************

-----------------------
MULLIKEN ATOMIC CHARGES
-----------------------
   0 C :   -0.362234
   1 H :    0.181572
   2 C :   -0.508964
   3 C :   -0.148265
   4 C :   -0.196683
   5 C :   -0.151584
   6 H :    0.161913
   7 H :    0.171688
   8 H :    0.170646
   9 H :    0.159360
  10 H :    0.174112
  11 H :    0.174955
  12 H :    0.173485
Sum of atomic charges:   -0.0000000

--------------------------------
MULLIKEN REDUCED ORBITAL CHARGES
--------------------------------
  0 C s       :     3.266355  s :     3.266355
      pz      :     1.043024  p :     3.095879
      px      :     1.057382
      py      :     0.995473

  1 H s       :     0.818428  s :     0.818428

  2 C s       :     3.366520  s :     3.366520
      pz      :     1.064642  p :     3.142444
      px      :     1.080054
      py      :     0.997748

  3 C s       :     3.210441  s :     3.210441
      pz      :     0.996499  p :     2.937824
      px      :     0.982209
      py      :     0.959117

  4 C s       :     3.193394  s :     3.193394
      pz      :     1.000277  p :     3.003289
      px      :     0.938439
      py      :     1.064573

  5 C s       :     3.194563  s :     3.194563
      pz      :     0.942520  p :     2.957021
      px      :     1.019289
      py      :     0.995213

  6 H s       :     0.838087  s :     0.838087

  7 H s       :     0.828312  s :     0.828312

  8 H s       :     0.829354  s :     0.829354

  9 H s       :     0.840640  s :     0.840640

 10 H s       :     0.825888  s :     0.825888

 11 H s       :     0.825045  s :     0.825045

 12 H s       :     0.826515  s :     0.826515



                     *******************************
                     * LOEWDIN POPULATION ANALYSIS *
                     *******************************

----------------------
LOEWDIN ATOMIC CHARGES
----------------------
   0 C :   -0.246238
   1 H :    0.124530
   2 C :   -0.319270
   3 C :   -0.107567
   4 C :   -0.149649
   5 C :   -0.113987
   6 H :    0.116203
   7 H :    0.117503
   8 H :    0.117157
   9 H :    0.111014
  10 H :    0.116433
  11 H :    0.117298
  12 H :    0.116572

-------------------------------
LOEWDIN REDUCED ORBITAL CHARGES
-------------------------------
  0 C s       :     2.988342  s :     2.988342
      pz      :     1.075745  p :     3.257896
      px      :     1.074984
      py      :     1.107167

  1 H s       :     0.875470  s :     0.875470

  2 C s       :     2.976095  s :     2.976095
      pz      :     1.127706  p :     3.343175
      px      :     1.122433
      py      :     1.093036

  3 C s       :     2.951581  s :     2.951581
      pz      :     1.033181  p :     3.155986
      px      :     1.090589
      py      :     1.032216

  4 C s       :     2.940522  s :     2.940522
      pz      :     1.053336  p :     3.209127
      px      :     1.085203
      py      :     1.070588

  5 C s       :     2.944994  s :     2.944994
      pz      :     1.024259  p :     3.168993
      px      :     1.034650
      py      :     1.110084

  6 H s       :     0.883797  s :     0.883797

  7 H s       :     0.882497  s :     0.882497

  8 H s       :     0.882843  s :     0.882843

  9 H s       :     0.888986  s :     0.888986

 10 H s       :     0.883567  s :     0.883567

 11 H s       :     0.882702  s :     0.882702

 12 H s       :     0.883428  s :     0.883428



                      *****************************
                      * MAYER POPULATION ANALYSIS *
                      *****************************

  NA   - Mulliken gross atomic population
  ZA   - Total nuclear charge
  QA   - Mulliken gross atomic charge
  VA   - Mayer's total valence
  BVA  - Mayer's bonded valence
  FA   - Mayer's free valence

  ATOM       NA         ZA         QA         VA         BVA        FA
  0 C      6.3622     6.0000    -0.3622     3.8459     3.8459    -0.0000
  1 H      0.8184     1.0000     0.1816     0.9307     0.9307    -0.0000
  2 C      6.5090     6.0000    -0.5090     3.7716     3.7716    -0.0000
  3 C      6.1483     6.0000    -0.1483     3.7673     3.7673    -0.0000
  4 C      6.1967     6.0000    -0.1967     3.8245     3.8245    -0.0000
  5 C      6.1516     6.0000    -0.1516     3.8083     3.8083    -0.0000
  6 H      0.8381     1.0000     0.1619     0.9439     0.9439     0.0000
  7 H      0.8283     1.0000     0.1717     0.9390     0.9390    -0.0000
  8 H      0.8294     1.0000     0.1706     0.9223     0.9223    -0.0000
  9 H      0.8406     1.0000     0.1594     0.9324     0.9324    -0.0000
 10 H      0.8259     1.0000     0.1741     0.9387     0.9387    -0.0000
 11 H      0.8250     1.0000     0.1750     0.9387     0.9387    -0.0000
 12 H      0.8265     1.0000     0.1735     0.9372     0.9372    -0.0000

  Mayer bond orders larger than 0.100000
B(  0-C ,  5-C ) :   1.8804 B(  0-C ,  6-H ) :   0.9628 B(  0-C ,  7-H ) :   0.9616 
B(  1-H ,  2-C ) :   0.9437 B(  2-C ,  3-C ) :   0.9583 B(  2-C ,  8-H ) :   0.9452 
B(  2-C ,  9-H ) :   0.9596 B(  3-C ,  4-C ) :   1.8829 B(  3-C , 10-H ) :   0.9578 
B(  4-C ,  5-C ) :   1.0453 B(  4-C , 11-H ) :   0.9565 B(  5-C , 12-H ) :   0.9575 


-------
TIMINGS
-------

Total SCF time: 0 days 0 hours 0 min 0 sec 

Total time                  ....       0.635 sec
Sum of individual times     ....       0.592 sec  ( 93.2%)

SCF preparation             ....       0.256 sec  ( 40.2%)
Fock matrix formation       ....       0.282 sec  ( 44.4%)
  Startup                   ....       0.001 sec  (  0.5% of F)
  Coulomb+Exchange Fock     ....       0.301 sec  (106.7% of F)
Diagonalization             ....       0.000 sec  (  0.0%)
Density matrix formation    ....       0.008 sec  (  1.2%)
Total Energy calculation    ....       0.005 sec  (  0.7%)
Population analysis         ....       0.004 sec  (  0.7%)
Orbital Transformation      ....       0.005 sec  (  0.7%)
Orbital Orthonormalization  ....       0.000 sec  (  0.0%)
DIIS solution               ....       0.020 sec  (  3.1%)
SOSCF solution              ....       0.013 sec  (  2.1%)
Finished LeanSCF after   0.6 sec

Maximum memory used throughout the entire LEANSCF-calculation: 6.4 MB

-------------------------   --------------------
FINAL SINGLE POINT ENERGY      -193.877514908140
-------------------------   --------------------



           ************************************************************
           *        Program running with 8 parallel MPI-processes     *
           *              working on a common directory               *
           ************************************************************

------------------------------------------------------------------------------
                              ORCA PROPERTY CALCULATIONS
------------------------------------------------------------------------------

GBWName                                 ... h-shift_078.gbw
Number of atoms                         ...     13
Number of basis functions               ...     61
Max core memory                         ...   1200 MB

Electric properties:
Dipole moment                           ... YES
Quadrupole moment                       ...  NO
Static polarizability (Dipole/Dipole)   ...  NO
Static polarizability (Dipole/Quad.)    ...  NO
Static polarizability (Quad./Quad.)     ...  NO
Static polarizability (Velocity)        ...  NO
Static hyperpolarizability              ...  NO

Atomic electric properties:
Dipole moment                           ...  NO
Quadrupole moment                       ...  NO
Static polarizability                   ...  NO

Choice of electric origin               ... Center of mass
Position of electric origin             ...     1.639530    -1.412867     1.923195

General magnetic properties:
Magnetizability                         ...  NO

EPR properties:
g-Tensor (aka g-matrix)                 ...  NO
Zero-Field splitting spin-orbit         ...  NO
Zero-field splitting spin-spin          ...  NO
Hyperfine couplings                     ...  NO (   0 nuclei)
Quadrupole couplings                    ...  NO (   0 nuclei)
Contact density                         ...  NO (   0 nuclei)

NMR properties:
Chemical shifts                         ...  NO (   0 nuclei)
Spin-rotation constants                 ...  NO (   0 nuclei)
Spin-spin couplings                     ...  NO (   0 nuclei,    0 pairs)

Choice of magnetic origin               ... GIAO
Position of magnetic origin             ...     0.000000     0.000000     0.000000

Properties with geometric perturbations:
SCF Hessian                             ...  NO
IR spectrum                             ...  NO
VCD spectrum                            ...  NO
X-ray spectroscopy properties:
SCF XES/XAS/RIXS spectra                ...  NO

SCF SOC stabilization energy            ...  NO
Diagonal Born-Oppenheimer correction    ...  NO

-------------
DIPOLE MOMENT
-------------

Method             : SCF
Type of density    : Electron Density
Multiplicity       :   1
Irrep              :   0
Energy             :  -193.8775149081395170 Eh
Basis              : AO
                                X                 Y                 Z
Electronic contribution:     -1.520921778      -1.817106889       0.846803108
Nuclear contribution   :      1.641796655       1.830793548      -0.867816705
                        -----------------------------------------
Total Dipole Moment    :      0.120874876       0.013686658      -0.021013597
                        -----------------------------------------
Magnitude (a.u.)       :      0.123448903
Magnitude (Debye)      :      0.313782174



--------------------
Rotational spectrum 
--------------------
 
Rotational constants in cm-1:             0.286835             0.138943             0.096899 
Rotational constants in MHz :          8599.091202          4165.419588          2904.950239 

Dipole components along the rotational axes: 
x,y,z [a.u.] :     0.102455     0.047935     0.049446 
x,y,z [Debye]:     0.260419     0.121840     0.125682 

 

Dipole moment calculation done in   0.0 sec 

Maximum memory used throughout the entire PROP-calculation: 2.2 MB

--------------------------------
SUGGESTED CITATIONS FOR THIS RUN
--------------------------------

Below you find a list of papers that are relevant to this ORCA run
We neither can nor want to force you to cite these papers, but we appreciate if you do
You receive ORCA, which is the product of decades of hard work by many enthusiastic individuals, for free
The only thing we kindly ask in return is that you cite our papers,
We deeply appreciate it, if you show your appreciation for ORCA by not just citing the generic ORCA reference.

Please note that relegating all ORCA citations to the supporting information does *not* help us.
SI sections are not indexed - citations you put there will not count into any citation statistics
But we need these citations in order to attract the funding resources that allow us to do what we are doing

Therefore, if you are a happy ORCA user, please consider citing a few of the papers listed below in the main body of your paper

In addition to the list printed below, the program has created the file h-shift_078.bibtex that contains the list in bibtex format
You can import this file easily into all common literature databanks and citation aid programs


List of essential papers. We consider these as the minimum necessary citations

  1. Neese, F.
     Software update: the ORCA program system, version 6.0
     WIRES Comput. Molec. Sci. 2025 15(1), e70019
     doi.org/10.1002/wcms.7019

List of papers to cite with high priority. The work reported in these papers was absolutely
necessary for this run to complete.
Our perspective: the developers of density functionals and basis sets usually get cited in chemistry papers
Good! But without the algorithms to do something with them, the functionals or basis sets would not do anything.
Hence, in our opinion, the algorithm design and method developments papers are equally worthy of getting cited

  1. Neese, F.
     The SHARK Integral Generation and Digestion System
     J. Comp. Chem. 2022 44(3), 381
     doi.org/10.1002/jcc.26942

List of suggested additional citations. These are papers that are important in the 'surrounding' of 
of this run, or papers that preceded the highly important papers. If you like your results we are grateful for a citation.

  1. Neese, F.
     The ORCA program system
     WIRES Comput. Molec. Sci. 2012 2(1), 73-78
     doi.org/10.1002/wcms.81
  2. Neese, F.
     Software update: the ORCA program system, version 4.0
     WIRES Comput. Molec. Sci. 2018 8(1), 1-6
     doi.org/10.1002/wcms.1327
  3. Neese, F.; Wennmohs, F.; Becker, U.; Riplinger, C.
     The ORCA quantum chemistry program package
     J. Chem. Phys. 2020 152(22), 224108
     doi.org/10.1063/5.0004608
  4. Neese, F.
     Software update: The ORCA program system—Version 5.0
     WIRES Comput. Molec. Sci. 2022 12(1), e1606
     doi.org/10.1002/wcms.1606

List of optional additional citations

  1. Neese, F.
     Approximate second-order SCF convergence for spin unrestricted wavefunctions
     Chem. Phys. Lett. 2000 325(1-3), 93-98
     doi.org/10.1016/s0009-2614(00)00662-x

Timings for individual modules:

Sum of individual times          ...        2.262 sec (=   0.038 min)
Startup calculation              ...        0.666 sec (=   0.011 min)  29.5 %
SCF iterations                   ...        1.209 sec (=   0.020 min)  53.5 %
Property calculations            ...        0.386 sec (=   0.006 min)  17.1 %
                             ****ORCA TERMINATED NORMALLY****
TOTAL RUN TIME: 0 days 0 hours 0 minutes 2 seconds 755 msec
