[Molden Format]
[Title]
 Molden file created by orca_2mkl for BaseName=h-shift_027

[Atoms] AU
C    1   6          0.0556675525         0.0218206677        -0.2546254787 
H    2   1          2.0144045951         0.0142296378        -0.8472643813 
C    3   6          4.8068018805         0.0350544198         2.8117178455 
C    4   6          3.8092230134        -2.1910694221         3.4291386166 
C    5   6          1.1712881626        -3.0278458234         3.1895723654 
C    6   6         -0.4535871845        -2.1760064151         1.4614442721 
H    7   1         -1.1272707718         0.0194018182        -1.9167926813 
H    8   1         -0.2531004697         1.7938149737         0.7368382347 
H    9   1          3.7019375916         1.6644877863         2.3524217984 
H   10   1          6.8150421890         0.2802501651         2.7048160381 
H   11   1          5.0850886202        -3.6616372920         4.0153448914 
H   12   1          0.6292882512        -4.6171243993         4.3384559350 
H   13   1         -2.2254529891        -3.1447726280         1.2233028744 
[GTO]
  1 0
s   6 1.0 
     3047.5249000000         0.5363343823
      457.3695100000         0.9894506076
      103.9486900000         1.5972822308
       29.2101550000         2.0791870615
        9.2866630000         1.7741742532
        3.1639270000         0.6125798260
s   3 1.0 
        7.8682724000        -0.3995563516
        1.8812885000        -0.1841552393
        0.5442493000         0.5163903794
p   3 1.0 
        7.8682724000         1.2960827175
        1.8812885000         0.9937536282
        0.5442493000         0.4959527138
s   1 1.0 
        0.1687144000         0.1876178721
p   1 1.0 
        0.1687144000         0.1541275509

  2 0
s   3 1.0 
       18.7311370000         0.2149354183
        2.8253937000         0.3645711272
        0.6401217000         0.4150514277
s   1 1.0 
        0.1612778000         0.1813806839

  3 0
s   6 1.0 
     3047.5249000000         0.5363343823
      457.3695100000         0.9894506076
      103.9486900000         1.5972822308
       29.2101550000         2.0791870615
        9.2866630000         1.7741742532
        3.1639270000         0.6125798260
s   3 1.0 
        7.8682724000        -0.3995563516
        1.8812885000        -0.1841552393
        0.5442493000         0.5163903794
p   3 1.0 
        7.8682724000         1.2960827175
        1.8812885000         0.9937536282
        0.5442493000         0.4959527138
s   1 1.0 
        0.1687144000         0.1876178721
p   1 1.0 
        0.1687144000         0.1541275509

  4 0
s   6 1.0 
     3047.5249000000         0.5363343823
      457.3695100000         0.9894506076
      103.9486900000         1.5972822308
       29.2101550000         2.0791870615
        9.2866630000         1.7741742532
        3.1639270000         0.6125798260
s   3 1.0 
        7.8682724000        -0.3995563516
        1.8812885000        -0.1841552393
        0.5442493000         0.5163903794
p   3 1.0 
        7.8682724000         1.2960827175
        1.8812885000         0.9937536282
        0.5442493000         0.4959527138
s   1 1.0 
        0.1687144000         0.1876178721
p   1 1.0 
        0.1687144000         0.1541275509

  5 0
s   6 1.0 
     3047.5249000000         0.5363343823
      457.3695100000         0.9894506076
      103.9486900000         1.5972822308
       29.2101550000         2.0791870615
        9.2866630000         1.7741742532
        3.1639270000         0.6125798260
s   3 1.0 
        7.8682724000        -0.3995563516
        1.8812885000        -0.1841552393
        0.5442493000         0.5163903794
p   3 1.0 
        7.8682724000         1.2960827175
        1.8812885000         0.9937536282
        0.5442493000         0.4959527138
s   1 1.0 
        0.1687144000         0.1876178721
p   1 1.0 
        0.1687144000         0.1541275509

  6 0
s   6 1.0 
     3047.5249000000         0.5363343823
      457.3695100000         0.9894506076
      103.9486900000         1.5972822308
       29.2101550000         2.0791870615
        9.2866630000         1.7741742532
        3.1639270000         0.6125798260
s   3 1.0 
        7.8682724000        -0.3995563516
        1.8812885000        -0.1841552393
        0.5442493000         0.5163903794
p   3 1.0 
        7.8682724000         1.2960827175
        1.8812885000         0.9937536282
        0.5442493000         0.4959527138
s   1 1.0 
        0.1687144000         0.1876178721
p   1 1.0 
        0.1687144000         0.1541275509

  7 0
s   3 1.0 
       18.7311370000         0.2149354183
        2.8253937000         0.3645711272
        0.6401217000         0.4150514277
s   1 1.0 
        0.1612778000         0.1813806839

  8 0
s   3 1.0 
       18.7311370000         0.2149354183
        2.8253937000         0.3645711272
        0.6401217000         0.4150514277
s   1 1.0 
        0.1612778000         0.1813806839

  9 0
s   3 1.0 
       18.7311370000         0.2149354183
        2.8253937000         0.3645711272
        0.6401217000         0.4150514277
s   1 1.0 
        0.1612778000         0.1813806839

 10 0
s   3 1.0 
       18.7311370000         0.2149354183
        2.8253937000         0.3645711272
        0.6401217000         0.4150514277
s   1 1.0 
        0.1612778000         0.1813806839

 11 0
s   3 1.0 
       18.7311370000         0.2149354183
        2.8253937000         0.3645711272
        0.6401217000         0.4150514277
s   1 1.0 
        0.1612778000         0.1813806839

 12 0
s   3 1.0 
       18.7311370000         0.2149354183
        2.8253937000         0.3645711272
        0.6401217000         0.4150514277
s   1 1.0 
        0.1612778000         0.1813806839

 13 0
s   3 1.0 
       18.7311370000         0.2149354183
        2.8253937000         0.3645711272
        0.6401217000         0.4150514277
s   1 1.0 
        0.1612778000         0.1813806839

[5D]
[7F]
[9G]
[MO]
 Sym=     1a
 Ene= -1.12360802551824E+01
 Spin= Alpha
 Occup= 2.000000
  1      -0.009722407839
  2       0.000039897692
  3      -0.000019630501
  4      -0.000145984605
  5       0.000065098251
  6      -0.002376018242
  7       0.000308761373
  8       0.001617286431
  9      -0.001088356723
 10       0.000210985808
 11      -0.000597265984
 12      -0.039749559898
 13      -0.000388327458
 14      -0.000086518460
 15      -0.000119273649
 16       0.000076650873
 17      -0.004163278435
 18       0.001528481719
 19       0.001377216987
 20      -0.000425197729
 21      -0.729000000067
 22      -0.018109958413
 23      -0.000071555720
 24      -0.000131759578
 25       0.000067850209
 26       0.012938354020
 27      -0.001063250796
 28       0.001348795470
 29      -0.000776491535
 30      -0.099288203163
 31      -0.001361937776
 32       0.000045704134
 33       0.000132945845
 34      -0.000091132431
 35      -0.006166274175
 36      -0.001032022455
 37      -0.002230451008
 38       0.001464007007
 39      -0.670250876204
 40      -0.016522174463
 41       0.000023597196
 42      -0.000054532066
 43       0.000007031407
 44       0.011573850234
 45       0.001039852993
 46       0.000912827211
 47      -0.000085603431
 48       0.000058656755
 49      -0.000105428634
 50       0.000125847110
 51      -0.000569251528
 52       0.000192791528
 53       0.000417646822
 54       0.000057675028
 55      -0.000412165385
 56       0.000193369743
 57      -0.001565312521
 58       0.000097411747
 59      -0.000793679479
 60       0.000140379725
 61      -0.001704974154
 Sym=     1a
 Ene= -1.12360233685647E+01
 Spin= Alpha
 Occup= 2.000000
  1       0.010931390019
  2       0.000000427262
  3       0.000027280795
  4       0.000080569400
  5       0.000011548767
  6       0.002767253332
  7       0.000234754987
  8      -0.001518051641
  9       0.000920685645
 10      -0.000080410693
 11      -0.000217352407
 12      -0.037436679085
 13      -0.000391441118
 14      -0.000038568817
 15      -0.000139309445
 16       0.000063768188
 17      -0.003391337580
 18       0.001121089729
 19       0.001462034600
 20      -0.000355768552
 21      -0.675182060937
 22      -0.017049076627
 23       0.000165115933
 24      -0.000040176757
 25       0.000127444008
 26       0.011326162932
 27      -0.000638130694
 28       0.000832948394
 29      -0.000514329177
 30       0.041959370671
 31       0.000732374674
 32       0.000212302551
 33      -0.000052028918
 34       0.000147470556
 35       0.001613912221
 36      -0.002252044207
 37       0.000643699400
 38      -0.001903458679
 39       0.730201445624
 40       0.018435707087
 41       0.000256268980
 42       0.000011014523
 43       0.000098455891
 44      -0.012885045123
 45      -0.002137342396
 46      -0.000540692775
 47      -0.000429024166
 48      -0.000064705725
 49       0.000137454004
 50      -0.000160946747
 51       0.000695029800
 52       0.000189346096
 53      -0.000165762358
 54       0.000059394981
 55      -0.000278742338
 56       0.000164090348
 57      -0.001481484847
 58       0.000016056086
 59       0.000342177702
 60      -0.000231427309
 61       0.001224813467
 Sym=     1a
 Ene= -1.12276943140161E+01
 Spin= Alpha
 Occup= 2.000000
  1      -0.003015449268
  2      -0.000073031893
  3       0.000018373685
  4       0.000105514412
  5      -0.000142616333
  6      -0.001710216002
  7      -0.000224627447
  8       0.000650110805
  9      -0.000315923246
 10       0.000049350477
 11       0.000172340698
 12      -0.006820242740
 13      -0.000306611836
 14       0.000154393015
 15       0.000120604810
 16      -0.000060727338
 17      -0.000865501027
 18       0.000035151188
 19      -0.000035658527
 20       0.000261079224
 21      -0.044469156344
 22      -0.001754878300
 23       0.000165101946
 24       0.000039827346
 25       0.000036161841
 26       0.006129728463
 27      -0.002879898185
 28       0.000004597183
 29      -0.000964723225
 30       0.990313250477
 31       0.025150500443
 32       0.000107363318
 33       0.000155713524
 34      -0.000270150666
 35      -0.019570685149
 36      -0.000913720330
 37      -0.002591147396
 38       0.002629390910
 39      -0.098726882304
 40      -0.003485939504
 41      -0.000195853934
 42       0.000024431405
 43      -0.000136620095
 44       0.009373233856
 45       0.003419560067
 46       0.000187787831
 47       0.001564446296
 48       0.000062038882
 49       0.000179261322
 50       0.000010253835
 51      -0.000143417888
 52      -0.000033672493
 53       0.000277544366
 54       0.000049891946
 55       0.000317776580
 56      -0.000077518390
 57       0.000354918235
 58      -0.000294353813
 59       0.001679391978
 60      -0.000015395425
 61       0.000325325781
 Sym=     1a
 Ene= -1.12209892482850E+01
 Spin= Alpha
 Occup= 2.000000
  1       0.000419988629
  2       0.000064574619
  3       0.000018706680
  4       0.000009799659
  5       0.000135901298
  6       0.000017557034
  7       0.000387039926
  8       0.000096994727
  9      -0.000950355435
 10       0.000164243949
 11      -0.001320682323
 12      -0.994620423410
 13      -0.024897249545
 14       0.000103065863
 15       0.000208265727
 16       0.000047733463
 17       0.016729318451
 18      -0.000999580758
 19      -0.001683063388
 20       0.000131691756
 21       0.055427321382
 22       0.002212799522
 23       0.000124971464
 24       0.000282780111
 25      -0.000052760398
 26      -0.006844007862
 27      -0.001172417924
 28      -0.002782047887
 29       0.000806373156
 30      -0.004389616702
 31      -0.000014784353
 32       0.000112665478
 33       0.000081887759
 34       0.000001186522
 35       0.000402412646
 36      -0.000368745869
 37      -0.000051098853
 38      -0.000099606092
 39      -0.000040624692
 40      -0.000051693566
 41       0.000041217259
 42       0.000018523205
 43       0.000013394952
 44       0.000319804007
 45       0.000016814746
 46       0.000482050570
 47      -0.000315925443
 48      -0.000042567072
 49      -0.000345228349
 50       0.000000719446
 51       0.000563360387
 52       0.000110036272
 53      -0.002729128550
 54       0.000208358607
 55      -0.002658976729
 56       0.000115983456
 57       0.000002641838
 58      -0.000038155547
 59      -0.000233719473
 60       0.000009276742
 61       0.000050422400
 Sym=     1a
 Ene= -1.12140665020939E+01
 Spin= Alpha
 Occup= 2.000000
  1      -0.996091600388
  2      -0.026166765062
  3      -0.000003212230
  4       0.000002433759
  5      -0.000115713513
  6       0.019243480323
  7      -0.000029798495
  8      -0.000725192046
  9       0.000893054891
 10      -0.000074557647
 11      -0.003290610828
 12      -0.000417922109
 13       0.000047104256
 14      -0.000152149304
 15       0.000012555565
 16      -0.000001454841
 17      -0.000303029295
 18       0.000883038047
 19       0.000249514281
 20      -0.000128758287
 21      -0.000145094255
 22      -0.000009447917
 23      -0.000051008291
 24       0.000044255947
 25      -0.000042941580
 26       0.000579091418
 27      -0.000013821835
 28       0.000404122581
 29      -0.000169428085
 30      -0.001559354388
 31       0.000166640714
 32      -0.000049916180
 33       0.000089640590
 34      -0.000113981198
 35      -0.000676697756
 36       0.000427828076
 37      -0.000433793352
 38       0.000614748758
 39       0.015017269761
 40       0.000803015764
 41       0.000008401260
 42       0.000106228115
 43      -0.000107677294
 44      -0.004076562356
 45      -0.000102372671
 46      -0.002198539315
 47       0.001966011352
 48      -0.000032203387
 49      -0.003081140523
 50      -0.000074087000
 51      -0.003335725285
 52       0.000038630880
 53       0.000138448619
 54      -0.000073960729
 55      -0.000526942173
 56       0.000023283798
 57       0.000012870386
 58      -0.000034759206
 59      -0.000456570882
 60       0.000142223956
 61      -0.000027175566
 Sym=     1a
 Ene= -1.10198418186371E+00
 Spin= Alpha
 Occup= 2.000000
  1       0.069890334730
  2      -0.129328111224
  3      -0.001769261655
  4       0.032694980591
  5      -0.030250923461
  6      -0.123597815799
  7      -0.008124199336
  8       0.003868108838
  9      -0.011442004230
 10      -0.040152870342
 11      -0.000954177171
 12       0.074622021703
 13      -0.145488547329
 14       0.033924833205
 15       0.055251781256
 16      -0.011269184425
 17      -0.099418992769
 18      -0.000844032399
 19       0.002969183333
 20       0.001613309963
 21       0.109747897863
 22      -0.217530669720
 23       0.032028992481
 24      -0.027401722760
 25       0.022640808794
 26      -0.138281747297
 27       0.006249904624
 28      -0.000046740355
 29       0.003038279174
 30       0.125314119397
 31      -0.247148584734
 32       0.000124417716
 33      -0.040974158102
 34       0.050133456446
 35      -0.163142605630
 36      -0.004001745560
 37      -0.003616029850
 38       0.003668403831
 39       0.113993872616
 40      -0.226363665710
 41      -0.060530402595
 42       0.002805274171
 43      -0.035108448438
 44      -0.136243466533
 45       0.003669382602
 46       0.004228967976
 47      -0.001512445138
 48      -0.032134057829
 49      -0.005635693746
 50      -0.035666133234
 51      -0.000161644080
 52      -0.039535022817
 53      -0.006863237323
 54      -0.032657735049
 55      -0.001393977720
 56      -0.052750888671
 57      -0.008252562241
 58      -0.058000903483
 59      -0.007839927410
 60      -0.052582336623
 61      -0.004078437827
 Sym=     1a
 Ene= -1.01990665315471E+00
 Spin= Alpha
 Occup= 2.000000
  1       0.099140287497
  2      -0.188704917768
  3       0.010817193845
  4       0.031004833601
  5      -0.023743430659
  6      -0.176081388685
  7       0.003129565209
  8       0.001001126015
  9      -0.001713498384
 10      -0.052320715688
 11      -0.005242399082
 12      -0.122488702041
 13       0.240252970371
 14      -0.025714239406
 15      -0.078590115686
 16       0.022462741876
 17       0.186268975213
 18      -0.004378497741
 19      -0.003184584221
 20       0.000924073708
 21      -0.116754204984
 22       0.233166403483
 23       0.055853703099
 24       0.075587332849
 25      -0.017195258483
 26       0.162155250588
 27       0.011698451944
 28      -0.004714985169
 29       0.003752337241
 30       0.020510537170
 31      -0.040724782362
 32       0.096950020354
 33      -0.004780137385
 34       0.053832538985
 35      -0.025155469223
 36       0.013707551833
 37       0.011649327149
 38      -0.001159566662
 39       0.101300950083
 40      -0.201193009930
 41      -0.013512121951
 42      -0.021911444450
 43       0.012952146256
 44      -0.148876252075
 45      -0.003768925004
 46      -0.005717920128
 47       0.003170889953
 48      -0.058833352657
 49      -0.008836897208
 50      -0.057360937802
 51      -0.005469754120
 52       0.061893618870
 53       0.005800195828
 54       0.070295533783
 55       0.016250999535
 56       0.069587338276
 57       0.011884365275
 58      -0.010018442927
 59       0.003724659568
 60      -0.062263983490
 61      -0.016593405078
 Sym=     1a
 Ene= -9.41614842644069E-01
 Spin= Alpha
 Occup= 2.000000
  1      -0.138664423345
  2       0.260567907778
  3       0.002234642279
  4       0.021051319919
  5      -0.015575959977
  6       0.294177372696
  7       0.003546134079
  8       0.002004894793
  9       0.004035304175
 10       0.099692769267
 11       0.021981477825
 12      -0.079011765795
 13       0.154323426746
 14      -0.002354831343
 15      -0.010243910580
 16      -0.000070707570
 17       0.136725254018
 18      -0.003685225408
 19       0.001900073628
 20      -0.004473781875
 21      -0.001463962682
 22       0.001862530001
 23       0.095484483309
 24       0.088949788786
 25      -0.014686509173
 26      -0.001196194657
 27       0.019933287637
 28       0.005756602697
 29       0.001593645467
 30       0.119071805005
 31      -0.236845523221
 32       0.034015142944
 33       0.013530650629
 34       0.018611440687
 35      -0.185181050087
 36       0.001910225316
 37       0.015761784979
 38      -0.007899357621
 39       0.029619407090
 40      -0.055762018663
 41      -0.045562873549
 42       0.113804619769
 43      -0.127863832074
 44      -0.074062350483
 45      -0.010916790573
 46       0.009112816467
 47      -0.015641044637
 48       0.100798889486
 49       0.028061228917
 50       0.099572501744
 51       0.024230485374
 52       0.060741927390
 53       0.018136049355
 54       0.057388076972
 55       0.018433048476
 56      -0.003399807560
 57      -0.005230158096
 58      -0.091180569237
 59      -0.025140592539
 60      -0.020598318089
 61      -0.007388803690
 Sym=     1a
 Ene= -8.13131672326642E-01
 Spin= Alpha
 Occup= 2.000000
  1      -0.060766899597
  2       0.115392280918
  3       0.015979307328
  4       0.064972075412
  5      -0.050847269979
  6       0.146938895075
  7      -0.002943274962
  8       0.015315243725
  9      -0.017900314420
 10       0.058300303102
 11       0.022888308414
 12       0.101913791657
 13      -0.202817602959
 14      -0.041453977491
 15      -0.079120399278
 16       0.022414913732
 17      -0.190174663718
 18      -0.015302198342
 19      -0.032029835958
 20       0.009372829787
 21      -0.085896820316
 22       0.175447596885
 23      -0.078035748949
 24      -0.150890791818
 25       0.037426866686
 26       0.162909071275
 27      -0.019930710537
 28      -0.050304127959
 29       0.013312919584
 30      -0.029439571280
 31       0.061319797144
 32       0.192157396570
 33      -0.024739811068
 34       0.101097826787
 35       0.050358162052
 36       0.044514694290
 37      -0.007006954540
 38       0.024722859202
 39       0.092134630213
 40      -0.184720748085
 41       0.038602912418
 42       0.068686319851
 43      -0.046947843682
 44      -0.179411116991
 45       0.024626219652
 46       0.012180776076
 47       0.000059068706
 48       0.063525779870
 49       0.021356239718
 50       0.060523082692
 51       0.024269858837
 52      -0.108871533649
 53      -0.041810788392
 54      -0.113326207235
 55      -0.048428011137
 56       0.108794566947
 57       0.045173721104
 58       0.038990675539
 59       0.017502141603
 60      -0.108329917242
 61      -0.043711615112
 Sym=     1a
 Ene= -7.18858334621734E-01
 Spin= Alpha
 Occup= 2.000000
  1      -0.020034321351
  2       0.034468652997
  3       0.096619074283
  4       0.110822103048
  5      -0.035423638905
  6       0.059691688274
  7       0.038318649442
  8       0.040135166885
  9      -0.009010250958
 10       0.078527450792
 11       0.042712124255
 12      -0.038512018705
 13       0.076847919556
 14      -0.026210906165
 15       0.196756068649
 16      -0.064147673189
 17       0.080499663295
 18      -0.006943471607
 19       0.063872463983
 20      -0.023977163916
 21       0.069965437343
 22      -0.142009994484
 23      -0.178257155488
 24       0.025283761806
 25      -0.027970722786
 26      -0.141139852391
 27      -0.058909210552
 28       0.038491988823
 29      -0.019524115197
 30      -0.078319859385
 31       0.160102888860
 32      -0.006123915097
 33      -0.030654391784
 34       0.040756410478
 35       0.156586289406
 36       0.001998869661
 37      -0.034797966927
 38       0.034582038388
 39       0.073774648629
 40      -0.150113859949
 41       0.155363743251
 42      -0.000056724454
 43       0.104404616087
 44      -0.155723131573
 45       0.068120130492
 46       0.007711654564
 47       0.040522807255
 48       0.001519990072
 49      -0.001521652299
 50       0.054352469289
 51       0.029469100836
 52       0.142369641609
 53       0.087239950242
 54       0.039947732598
 55       0.019587334024
 56      -0.140482607589
 57      -0.067618401920
 58       0.102757942693
 59       0.041775356099
 60      -0.151760318271
 61      -0.076460534559
 Sym=     1a
 Ene= -6.68241699419789E-01
 Spin= Alpha
 Occup= 2.000000
  1       0.017506774105
  2      -0.032529398065
  3       0.086188722330
  4      -0.068762023619
  5       0.112936349965
  6      -0.051641290806
  7       0.044661730775
  8      -0.023912915991
  9       0.048777055819
 10       0.015639533712
 11       0.010162043858
 12       0.021760564759
 13      -0.043248576063
 14      -0.189357187458
 15      -0.084053329924
 16       0.005860876266
 17      -0.061088600613
 18      -0.072695406902
 19      -0.020695124005
 20      -0.004300698101
 21      -0.024662121230
 22       0.052490135116
 23      -0.099389141921
 24       0.138172192945
 25      -0.081774149952
 26       0.046514884252
 27      -0.031719224105
 28       0.043705973455
 29      -0.028803758024
 30       0.021154115895
 31      -0.040668663007
 32       0.064324429224
 33       0.233138549236
 34      -0.167514034581
 35      -0.056018063464
 36       0.023958573412
 37       0.097446287012
 38      -0.068336688851
 39      -0.023053004480
 40       0.048095965756
 41       0.167994381386
 42       0.092614936081
 43       0.021116190064
 44       0.034080748192
 45       0.052124692999
 46       0.037770404164
 47      -0.001422399424
 48      -0.098462196764
 49      -0.058837485358
 50      -0.026182697045
 51      -0.015304584390
 52      -0.002008799595
 53      -0.006897323152
 54      -0.134957638751
 55      -0.084744599490
 56      -0.080170281757
 57      -0.058563439879
 58      -0.188137621868
 59      -0.113977337279
 60      -0.083943035830
 61      -0.058679867093
 Sym=     1a
 Ene= -6.01851637762704E-01
 Spin= Alpha
 Occup= 2.000000
  1       0.010939171585
  2      -0.021196674090
  3      -0.156416602887
  4      -0.027546301817
  5      -0.023385082532
  6      -0.030674033841
  7      -0.067353661338
  8      -0.013993668405
  9      -0.002719121182
 10      -0.091032146662
 11      -0.061652051544
 12      -0.007926592200
 13       0.017542895843
 14      -0.266894455347
 15       0.099848390891
 16      -0.006203772805
 17       0.031079338864
 18      -0.122551413989
 19       0.047194954670
 20      -0.000390192915
 21      -0.016169035600
 22       0.037398259691
 23      -0.190099789356
 24       0.076286055160
 25      -0.002711104075
 26       0.025532623103
 27      -0.066871115584
 28       0.018548036398
 29       0.011179701336
 30       0.009766541977
 31      -0.022241630272
 32       0.163508796829
 33      -0.035606595420
 34       0.156758518109
 35       0.012802773400
 36       0.049621018889
 37       0.007036504674
 38       0.043103400974
 39       0.003367837971
 40      -0.009106634414
 41      -0.242801376554
 42       0.010219078494
 43      -0.128510284941
 44      -0.003604204267
 45      -0.109031744701
 46      -0.004679319807
 47      -0.047091615325
 48       0.059241963966
 49       0.050472964422
 50      -0.013424263489
 51      -0.004099197252
 52       0.142717773059
 53       0.092060871279
 54      -0.146754128719
 55      -0.102573361349
 56      -0.089941256094
 57      -0.072365815129
 58       0.034652811758
 59       0.033777416342
 60       0.136703396756
 61       0.094707733174
 Sym=     1a
 Ene= -5.84482619611203E-01
 Spin= Alpha
 Occup= 2.000000
  1       0.007062257681
  2      -0.008752838092
  3       0.014101704596
  4      -0.181449142524
  5       0.121414263497
  6      -0.037904812084
  7       0.008953206544
  8      -0.075877068600
  9       0.050214661116
 10      -0.016462703683
 11      -0.009428737546
 12       0.007141410596
 13      -0.019142579331
 14       0.144890389734
 15       0.282839170759
 16      -0.091293916258
 17       0.017066404822
 18       0.048144912846
 19       0.101994182551
 20      -0.035688078086
 21       0.007652245016
 22      -0.018316047755
 23      -0.128183532444
 24      -0.306221626751
 25       0.058754919756
 26       0.004368031382
 27      -0.032200966916
 28      -0.111028269934
 29       0.019768283709
 30       0.011057733154
 31      -0.022212752837
 32       0.205637268786
 33       0.049334465749
 34      -0.003489616735
 35      -0.022847415383
 36       0.084271652118
 37       0.021297518464
 38      -0.008200613244
 39      -0.024017563376
 40       0.048770938059
 41       0.020699557873
 42       0.140513842264
 43      -0.160535839213
 44       0.083546919050
 45       0.014178443200
 46       0.054471807111
 47      -0.064970988621
 48      -0.075518635006
 49      -0.055350600275
 50      -0.069134761293
 51      -0.052333262142
 52       0.098797072987
 53       0.071729327386
 54       0.109715488532
 55       0.086334788126
 56       0.093790775727
 57       0.069793428334
 58      -0.073560729695
 59      -0.050815068918
 60      -0.011526969655
 61      -0.011565246932
 Sym=     1a
 Ene= -5.67743575471716E-01
 Spin= Alpha
 Occup= 2.000000
  1      -0.000447741995
  2       0.001848273324
  3       0.134254431171
  4      -0.232171253317
  5      -0.315448869912
  6       0.000954866879
  7       0.067666368144
  8      -0.119401579542
  9      -0.158114484270
 10       0.150372330302
 11       0.118614471981
 12      -0.004177074111
 13       0.008018439345
 14      -0.022557748380
 15      -0.025311148684
 16      -0.021826563591
 17       0.011286145137
 18      -0.004596215829
 19      -0.006056059715
 20      -0.018784029488
 21       0.001396844224
 22      -0.003746056129
 23      -0.025257713273
 24       0.030880050361
 25      -0.051928498079
 26      -0.004458642167
 27      -0.011875345977
 28       0.016211888400
 29      -0.027603329615
 30      -0.003062106223
 31       0.004093073676
 32       0.033636075262
 33      -0.045156902543
 34      -0.048362170161
 35       0.019761782931
 36       0.018239260707
 37      -0.023011543522
 38      -0.039561498731
 39       0.006098832869
 40      -0.010481074923
 41       0.031732468060
 42      -0.105179831395
 43      -0.080550273136
 44      -0.029454915024
 45       0.010425691643
 46      -0.050251415743
 47      -0.045011395883
 48       0.121215478655
 49       0.093184396787
 50      -0.250310547798
 51      -0.195212973240
 52      -0.005699103743
 53      -0.014902716670
 54      -0.011136595462
 55      -0.011475315047
 56      -0.038083612203
 57      -0.027450103050
 58       0.002282846371
 59       0.004702491728
 60       0.013724758950
 61       0.011248405935
 Sym=     1a
 Ene= -5.43122142813527E-01
 Spin= Alpha
 Occup= 2.000000
  1       0.006339889803
  2      -0.016757437091
  3       0.305596058421
  4       0.070257992794
  5       0.075109159860
  6       0.009278066945
  7       0.172930828660
  8       0.031782537190
  9       0.054491218668
 10       0.182306086303
 11       0.141029539834
 12       0.013677002758
 13      -0.030121113057
 14      -0.165207064579
 15       0.069787345849
 16      -0.033950531453
 17      -0.017195038209
 18      -0.103612736514
 19       0.031788563383
 20      -0.024298747031
 21      -0.007934149799
 22       0.014774189992
 23       0.139580125662
 24      -0.088476562314
 25       0.040163956672
 26       0.013938039624
 27       0.086539227081
 28      -0.064763696641
 29       0.026040319740
 30       0.035022264773
 31      -0.077929018275
 32      -0.072067645099
 33      -0.102640767479
 34       0.022517694287
 35      -0.071449788679
 36      -0.017214947626
 37      -0.023229895896
 38      -0.006288591913
 39      -0.007987135961
 40       0.016150258293
 41      -0.105398408301
 42      -0.105334496248
 43       0.002110250259
 44       0.014721201602
 45      -0.071908950184
 46      -0.069251335844
 47       0.000565472959
 48      -0.175204866102
 49      -0.134077821538
 50       0.030788390185
 51       0.025028128265
 52       0.107632201111
 53       0.083449943869
 54      -0.125067030576
 55      -0.088640139812
 56       0.124205823365
 57       0.084714416135
 58       0.031646955252
 59       0.041098757491
 60       0.107676292665
 61       0.070523735835
 Sym=     1a
 Ene= -5.07460995926720E-01
 Spin= Alpha
 Occup= 2.000000
  1       0.017091632457
  2      -0.038016907351