[Molden Format]
[Title]
 Molden file created by orca_2mkl for BaseName=h-shift_082

[Atoms] AU
C    1   6         -0.8460152723         0.0119317308         0.0556259785 
H    2   1          4.0704871000         0.0284819523         0.0534905879 
C    3   6          4.6892722534         0.0189048202         2.0047802199 
C    4   6          3.5089833252        -2.1253485267         3.4394773083 
C    5   6          1.1896090575        -3.0374645294         3.0847171314 
C    6   6         -0.6237872585        -2.2475552260         1.1324864159 
H    7   1         -2.1504025157         0.3217126462        -1.4649856189 
H    8   1          0.2355883777         1.6213585667         0.6338594987 
H    9   1          4.1471665173         1.8250975001         2.8188780178 
H   10   1          6.7302993102        -0.0806365039         2.0366050977 
H   11   1          4.6704940448        -2.9997626033         4.8627944659 
H   12   1          0.5900764339        -4.5986693339         4.2449485064 
H   13   1         -1.8684213615        -3.7271219717         0.4975554424 
[GTO]
  1 0
s   6 1.0 
     3047.5249000000         0.5363343823
      457.3695100000         0.9894506076
      103.9486900000         1.5972822308
       29.2101550000         2.0791870615
        9.2866630000         1.7741742532
        3.1639270000         0.6125798260
s   3 1.0 
        7.8682724000        -0.3995563516
        1.8812885000        -0.1841552393
        0.5442493000         0.5163903794
p   3 1.0 
        7.8682724000         1.2960827175
        1.8812885000         0.9937536282
        0.5442493000         0.4959527138
s   1 1.0 
        0.1687144000         0.1876178721
p   1 1.0 
        0.1687144000         0.1541275509

  2 0
s   3 1.0 
       18.7311370000         0.2149354183
        2.8253937000         0.3645711272
        0.6401217000         0.4150514277
s   1 1.0 
        0.1612778000         0.1813806839

  3 0
s   6 1.0 
     3047.5249000000         0.5363343823
      457.3695100000         0.9894506076
      103.9486900000         1.5972822308
       29.2101550000         2.0791870615
        9.2866630000         1.7741742532
        3.1639270000         0.6125798260
s   3 1.0 
        7.8682724000        -0.3995563516
        1.8812885000        -0.1841552393
        0.5442493000         0.5163903794
p   3 1.0 
        7.8682724000         1.2960827175
        1.8812885000         0.9937536282
        0.5442493000         0.4959527138
s   1 1.0 
        0.1687144000         0.1876178721
p   1 1.0 
        0.1687144000         0.1541275509

  4 0
s   6 1.0 
     3047.5249000000         0.5363343823
      457.3695100000         0.9894506076
      103.9486900000         1.5972822308
       29.2101550000         2.0791870615
        9.2866630000         1.7741742532
        3.1639270000         0.6125798260
s   3 1.0 
        7.8682724000        -0.3995563516
        1.8812885000        -0.1841552393
        0.5442493000         0.5163903794
p   3 1.0 
        7.8682724000         1.2960827175
        1.8812885000         0.9937536282
        0.5442493000         0.4959527138
s   1 1.0 
        0.1687144000         0.1876178721
p   1 1.0 
        0.1687144000         0.1541275509

  5 0
s   6 1.0 
     3047.5249000000         0.5363343823
      457.3695100000         0.9894506076
      103.9486900000         1.5972822308
       29.2101550000         2.0791870615
        9.2866630000         1.7741742532
        3.1639270000         0.6125798260
s   3 1.0 
        7.8682724000        -0.3995563516
        1.8812885000        -0.1841552393
        0.5442493000         0.5163903794
p   3 1.0 
        7.8682724000         1.2960827175
        1.8812885000         0.9937536282
        0.5442493000         0.4959527138
s   1 1.0 
        0.1687144000         0.1876178721
p   1 1.0 
        0.1687144000         0.1541275509

  6 0
s   6 1.0 
     3047.5249000000         0.5363343823
      457.3695100000         0.9894506076
      103.9486900000         1.5972822308
       29.2101550000         2.0791870615
        9.2866630000         1.7741742532
        3.1639270000         0.6125798260
s   3 1.0 
        7.8682724000        -0.3995563516
        1.8812885000        -0.1841552393
        0.5442493000         0.5163903794
p   3 1.0 
        7.8682724000         1.2960827175
        1.8812885000         0.9937536282
        0.5442493000         0.4959527138
s   1 1.0 
        0.1687144000         0.1876178721
p   1 1.0 
        0.1687144000         0.1541275509

  7 0
s   3 1.0 
       18.7311370000         0.2149354183
        2.8253937000         0.3645711272
        0.6401217000         0.4150514277
s   1 1.0 
        0.1612778000         0.1813806839

  8 0
s   3 1.0 
       18.7311370000         0.2149354183
        2.8253937000         0.3645711272
        0.6401217000         0.4150514277
s   1 1.0 
        0.1612778000         0.1813806839

  9 0
s   3 1.0 
       18.7311370000         0.2149354183
        2.8253937000         0.3645711272
        0.6401217000         0.4150514277
s   1 1.0 
        0.1612778000         0.1813806839

 10 0
s   3 1.0 
       18.7311370000         0.2149354183
        2.8253937000         0.3645711272
        0.6401217000         0.4150514277
s   1 1.0 
        0.1612778000         0.1813806839

 11 0
s   3 1.0 
       18.7311370000         0.2149354183
        2.8253937000         0.3645711272
        0.6401217000         0.4150514277
s   1 1.0 
        0.1612778000         0.1813806839

 12 0
s   3 1.0 
       18.7311370000         0.2149354183
        2.8253937000         0.3645711272
        0.6401217000         0.4150514277
s   1 1.0 
        0.1612778000         0.1813806839

 13 0
s   3 1.0 
       18.7311370000         0.2149354183
        2.8253937000         0.3645711272
        0.6401217000         0.4150514277
s   1 1.0 
        0.1612778000         0.1813806839

[5D]
[7F]
[9G]
[MO]
 Sym=     1a
 Ene= -1.12360272355059E+01
 Spin= Alpha
 Occup= 2.000000
  1       0.058144790681
  2       0.000606207526
  3       0.000004204477
  4       0.000175154538
  5      -0.000115195236
  6       0.005517001131
  7       0.000911216547
  8      -0.001992229548
  9       0.001780859194
 10      -0.000104345656
 11       0.000567764427
 12       0.000426458772
 13      -0.000018039085
 14       0.000049518292
 15       0.000049009999
 16      -0.000025636691
 17       0.000067252530
 18      -0.000018685917
 19      -0.000236154752
 20       0.000450673334
 21       0.039512008111
 22       0.000729216630
 23       0.000167808315
 24       0.000040646908
 25       0.000118879594
 26      -0.000673474488
 27      -0.000517252584
 28      -0.000403073065
 29      -0.000235491425
 30       0.047537805735
 31       0.000520258313
 32       0.000130590170
 33      -0.000068648043
 34       0.000124699029
 35       0.003908946558
 36      -0.001475462611
 37       0.001374686695
 38      -0.001803276923
 39       0.992505933323
 40       0.024845881859
 41       0.000107658620
 42       0.000156217935
 43       0.000003820348
 44      -0.017321416278
 45      -0.001467214676
 46      -0.001751291581
 47      -0.000639754548
 48      -0.000081134242
 49       0.000495166882
 50      -0.000274680403
 51      -0.000310551291
 52       0.000003044507
 53      -0.000007041639
 54      -0.000000732030
 55      -0.000000095750
 56       0.000040447627
 57       0.000497795253
 58      -0.000085562925
 59       0.000438442311
 60      -0.000265724479
 61       0.002070473311
 Sym=     1a
 Ene= -1.12353449864774E+01
 Spin= Alpha
 Occup= 2.000000
  1       0.003116427292
  2       0.000071653881
  3       0.000024457592
  4       0.000030235603
  5       0.000030961631
  6      -0.000157691155
  7      -0.000172114746
  8      -0.000172176543
  9      -0.000153150291
 10       0.000199025994
 11      -0.000101322095
 12      -0.016180040069
 13       0.000006593170
 14      -0.000013214838
 15      -0.000160321085
 16       0.000041303532
 17      -0.003671661676
 18       0.001229500306
 19       0.002177992109
 20      -0.000759011890
 21      -0.989694226899
 22      -0.024716187212
 23       0.000149136016
 24      -0.000028190175
 25       0.000093712329
 26       0.017230895264
 27      -0.001433641131
 28       0.000892306859
 29      -0.001764083699
 30      -0.102715171306
 31      -0.001576517970
 32       0.000224299052
 33       0.000127486124
 34       0.000002468319
 35      -0.005213055971
 36      -0.002476148209
 37      -0.001988398372
 38       0.000629982699
 39       0.044203145067
 40       0.001268958226
 41       0.000149618975
 42      -0.000034588726
 43       0.000115163578
 44      -0.000060437565
 45       0.000306348272
 46       0.000221413727
 47       0.000087776967
 48      -0.000011857846
 49      -0.000095512179
 50       0.000000693758
 51       0.000353106734
 52       0.000200116570
 53      -0.000903593017
 54       0.000091759401
 55      -0.000194239832
 56       0.000267284899
 57      -0.002061064454
 58       0.000047900360
 59      -0.000796544266
 60      -0.000005735880
 61       0.000097444668
 Sym=     1a
 Ene= -1.12274446988499E+01
 Spin= Alpha
 Occup= 2.000000
  1      -0.007901885200
  2      -0.000355842873
  3      -0.000056188866
  4       0.000128859351
  5      -0.000156809864
  6      -0.000771499427
  7      -0.000208506414
  8      -0.000126374722
  9       0.000160638239
 10       0.000064034750
 11       0.000178590429
 12      -0.003675800885
 13      -0.000075143076
 14       0.000105341156
 15       0.000112190913
 16      -0.000092675704
 17      -0.001790412177
 18       0.000523680114
 19       0.000655187012
 20      -0.000032352434
 21      -0.105202629103
 22      -0.003672562131
 23       0.000226537730
 24       0.000032840590
 25       0.000092604296
 26       0.009477357445
 27      -0.003210827252
 28       0.000194288669
 29      -0.002030736611
 30       0.989703861647
 31       0.025130563849
 32       0.000127827003
 33       0.000171172613
 34      -0.000193464678
 35      -0.019566879413
 36      -0.001401289438
 37      -0.002684645194
 38       0.002158743480
 39      -0.042998186504
 40      -0.001721318624
 41      -0.000123734521
 42       0.000035710640
 43      -0.000109882837
 44       0.006025520037
 45       0.002528969349
 46       0.000043680905
 47       0.001749290610
 48       0.000045664093
 49       0.000331459479
 50      -0.000041024027
 51       0.000315532869
 52       0.000037584610
 53      -0.000150511388
 54       0.000059087906
 55       0.000118976665
 56       0.000001890670
 57       0.000344908951
 58      -0.000297710866
 59       0.001691906063
 60      -0.000067887745
 61       0.000346568948
 Sym=     1a
 Ene= -1.12217435276242E+01
 Spin= Alpha
 Occup= 2.000000
  1       0.994400390095
  2       0.024795298164
  3       0.000068572115
  4      -0.000200834726
  5       0.000059311399
  6      -0.016546686892
  7      -0.000413685723
  8       0.001673221585
  9      -0.000824286139
 10      -0.000157607473
 11       0.001022198755
 12      -0.000383266620
 13      -0.000040319800
 14       0.000088950870
 15      -0.000011205371
 16      -0.000061838200
 17       0.000025021122
 18      -0.000331673451
 19      -0.000056779816
 20       0.000716435707
 21      -0.000029655638
 22       0.000023727432
 23       0.000037566862
 24      -0.000018746254
 25       0.000020568936
 26      -0.000079850391
 27      -0.000342743322
 28      -0.000399607610
 29       0.000138335285
 30       0.005390021391
 31       0.000026809087
 32       0.000066670210
 33      -0.000080280431
 34       0.000084489904
 35      -0.000483124716
 36      -0.000348046142
 37      -0.000019281126
 38      -0.000248250812
 39      -0.059098230658
 40      -0.002314441915
 41       0.000037654473
 42      -0.000295826959
 43       0.000123270858
 44       0.006837126535
 45      -0.000223863005
 46       0.002835710447
 47      -0.001308214072
 48      -0.000210820634
 49       0.002651144863
 50      -0.000144285796
 51       0.002741253550
 52       0.000026317262
 53      -0.000498525850
 54       0.000013717278
 55       0.000224847398
 56      -0.000006232877
 57      -0.000015882803
 58       0.000035796365
 59       0.000201551721
 60      -0.000114321445
 61      -0.000005070936
 Sym=     1a
 Ene= -1.12156796753028E+01
 Spin= Alpha
 Occup= 2.000000
  1      -0.000378767209
  2       0.000022497676
  3       0.000090184003
  4       0.000003232381
  5       0.000099417803
  6      -0.000265926950
  7      -0.000410359355
  8       0.000312814090
  9      -0.000605937297
 10      -0.000075747821
 11      -0.003205897961
 12      -0.996066994102
 13      -0.026122568818
 14       0.000063807431
 15      -0.000011302384
 16      -0.000070083403
 17       0.019222641792
 18      -0.000631241158
 19      -0.000718925481
 20       0.000625936698
 21       0.016646844696
 22       0.000850601727
 23       0.000083870821
 24       0.000114137121
 25      -0.000081622709
 26      -0.004069045500
 27      -0.001595367555
 28      -0.002256427552
 29       0.001326101994
 30      -0.001961232608
 31       0.000142033424
 32       0.000128991593
 33       0.000096684596
 34      -0.000029614711
 35      -0.000598441113
 36      -0.000807556285
 37      -0.000383401636
 38      -0.000092284823
 39      -0.000121533041
 40      -0.000021933970
 41       0.000054286607
 42       0.000039067193
 43       0.000013451874
 44       0.000449239344
 45       0.000099705400
 46       0.000437950291
 47      -0.000161954086
 48      -0.000050377205
 49      -0.000466640743
 50       0.000049947128
 51       0.000012149419
 52      -0.000071186950
 53      -0.003311114904
 54      -0.000041981614
 55      -0.003120203502
 56       0.000127025278
 57      -0.000079203455
 58      -0.000029436430
 59      -0.000425542861
 60       0.000027948800
 61       0.000025983125
 Sym=     1a
 Ene= -1.09968251302390E+00
 Spin= Alpha
 Occup= 2.000000
  1       0.075624568049
  2      -0.147803692157
  3      -0.013299665238
  4       0.057126482290
  5      -0.032484579587
  6      -0.100449263153
  7      -0.000151934015
  8       0.003111517121
  9       0.001097281267
 10      -0.037951216538
 11      -0.001783130228
 12       0.067935348058
 13      -0.126289448188
 14       0.024874276986
 15       0.031483959593
 16      -0.017003608259
 17      -0.119588723271
 18       0.011817488956
 19       0.003593686037
 20      -0.000933439029
 21       0.113628688248
 22      -0.225648445267
 23       0.062360416358
 24       0.006168245500
 25       0.027785028353
 26      -0.137204146508
 27      -0.000402727503
 28       0.004389991063
 29      -0.004669808373
 30       0.126113164871
 31      -0.248851475928
 32      -0.037047082812
 33      -0.041868018455
 34       0.025078214895
 35      -0.163913896084
 36       0.000298702103
 37      -0.004110598521
 38       0.005020432032
 39       0.110792103237
 40      -0.219877679286
 41      -0.033933480333
 42      -0.030611812219
 43      -0.014151090983
 44      -0.139298951460
 45      -0.005428475372
 46       0.000146577506
 47      -0.003445613764
 48      -0.033204457384
 49      -0.001833967829
 50      -0.039715929767
 51      -0.007179441575
 52      -0.034473862417
 53      -0.000272432872
 54      -0.031774279766
 55      -0.004843828267
 56      -0.053134701505
 57      -0.004308479736
 58      -0.059335137006
 59      -0.008591347999
 60      -0.053251296092
 61      -0.008248268855
 Sym=     1a
 Ene= -1.02173366153595E+00
 Spin= Alpha
 Occup= 2.000000
  1       0.121168388404
  2      -0.237840767457
  3      -0.000984654899
  4       0.078774103998
  5      -0.032385121454
  6      -0.183177306293
  7      -0.002037245674
  8       0.002980639455
  9      -0.003861407156
 10       0.054286587757
 11       0.005496380005
 12      -0.100608381803
 13       0.191223915337
 14      -0.013838369752
 15      -0.030023658003
 16       0.022728729506
 17       0.179166178648
 18       0.000544832973
 19      -0.000877868682
 20       0.003383784768
 21      -0.101996048372
 22       0.202453813282
 23       0.004086627703
 24       0.020747486246
 25      -0.018518588678
 26       0.147993394004
 27       0.001678801174
 28       0.005975701230
 29      -0.004754546850
 30      -0.020929451088
 31       0.041669272824
 32       0.101072590900
 33       0.007271080459
 34       0.047421249960
 35       0.026314592757
 36       0.008182073923
 37      -0.011539828956
 38       0.012771155413
 39       0.115513007994
 40      -0.230689144916
 41       0.024436688416
 42      -0.077185288771
 43       0.049165901838
 44      -0.159357949699
 45       0.011054335405
 46       0.004304613238
 47       0.006530628034
 48      -0.069002333685
 49      -0.015762991621
 50      -0.061480356023
 51      -0.006030824506
 52       0.058338832552
 53       0.005591841847
 54       0.059735510515
 55       0.008729974255
 56       0.062769174454
 57       0.016525014685
 58       0.010240437913
 59      -0.003823728361
 60      -0.068140484548
 61      -0.011283573458
 Sym=     1a
 Ene= -9.40948927891647E-01
 Spin= Alpha
 Occup= 2.000000
  1       0.079392317974
  2      -0.155628689560
  3       0.000392224508
  4       0.013842972808
  5      -0.002029176199
  6      -0.135739967269
  7      -0.004452122102
  8      -0.001972223873
  9      -0.000032174586
 10      -0.098457781844
 11      -0.022697804739
 12       0.139051534484
 13      -0.261862604510
 14      -0.014206259701
 15      -0.020135379950
 16       0.008770760975
 17      -0.293553340156
 18       0.003370873549
 19      -0.002159906224
 20      -0.000824018373
 21      -0.029859315978
 22       0.056147214174
 23      -0.132918913604
 24      -0.114644886276
 25       0.037386997009
 26       0.074533408197
 27      -0.019302505355
 28      -0.010055081950
 29       0.000302013969
 30      -0.118442409405
 31       0.235641528318
 32       0.036286968553
 33      -0.011095448291
 34       0.022115192285
 35       0.183368056124
 36      -0.005508775568
 37      -0.015317687724
 38       0.007429005344
 39       0.004939399447
 40      -0.008683215066
 41       0.050891807078
 42      -0.088383017625
 43       0.082407770303
 44      -0.005321108963
 45       0.013947797772
 46      -0.005940761133
 47       0.014425349815
 48      -0.057891969553
 49      -0.018630249579
 50      -0.058661048792
 51      -0.016681062936
 52      -0.099858673777
 53      -0.024606316819
 54      -0.101613612506
 55      -0.028008799024
 56       0.020598266078
 57       0.007342701270
 58       0.091118103279
 59       0.025271081964
 60       0.000382393535
 61       0.004107807294
 Sym=     1a
 Ene= -8.14317361754906E-01
 Spin= Alpha
 Occup= 2.000000
  1      -0.102301570512
  2       0.203725877697
  3      -0.011307875541
  4       0.080828081915
  5      -0.042413752025
  6       0.190202611203
  7      -0.003972778152
  8       0.032051153018
  9      -0.016158783209
 10      -0.059455063901
 11      -0.023248677382
 12       0.059104430563
 13      -0.111885496818
 14      -0.033750073768
 15      -0.063024690979
 16       0.044243802130
 17      -0.144966691414
 18      -0.015466732605
 19      -0.014443224217
 20       0.008192168234
 21      -0.091522100924
 22       0.183045739219
 23      -0.017083274658
 24      -0.064330734538
 25       0.059338434135
 26       0.177589361355
 27       0.013678781997
 28      -0.008966104656
 29       0.019223301469
 30       0.030947093365
 31      -0.064634318756
 32       0.195121861073
 33       0.031178373159
 34       0.096114000821
 35      -0.053858792367
 36       0.046987046205
 37       0.008122359884
 38       0.022598823122
 39       0.086329437412
 40      -0.176346981329
 41      -0.023015961829
 42       0.151973891339
 43      -0.083877581914
 44      -0.162668609340
 45      -0.001980609798
 46       0.050494586242
 47      -0.022674654663
 48       0.113342800309
 49       0.048433510765
 50       0.109548697176
 51       0.043071933480
 52      -0.059146966141
 53      -0.023746069817
 54      -0.060850937821
 55      -0.020619994767
 56       0.106608405046
 57       0.043672817637
 58      -0.040947353162
 59      -0.018507362853
 60      -0.108669613434
 61      -0.044708550097
 Sym=     1a
 Ene= -7.16475994561592E-01
 Spin= Alpha
 Occup= 2.000000
  1       0.039640754241
  2      -0.079582687035
  3      -0.060954053361
  4      -0.198236031937
  5       0.013757578699
  6      -0.081033082647
  7      -0.018877806232
  8      -0.065544375363
  9       0.007977877480
 10      -0.080207838663
 11      -0.044440489452
 12       0.022243957870
 13      -0.039566110366
 14       0.017342254533
 15      -0.108927230131
 16       0.103315776276
 17      -0.064503985796
 18       0.009269250332
 19      -0.039085178594
 20       0.037052901923
 21      -0.073616182086
 22       0.149843260526
 23       0.170712294799
 24       0.005025381851
 25       0.075140130028
 26       0.153441234247
 27       0.073231995071
 28      -0.004256862528
 29       0.036524317120
 30       0.077618860338
 31      -0.158832804708
 32       0.029991831709
 33       0.028875116302
 34      -0.026954697356
 35      -0.152492180633
 36       0.031091548112
 37       0.034710660236
 38      -0.018186988037
 39      -0.069731887764
 40       0.141899170015
 41      -0.135470800108
 42      -0.028671109714
 43      -0.122256143231
 44       0.140326009335
 45      -0.054289506160
 46      -0.041507428196
 47      -0.034227575249
 48      -0.041556567671
 49      -0.020069208001
 50      -0.142275755381
 51      -0.087359405228
 52      -0.053425769085
 53      -0.029590341641
 54      -0.005287345033
 55       0.000169714040
 56       0.152050631669
 57       0.076807662245
 58      -0.100806600955
 59      -0.040956878193
 60       0.142692245189
 61       0.068478852271
 Sym=     1a
 Ene= -6.66772543686937E-01
 Spin= Alpha
 Occup= 2.000000
  1       0.021520026153
  2      -0.042728168047
  3       0.127211440777
  4      -0.089633003582
  5       0.145931871120
  6      -0.061171252482
  7       0.054203990574
  8      -0.022515906328
  9       0.052672762017
 10       0.016116011610
 11       0.010084918913
 12       0.016185776655
 13      -0.029344951249
 14      -0.138069643561
 15      -0.066759405610
 16      -0.007389467797
 17      -0.049525925212
 18      -0.062778222162
 19      -0.023107941808
 20      -0.010183085897
 21      -0.023990525658
 22       0.050441458319
 23      -0.107556758517
 24       0.086757435712
 25      -0.130710521781
 26       0.036092996322
 27      -0.025264848011
 28       0.037084309802
 29      -0.044284570786
 30       0.020369501505
 31      -0.039301247175
 32       0.092445708631
 33       0.231193253688
 34      -0.155074571970
 35      -0.050711333721
 36       0.040278609655
 37       0.097108542373
 38      -0.062237081771
 39      -0.025454996102
 40       0.054677455734
 41       0.125024233835
 42       0.142437535888
 43       0.027976397243
 44       0.046971782473
 45       0.041041812324
 46       0.044745100298
 47       0.006783023631
 48      -0.138671937639
 49      -0.086909663366
 50       0.000310788450
 51      -0.005091369321
 52      -0.029129459645
 53      -0.016656143471
 54      -0.093235533785
 55      -0.056432521163
 56      -0.081914257678
 57      -0.058126195919
 58      -0.187586608723
 59      -0.114247205084
 60      -0.080819145013
 61      -0.059527655340
 Sym=     1a
 Ene= -6.04451497133658E-01
 Spin= Alpha
 Occup= 2.000000
  1       0.007043587171
  2      -0.015443665337
  3      -0.177207023034
  4      -0.101847382282
  5      -0.182430466807
  6      -0.028793278910
  7      -0.078713557735
  8      -0.046378806598
  9      -0.085593272440
 10       0.104757055063
 11       0.070387289213
 12      -0.010208880382
 13       0.019271347254
 14      -0.105741067415
 15       0.029840908559
 16      -0.138041561041
 17       0.031644880634
 18      -0.042073422801
 19       0.013705838708
 20      -0.064613844113
 21      -0.003392098086
 22       0.009598947949
 23      -0.242251007241
 24      -0.031358085798
 25      -0.129487913081
 26      -0.000964379454
 27      -0.096410120904
 28      -0.005908303819
 29      -0.061301365475
 30      -0.009850901211
 31       0.021886690063
 32       0.228395376535
 33       0.039287703095
 34       0.044602769362
 35      -0.008491640653
 36       0.066966019506
 37      -0.003022729071
 38       0.013779987872
 39       0.014031141637
 40      -0.032449872473
 41      -0.125148895936
 42      -0.062182925767
 43      -0.149778833752
 44      -0.023264447051
 45      -0.036836645018
 46      -0.014145681885
 47      -0.059402990908
 48       0.136685297383
 49       0.094888996820
 50      -0.141414184846
 51      -0.091436769822
 52       0.006176201550
 53      -0.000446031694
 54      -0.059717724693
 55      -0.049519361881
 56      -0.132331750488
 57      -0.092669048179
 58      -0.034036221598
 59      -0.031627623995
 60       0.087774685125
 61       0.069710931895
 Sym=     1a
 Ene= -5.85003465406961E-01
 Spin= Alpha
 Occup= 2.000000
  1       0.007256771355
  2      -0.019422872148
  3      -0.039736257450
  4       0.284678132589
  5      -0.161641120083
  6       0.016776814925
  7      -0.010095614177
  8       0.101762227311
  9      -0.057012507496
 10      -0.018551827534
 11      -0.010776349635
 12       0.006161511719
 13      -0.006697873430
 14      -0.116919146244
 15      -0.178308259292
 16       0.061867489814
 17      -0.036650199825
 18      -0.050061955586
 19      -0.074711469824
 20       0.023213420191
 21      -0.024698959880
 22       0.050442326548
 23       0.108905793271
 24       0.142507170894
 25      -0.119454530540
 26       0.085324231991
 27       0.040576172212
 28       0.056153607164
 29      -0.053957719577
 30       0.009598078985
 31      -0.018804801252
 32      -0.107249559347
 33       0.044994981802
 34      -0.167674658810
 35      -0.019568607712
 36      -0.039256360433
 37       0.018306938424
 38      -0.072687275479
 39       0.008078364212
 40      -0.019128665098
 41       0.036416349260
 42      -0.308504298132
 43       0.124288857489
 44       0.003566024544
 45       0.005254961623
 46      -0.111397108948
 47       0.033107643038
 48       0.114578217975
 49       0.090179060208
 50       0.093042089319
 51       0.068140348499
 52      -0.069268652643
 53      -0.052112725303
 54      -0.074768323667
 55      -0.055254032320
 56      -0.021574038403
 57      -0.018594243672
 58      -0.073696658299
 59      -0.051433248673
 60       0.096769958484
 61       0.072325518872
 Sym=     1a
 Ene= -5.67210972092980E-01
 Spin= Alpha
 Occup= 2.000000
  1       0.005252859640
  2      -0.010658147093
  3      -0.030371053630
  4       0.019482734092
  5      -0.008424502940
  6      -0.014473559133
  7      -0.016246617760
  8       0.003392290591
  9       0.004531344928
 10      -0.134273908177
 11      -0.104666858873
 12       0.000477597331
 13      -0.001921641183
 14      -0.192077330011
 15       0.252362251973
 16       0.269701800135
 17      -0.000537595787
 18      -0.094943018198
 19       0.129149841685
 20       0.136801546494
 21      -0.005428507730
 22       0.008827103757
 23      -0.057167842700
 24       0.099704922625
 25       0.067266577001
 26       0.030599011237
 27      -0.036785919812
 28       0.047008394949
 29       0.031200641433
 30       0.003090676023
 31      -0.003924957888
 32      -0.014293607006
 33       0.046188148459
 34       0.052841940179
 35      -0.023575677032
 36      -0.022147542258
 37       0.021594348336
 38       0.035608232065
 39      -0.000736882914
 40       0.001810340705
 41      -0.052386439026
 42      -0.033510924897
 43       0.006634193261
 44       0.002786937504
 45      -0.025114295249
 46      -0.015433301473
 47       0.004241477562
 48       0.012542228787
 49       0.012078464915
 50       0.000528417946
 51       0.010695438484
 52       0.254577111609
 53       0.198405813352
 54      -0.135588690745
 55      -0.105657614794
 56      -0.012929621774
 57      -0.011105409525
 58      -0.003707603835
 59      -0.006446037110
 60       0.037956633636
 61       0.028336647472
 Sym=     1a
 Ene= -5.40354453151186E-01
 Spin= Alpha
 Occup= 2.000000
  1      -0.010680697201
  2       0.023772340519
  3      -0.144751615382
  4      -0.075165155780
  5      -0.107474711699
  6       0.009140443849
  7      -0.091435717526
  8      -0.035078989574
  9      -0.064732335829
 10      -0.187535949386
 11      -0.146462413758
 12      -0.005637786187
 13       0.014416504092
 14       0.226355213103
 15      -0.059225142036
 16       0.216811146150
 17      -0.005427875438
 18       0.136963928981
 19      -0.026720082707
 20       0.117062204486
 21       0.007802260631
 22      -0.015354968374
 23      -0.067908462366
 24       0.092443879916
 25      -0.096160024200
 26      -0.016641280595
 27      -0.042992977707
 28       0.059803683110
 29      -0.062817081028
 30      -0.035371774213
 31       0.079104594999
 32      -0.013268125243
 33       0.102573453701
 34      -0.073394296689
 35       0.072252526376
 36      -0.012662715740
 37       0.023551565914
 38      -0.012234559618
 39       0.007970112756
 40      -0.014542656290
 41       0.108504702197
 42       0.086312294332
 43       0.079297087471
 44      -0.016415574212
 45       0.070416278434
 46       0.063612076394
 47       0.048582448425
 48       0.127565959728
 49       0.091484987499
 50      -0.117762296267
 51      -0.090123930867
 52      -0.014394025099
 53      -0.013816668806
 54       0.169954360334
 55       0.131229775694
 56      -0.110735249335
 57      -0.075658186284
 58      -0.034929069416
 59      -0.044460936277
 60      -0.118358300435
 61      -0.080671945542
 Sym=     1a
 Ene= -5.06958100984861E-01
 Spin= Alpha
 Occup= 2.000000
  1      -0.011852363624
  2       0.026849643048