
                                 *****************
                                 * O   R   C   A *
                                 *****************

                                            #,                                       
                                            ###                                      
                                            ####                                     
                                            #####                                    
                                            ######                                   
                                           ########,                                 
                                     ,,################,,,,,                         
                               ,,#################################,,                 
                          ,,##########################################,,             
                       ,#########################################, ''#####,          
                    ,#############################################,,   '####,        
                  ,##################################################,,,,####,       
                ,###########''''           ''''###############################       
              ,#####''   ,,,,##########,,,,          '''####'''          '####       
            ,##' ,,,,###########################,,,                        '##       
           ' ,,###''''                  '''############,,,                           
         ,,##''                                '''############,,,,        ,,,,,,###''
      ,#''                                            '''#######################'''  
     '                                                          ''''####''''         
             ,#######,   #######,   ,#######,      ##                                
            ,#'     '#,  ##    ##  ,#'     '#,    #''#        ,####,    ,#,          
            ##       ##  ##   ,#'  ##            #'  '#       #'       ,# #          
            ##       ##  #######   ##           ,######,      #####,      #          
            '#,     ,#'  ##    ##  '#,     ,#' ,#      #,     #,   #      #          
             '#######'   ##     ##  '#######'  #'      '#     '####' #    #          



                #########################################################
                #                        -***-                          #
                #          Department of theory and spectroscopy        #
                #                                                       #
                #                      Frank Neese                      #
                #                                                       #
                #     Directorship, Architecture, Infrastructure        #
                #                    SHARK, DRIVERS                     #
                #        Core code/Algorithms in most modules           #
                #                                                       #
                #        Max Planck Institute fuer Kohlenforschung      #
                #                Kaiser Wilhelm Platz 1                 #
                #                 D-45470 Muelheim/Ruhr                 #
                #                      Germany                          #
                #                                                       #
                #                  All rights reserved                  #
                #                        -***-                          #
                #########################################################


                         Program Version 6.1.0  -  RELEASE   -
                                (GIT: $679e74b$)
                          ($2025-06-10 18:02:51 +0200$)


 With contributions from (in alphabetic order):
[Max-Planck-Institut fuer Kohlenforschung]                               
  Daniel Aravena         : Magnetic Suceptibility                        
  Michael Atanasov       : Ab Initio Ligand Field Theory (pilot matlab implementation)
  Alexander A. Auer      : GIAO ZORA, VPT2 properties, NMR spectrum      
  Ute Becker             : All parallelization in ORCA, NUMFREQ, NUMCALC 
  Giovanni Bistoni       : ED, misc. LED, open-shell LED, HFLD           
  Dmytro Bykov           : pre 5.0 version of the SCF Hessian            
  Marcos Casanova-Páez   : Triplet and SCS-CIS(D). UHF-(DLPNO)-IP/EA/STEOM-CCSD. UHF-CVS-IP/STEOM-CCSD   
  Vijay G. Chilkuri      : MRCI spin determinant printing, contributions to CSF-ICE 
  Pauline Colinet        : FMM embedding                                 
  Dipayan Datta          : RHF DLPNO-CCSD density                        
  Achintya Kumar Dutta   : EOM-CC, STEOM-CC                              
  Nicolas Foglia         : Exact transition moments, OPA infrastructure, MCD improvements    
  Dmitry Ganyushin       : Spin-Orbit,Spin-Spin,Magnetic field MRCI      
  Miquel Garcia-Rates    : C-PCM and meta-GGA Hessian, CCSD/C-PCM, Gaussian charge scheme 
  Tiago L. C. Gouveia    : GS-ROHF, GS-ROCIS                             
  Yang Guo               : DLPNO-NEVPT2, F12-NEVPT2, CIM, IAO-localization        
  Andreas Hansen         : Spin unrestricted coupled pair/coupled cluster methods 
  Ingolf Harden          : AUTO-CI MPn and infrastructure                
  Benjamin Helmich-Paris : MC-RPA, TRAH-(SCF,CASSCF), AVAS, COSX integrals, SCF dyn. polar., MC-PDFT, srDFT 
  Lee Huntington         : MR-EOM, pCC                                   
  Robert Izsak           : Overlap fitted RIJCOSX, COSX-SCS-MP3, EOM     
  Riya Kayal             : Wick's Theorem for AUTO-CI, AUTO-CI UHF-CCSDT 
  Emily Kempfer          : AUTO-CI RHF CISDT and CCSDT, approximate NEVPT4
  Christian Kollmar      : KDIIS, OOCD, Brueckner-CCSD(T), CCSD density, CASPT2, CASPT2-K, improved NEVPT2 
  Axel Koslowski         : Symmetry handling                             
  Simone Kossmann        : meta-GGA functionals, TD-DFT gradient, OOMP2, (MP2 Hessian; deprecated post 5.0) 
  Lucas Lang             : DCDCAS, Hyperfine gauge corrections, ICE-SOC+SSC
  Marvin Lechner         : AUTO-CI (C++ implementation), FIC-MRCC        
  Spencer Leger          : CASSCF response                               
  Dagmar Lenk            : GEPOL surface, SMD, ORCA-2-JSON               
  Dimitrios Liakos       : Extrapolation schemes; Compound Job, Property file
  Dimitrios Manganas     : Further ROCIS development; embedding schemes. LFT, Crystal Embedding 
  Dimitrios Pantazis     : SARC Basis sets                               
  Anastasios Papadopoulos: AUTO-CI, single reference methods and gradients 
  Taras Petrenko         : pre 6.0 DFT Hessian and TD-DFT gradient,  ECA, NRVS 
  Petra Pikulova         : Analytic Raman intensities                    
  Peter Pinski           : DLPNO-MP2, DLPNO-MP2 Gradient                 
  Shashank Vittal Rao    : ES-AILFT, MagRelax                            
  Christoph Reimann      : Effective Core Potentials                     
  Marius Retegan         : Local ZFS, SOC                                
  Christoph Riplinger    : Optimizer, TS searches, QM/MM, DLPNO-CCSD(T), (RO)-DLPNO pert. Triples 
  Michael Roemelt        : Original ROCIS implementation, recursive CI coupling coefficients
  Masaaki Saitow         : Open-shell DLPNO-CCSD energy and density      
  Barbara Sandhoefer     : DKH picture change effects                    
  Yorick L. A. Schmerwitz: GMF and freeze-and-release deltaSCF, NEB S-IDPP initial path                    
  Kantharuban Sivalingam : CASSCF convergence/infrastructure, NEVPT2, NEVPT3, NEVPT4(SD), FIC-MRCI and CEPA variants
  Bernardo de Souza      : ESD, SOC TD-DFT                               
  Georgi L. Stoychev     : AutoAux, RI-MP2 NMR, DLPNO-MP2 response, X2C  
  Van Anh Tran           : RI-MP2 g-tensors                              
  Willem Van den Heuvel  : Paramagnetic NMR                              
  Zikuan Wang            : NOTCH, Electric field optimization            
  Frank Wennmohs         : Technical directorship and infrastructure     
  Hang Xu                : AUTO-CI-Response properties                   
                                                                         
[FACCTs GmbH]                                                            
  Markus Bursch, Nicolas Foglia, Miquel Garcia-Rates, Ingolf Harden, Hagen Neugebauer, Anastasios Papadopoulos, 
  Christoph Riplinger, Bernardo de Souza, Georgi L. Stoychev                                                    
                                                                 
  APM, various basis sets, CI-OPT, improved COSX, DLPNO-Multilevel,           
  DOCKER, DRACO, updates on ESD, Fragmentator, GOAT, IRC, LR-CPCM, L-BFGS, MBIS, meta-GGA TD-DFT gradient, ML-optimized integration grids, 
  MM, NACMEs, nearIR, NEB, NEB-TS, NL-DFT gradient (VV10), 2- and 3-layer-ONIOM, interface openCOSMO-RS, QMMM,   
  Crystal-QMMM, RESP, rigid body optimization, SF, symmetry and pop. for TD-DFT, various functionals, SOLVATOR                                   
                                                                         
[Other institutions]                                                     
  V. Asgeirsson          : NEB                                           
  Christoph Bannwarth    : sTDA-DFT, sTD-DFT, PBEh-3c, B97-3c, D3        
  Giovanni Bistoni       : ETS/NOCV, ADLD/ADEX, COVALED                  
  Martin Brehm           : Molecular dynamics                            
  Ronald Cardenas        : ETS/NOCV                                      
  Martina Colucci        : COVALED                                       
  Sebastian Ehlert       : rSCAN, r2SCAN, r2SCAN-3c, D4, dhf basis sets  
  Marvin Friede          : D4 for Fr, Ra, Ac-Lr                          
  Lars Goerigk           : TD-DFT with DH, B97 family of functionals     
  Stefan Grimme          : VdW corrections, initial TS optimization, DFT functionals, gCP, sTDA/sTD-DF 
  Waldemar Hujo          : DFT-NL                                        
  H. Jonsson             : NEB                                           
  Holger Kruse           : gCP                                           
  Marcel Mueller         : wB97X-3c, vDZP basis set                      
  Hagen Neugebauer       : wr2SCAN, Native XTB                           
  Gianluca Regni         : ADLD/ADEX                                     
  Tobias Risthaus        : pre 6.0 range-separated hybrid DFT and stability analysis
  Lukas Wittmann         : regularized MP2, r2SCAN double-hybrids, wr2SCAN        
                                                                         
We gratefully acknowledge several colleagues who have allowed us to      
interface, adapt or use parts of their codes:                            
  Ed Valeev, F. Pavosevic, A. Kumar             : LibInt (2-el integral package), F12 methods 
  Garnet Chan, S. Sharma, J. Yang, R. Olivares  : DMRG                   
  Ulf Ekstrom                                   : XCFun DFT Library      
  Mihaly Kallay                                 : mrcc  (arbitrary order and MRCC methods)
  Frank Weinhold                                : gennbo (NPA and NBO analysis)           
  Simon Mueller                                 : openCOSMO-RS                            
  Christopher J. Cramer and Donald G. Truhlar   : smd solvation model                     
  S Lehtola, MJT Oliveira, MAL Marques          : LibXC Library                           
  Liviu Ungur et al                             : ANISO software                          


 Your calculation uses the libint2 library for the computation of 2-el integrals
 For citations please refer to: http://libint.valeyev.net

 Your ORCA version has been built with support for libXC version: 7.0.0
 For citations please refer to: https://libxc.gitlab.io

 This ORCA versions uses:
   CBLAS   interface :  Fast vector & matrix operations
   LAPACKE interface :  Fast linear algebra routines
   SCALAPACK package :  Parallel linear algebra routines
   Shared memory     :  Shared parallel matrices
   BLAS/LAPACK       :  OpenBLAS 0.3.29  USE64BITINT DYNAMIC_ARCH NO_AFFINITY Zen SINGLE_THREADED
        Core in use  :  Zen
   Copyright (c) 2011-2014, The OpenBLAS Project


  ***********************************
  * Starting time: Sun Apr  5 13:00:22 2026
  * Host name:     QC1
  * Process ID:    5144
  * Working dir.:  /home/user/QC/h-shift/split_2
  ***********************************

NOTE: MaxCore=1200 MB was set to SCF,MP2,MDCI,CIPSI,MRCI,RASCI and CIS
      => If you want to overwrite this, your respective input block should be placed after the MaxCore statement
================================================================================

----- Orbital basis set information -----
Your calculation utilizes the basis: 6-31G
   H-He, Li-Ne : W. J. Hehre, R. Ditchfield and J.A. Pople, J. Chem. Phys. 56, 2257 (1972).
                 Note: He and Ne are unpublished basis sets taken from the Gaussian program.
                 Note: Li and B from J. D. Dill and J. A. Pople, J. Chem. Phys. 62, 2921 (1975).
   Na - Ar     : M. M. Francl, W. J. Pietro, W. J. Hehre, J. S. Binkley, M. S. Gordon, 
                 D. J. DeFrees and J. A. Pople, J. Chem. Phys. 77, 3654 (1982).
   K - Zn      : V. A. Rassolov, J. A. Pople, M. A. Ratner, and T. L. Windus, J. Chem. Phys. 109, 1223 (1998).

================================================================================
                                        WARNINGS
                       Please study these warnings very carefully!
================================================================================


================================================================================
                                       INPUT FILE
================================================================================
NAME = h-shift_020.inp
|  1> ! HF 6-31G
|  2> %maxcore 1200
|  3> %pal nprocs 8 end
|  4> * xyz 0 1
|  5> C    0.01286900   0.01082600  -0.15357600
|  6> H    1.04214300   0.01261800  -0.49037500
|  7> C    2.56131800   0.01326800   1.50826300
|  8> C    2.03394400  -1.17231300   1.80269000
|  9> C    0.63515000  -1.60562300   1.66737100
| 10> C   -0.23799000  -1.14211500   0.77400200
| 11> H   -0.63252600  -0.01010300  -1.01976400
| 12> H   -0.15292100   0.95466600   0.35933000
| 13> H    1.97476800   0.86919500   1.24608100
| 14> H    3.62355800   0.16038800   1.51224600
| 15> H    2.70455800  -1.95091600   2.12302000
| 16> H    0.34284200  -2.43878300   2.28389800
| 17> H   -1.19193800  -1.63315300   0.68720500
| 18> *
| 19> 
| 20>                          ****END OF INPUT****
================================================================================

                       ****************************
                       * Single Point Calculation *
                       ****************************

---------------------------------
CARTESIAN COORDINATES (ANGSTROEM)
---------------------------------
  C      0.012869    0.010826   -0.153576
  H      1.042143    0.012618   -0.490375
  C      2.561318    0.013268    1.508263
  C      2.033944   -1.172313    1.802690
  C      0.635150   -1.605623    1.667371
  C     -0.237990   -1.142115    0.774002
  H     -0.632526   -0.010103   -1.019764
  H     -0.152921    0.954666    0.359330
  H      1.974768    0.869195    1.246081
  H      3.623558    0.160388    1.512246
  H      2.704558   -1.950916    2.123020
  H      0.342842   -2.438783    2.283898
  H     -1.191938   -1.633153    0.687205

----------------------------
CARTESIAN COORDINATES (A.U.)
----------------------------
  NO LB      ZA    FRAG     MASS         X           Y           Z
   0 C     6.0000    0    12.011    0.024319    0.020458   -0.290217
   1 H     1.0000    0     1.008    1.969365    0.023845   -0.926674
   2 C     6.0000    0    12.011    4.840190    0.025073    2.850204
   3 C     6.0000    0    12.011    3.843597   -2.215351    3.406590
   4 C     6.0000    0    12.011    1.200260   -3.034188    3.150875
   5 C     6.0000    0    12.011   -0.449736   -2.158285    1.462652
   6 H     1.0000    0     1.008   -1.195301   -0.019092   -1.927075
   7 H     1.0000    0     1.008   -0.288979    1.804057    0.679035
   8 H     1.0000    0     1.008    3.731771    1.642541    2.354752
   9 H     1.0000    0     1.008    6.847532    0.303089    2.857731
  10 H     1.0000    0     1.008    5.110874   -3.686697    4.011926
  11 H     1.0000    0     1.008    0.647877   -4.608632    4.315942
  12 H     1.0000    0     1.008   -2.252436   -3.086212    1.298629

--------------------------------
INTERNAL COORDINATES (ANGSTROEM)
--------------------------------
 C      0   0   0     0.000000000000     0.00000000     0.00000000
 H      1   0   0     1.082978182948     0.00000000     0.00000000
 C      2   1   0     2.510467478015   109.11952061     0.00000000
 C      3   2   1     1.330568638502    86.33556937    63.13740317
 C      4   3   2     1.470609887869   128.25595290   321.03899044
 C      5   4   3     1.332411834166   125.62678241    28.81044300
 H      1   2   3     1.080395474079   108.56889317   181.15625804
 H      1   2   3     1.086918964107   106.87506839    65.23940802
 H      3   2   1     1.070229570211    58.23235768   289.71097500
 H      3   2   1     1.072387045935   127.04218465   189.79028848
 H      4   3   2     1.076362893036   117.61017903   136.68189921
 H      5   4   3     1.076896046140   115.68731879   202.18869311
 H      6   5   4     1.076414800789   118.43263052   171.77788929

---------------------------
INTERNAL COORDINATES (A.U.)
---------------------------
 C      0   0   0     0.000000000000     0.00000000     0.00000000
 H      1   0   0     2.046532174783     0.00000000     0.00000000
 C      2   1   0     4.744096001564   109.11952061     0.00000000
 C      3   2   1     2.514410329154    86.33556937    63.13740317
 C      4   3   2     2.779049937908   128.25595290   321.03899044
 C      5   4   3     2.517893464169   125.62678241    28.81044300
 H      1   2   3     2.041651562337   108.56889317   181.15625804
 H      1   2   3     2.053979171928   106.87506839    65.23940802
 H      3   2   1     2.022440788122    58.23235768   289.71097500
 H      3   2   1     2.026517826382   127.04218465   189.79028848
 H      4   3   2     2.034031088553   117.61017903   136.68189921
 H      5   4   3     2.035038601908   115.68731879   202.18869311
 H      6   5   4     2.034129179990   118.43263052   171.77788929

---------------------
BASIS SET INFORMATION
---------------------
There are 2 groups of distinct atoms

 Group   1 Type C   : 10s4p contracted to 3s2p pattern {631/31}
 Group   2 Type H   : 4s contracted to 2s pattern {31}

Atom   0C    basis set group =>   1
Atom   1H    basis set group =>   2
Atom   2C    basis set group =>   1
Atom   3C    basis set group =>   1
Atom   4C    basis set group =>   1
Atom   5C    basis set group =>   1
Atom   6H    basis set group =>   2
Atom   7H    basis set group =>   2
Atom   8H    basis set group =>   2
Atom   9H    basis set group =>   2
Atom  10H    basis set group =>   2
Atom  11H    basis set group =>   2
Atom  12H    basis set group =>   2


           ************************************************************
           *        Program running with 8 parallel MPI-processes     *
           *              working on a common directory               *
           ************************************************************
------------------------------------------------------------------------------
                             ORCA STARTUP CALCULATIONS
------------------------------------------------------------------------------
------------------------------------------------------------------------------
                   ___                                                        
                  /   \      - P O W E R E D   B Y -                         
                 /     \                                                     
                 |  |  |   _    _      __       _____    __    __             
                 |  |  |  | |  | |    /  \     |  _  \  |  |  /  |          
                  \  \/   | |  | |   /    \    | | | |  |  | /  /          
                 / \  \   | |__| |  /  /\  \   | |_| |  |  |/  /          
                |  |  |   |  __  | /  /__\  \  |    /   |      \           
                |  |  |   | |  | | |   __   |  |    \   |  |\   \          
                \     /   | |  | | |  |  |  |  | |\  \  |  | \   \       
                 \___/    |_|  |_| |__|  |__|  |_| \__\ |__|  \__/        
                                                                              
                      - O R C A' S   B I G   F R I E N D -                    
                                      &                                       
                       - I N T E G R A L  F E E D E R -                       
                                                                              
 v1 FN, 2020, v2 2021, v3 2022-2024                                           
------------------------------------------------------------------------------


----------------------
SHARK INTEGRAL PACKAGE
----------------------

Number of atoms                             ...     13
Number of basis functions                   ...     61
Number of shells                            ...     41
Maximum angular momentum                    ...      1
Integral batch strategy                     ... SHARK/LIBINT Hybrid
RI-J (if used) integral strategy            ... SPLIT-RIJ (Revised 2003 algorithm where possible)
Printlevel                                  ...      1
Contraction scheme used                     ... SEGMENTED contraction
Prescreening option                         ... SCHWARTZ
   Thresh                                   ... 1.000e-10
   Tcut                                     ... 1.000e-11
   Tpresel                                  ... 1.000e-11 
Coulomb Range Separation                    ... NOT USED
Exchange Range Separation                   ... NOT USED
Multipole approximations                    ... NOT USED
Finite Nucleus Model                        ... NOT USED
CABS basis                                  ... NOT available
Auxiliary Coulomb fitting basis             ... NOT available
Auxiliary J/K fitting basis                 ... NOT available
Auxiliary Correlation fitting basis         ... NOT available
Auxiliary 'external' fitting basis          ... NOT available

Checking pre-screening integrals            ... done (  0.0 sec) Dimension = 41
   => SHARK Basis and OBASIS are compatible. Storing Pre-screening
Shell pair information
Shell pair cut-off parameter TPreSel        ...   1.0e-11
Total number of shell pairs                 ...       861
Shell pairs after pre-screening             ...       846
Total number of primitive shell pairs       ...      5382
Primitive shell pairs kept                  ...      3734
          la=0 lb=0:    481 shell pairs
          la=1 lb=0:    310 shell pairs
          la=1 lb=1:     55 shell pairs

Checking whether 4 symmetric matrices of dimension 61 fit in memory
:Max Core in MB      =   1200.00
 MB in use           =      2.04
 MB left             =   1197.96
 MB needed           =      0.06
 Data fit in memory  = YES
Calculating Nuclear repulsion               ... done (  0.0 sec) ENN=    160.967721705776 Eh

Diagonalization of the overlap matrix:
Smallest eigenvalue                        ... 3.368e-03
Time for diagonalization                   ...    0.001 sec
Threshold for overlap eigenvalues          ... 1.000e-07
Number of eigenvalues below threshold      ... 0
Time for construction of square roots      ...    0.000 sec
Total time needed                          ...    0.001 sec

-------------------
DFT GRID GENERATION
-------------------

General Integration Accuracy     IntAcc      ... 4.388
Radial Grid Type                 RadialGrid  ... OptM3 with GC (2021)
Angular Grid (max. ang.)         AngularGrid ... 4 (Lebedev-302)
Angular grid pruning method      GridPruning ... 4 (adaptive)
Weight generation scheme         WeightScheme... mBecke (2022)
Basis function cutoff            BFCut       ... 1.0000e-10
Integration weight cutoff        WCut        ... 1.0000e-14
Partially contracted basis set               ... off
Rotationally invariant grid construction     ... off
Angular grids for H and He will be reduced by one unit

Total number of grid points                  ...    56043
Total number of batches                      ...      883
Average number of points per batch           ...       63
Average number of grid points per atom       ...     4311
Grids setup in   0.2 sec
Initializing property integral containers    ... done (  0.0 sec)

SHARK setup successfully completed in   0.3 seconds

Maximum memory used throughout the entire STARTUP-calculation: 11.8 MB


           ************************************************************
           *        Program running with 8 parallel MPI-processes     *
           *              working on a common directory               *
           ************************************************************
-------------------------------------------------------------------------------
                                 ORCA GUESS
                   Start orbitals & Density for SCF / CASSCF
-------------------------------------------------------------------------------

------------
SCF SETTINGS
------------
Hamiltonian:
 Ab initio Hamiltonian  Method          .... Hartree-Fock(GTOs)


General Settings:
 Integral files         IntName         .... h-shift_020
 Hartree-Fock type      HFTyp           .... RHF
 Total Charge           Charge          ....    0
 Multiplicity           Mult            ....    1
 Number of Electrons    NEL             ....   38
 Basis Dimension        Dim             ....   61
 Nuclear Repulsion      ENuc            ....    160.9677217058 Eh

Convergence Acceleration:
 AO-DIIS                CNVDIIS         .... on
   Start iteration      DIISMaxIt       ....    12
   Startup error        DIISStart       ....  0.200000
   # of expansion vecs  DIISMaxEq       ....     5
   Bias factor          DIISBfac        ....   1.050
   Max. coefficient     DIISMaxC        ....  10.000
 MO-DIIS                CNVKDIIS        .... off
 Trust-Rad. Augm. Hess. CNVTRAH         .... auto
   Auto Start mean grad. ratio tolernc. ....  1.125000
   Auto Start start iteration           ....    50
   Auto Start num. interpolation iter.  ....    10
   Max. Number of Micro iterations      ....    24
   Max. Number of Macro iterations      .... Maxiter - #DIIS iter
   Number of Davidson start vectors     ....     2
   Converg. threshold    (grad. norm)   ....   5.000e-05
   Grad. Scal. Fac. for Micro threshold ....   0.100
   Minimum threshold for Micro iter.    ....   1.000e-02
   NR start threshold (gradient norm)   ....   1.000e-04
   Initial trust radius                 ....   0.400
   Minimum AH scaling param. (alpha)    ....   1.000
   Maximum AH scaling param. (alpha)    .... 1000.000
   Quad. conv. algorithm                .... NR
   White noise on init. David. guess    .... on
   Maximum white noise                  ....   0.010
   Pseudo random numbers                .... off
   Inactive MOs                         .... canonical
   Orbital update algorithm             .... Taylor
   Preconditioner                       .... Diag
   Full preconditioner red. dimension   ....   250
 SOSCF                 CNVSOSCF           .... on
   Start iteration     SOSCFMaxIt         ....   150
   Startup grad/error  SOSCFStart         ....  0.003300
   Hessian update      SOSCFHessUp        .... L-BFGS
   Autom. constraints  SOSCFAutoConstrain .... off
 Level Shifting         CNVShift        .... on
   Level shift para.    LevelShift      ....    0.2500
   Turn off err/grad.   ShiftErr        ....    0.0010
 Zerner damping         CNVZerner       .... off
 Static damping         CNVDamp         .... on
   Fraction old density DampFac         ....    0.7000
   Max. Damping (<1)    DampMax         ....    0.9800
   Min. Damping (>=0)   DampMin         ....    0.0000
   Turn off err/grad.   DampErr         ....    0.1000

SCF Procedure:
 Maximum # iterations   MaxIter         ....   125
 SCF integral mode      SCFMode         .... Direct
   Integral package                     .... SHARK and LIBINT hybrid scheme
 Reset frequency        DirectResetFreq ....    20
 Integral Threshold     Thresh          ....  1.000e-10 Eh
 Primitive CutOff       TCut            ....  1.000e-11 Eh

Convergence Tolerance:
 Convergence Check Mode ConvCheckMode   .... Total+1el-Energy
 Convergence forced     ConvForced      .... 0
 Energy Change          TolE            ....  1.000e-06 Eh
 1-El. energy change                    ....  1.000e-03 Eh
 Orbital Gradient       TolG            ....  5.000e-05
 Orbital Rotation angle TolX            ....  5.000e-05
 DIIS Error             TolErr          ....  1.000e-06

------------------------------
INITIAL GUESS: MODEL POTENTIAL
------------------------------
Loading Hartree-Fock densities                     ... done
Calculating cut-offs                               ... done
Initializing the effective Hamiltonian             ... done
Setting up the integral package (SHARK)            ... done
Starting the Coulomb interaction                   ... done (   0.0 sec)
Making the grid                                    ... done (   0.1 sec)
Mapping shells                                     ... done
Starting the XC term evaluation                    ... done (   0.0 sec)
Transforming the Hamiltonian                       ... done (   0.0 sec)
Diagonalizing the Hamiltonian                      ... done (   0.0 sec)
Back transforming the eigenvectors                 ... done (   0.0 sec)
Now organizing SCF variables                       ... done
                      ------------------
                      INITIAL GUESS DONE (   0.1 sec)
                      ------------------
             **** ENERGY FILE WAS UPDATED (h-shift_020.en.tmp) ****
Finished Guess after   0.4 sec
Maximum memory used throughout the entire GUESS-calculation: 4.2 MB


           ************************************************************
           *        Program running with 8 parallel MPI-processes     *
           *              working on a common directory               *
           ************************************************************

-------------------------------------------------------------------------------------------
                                      ORCA LEAN-SCF
                              memory conserving SCF solver
-------------------------------------------------------------------------------------------

----------------------------------------D-I-I-S--------------------------------------------
Iteration    Energy (Eh)           Delta-E    RMSDP     MaxDP     DIISErr   Damp  Time(sec)
-------------------------------------------------------------------------------------------
               ***  Starting incremental Fock matrix formation  ***
    1    -193.6449683726750379     0.00e+00  1.57e-02  5.34e-02  1.88e-01  0.700   0.1
    2    -193.7259055951521134    -8.09e-02  1.25e-02  4.05e-02  1.23e-01  0.700   0.1
                               ***Turning on AO-DIIS***
    3    -193.7759447462221090    -5.00e-02  7.70e-03  2.03e-02  7.35e-02  0.700   0.0
    4    -193.8075658423213952    -3.16e-02  1.83e-02  4.31e-02  4.97e-02  0.000   0.0
                              *** Initializing SOSCF ***
---------------------------------------S-O-S-C-F--------------------------------------
Iteration    Energy (Eh)           Delta-E    RMSDP     MaxDP     MaxGrad    Time(sec)
--------------------------------------------------------------------------------------
    5    -193.8759772045006287    -6.84e-02  1.70e-03  2.78e-03  2.78e-03     0.1
               *** Restarting incremental Fock matrix formation ***
    6    -193.8760988894559603    -1.22e-04  8.74e-04  1.83e-03  1.36e-03     0.1
    7    -193.8761347854582198    -3.59e-05  5.46e-04  1.20e-03  5.58e-04     0.0
    8    -193.8761417533849283    -6.97e-06  7.17e-05  1.77e-04  1.34e-04     0.0
    9    -193.8761419714041097    -2.18e-07  3.23e-05  7.81e-05  3.07e-05     0.0
                 **** Energy Check signals convergence ****

               *****************************************************
               *                     SUCCESS                       *
               *           SCF CONVERGED AFTER   9 CYCLES          *
               *****************************************************

             **** ENERGY FILE WAS UPDATED (h-shift_020.en.tmp) ****

----------------
TOTAL SCF ENERGY
----------------

Total Energy       :       -193.87614202892129 Eh           -5275.63803 eV

Components:
Nuclear Repulsion  :        160.96772170577626 Eh            4380.15439 eV
Electronic Energy  :       -354.84386373469755 Eh           -9655.79242 eV
One Electron Energy:       -578.89317585075958 Eh          -15752.48416 eV
Two Electron Energy:        224.04931211606203 Eh            6096.69173 eV

Virial components:
Potential Energy   :       -388.04816682842761 Eh          -10559.32745 eV
Kinetic Energy     :        194.17202479950629 Eh            5283.68941 eV
Virial Ratio       :          1.99847618228789

---------------
SCF CONVERGENCE
---------------

  Last Energy change         ...    2.1802e-07  Tolerance :   1.0000e-06
  Last MAX-Density change    ...    7.8148e-05  Tolerance :   1.0000e-05
  Last RMS-Density change    ...    3.2286e-05  Tolerance :   1.0000e-06
  Last DIIS Error            ...    2.7769e-03  Tolerance :   1.0000e-06
  Last Orbital Gradient      ...    3.0701e-05  Tolerance :   5.0000e-05
  Last Orbital Rotation      ...    3.1313e-05  Tolerance :   5.0000e-05


----------------
ORBITAL ENERGIES
----------------

  NO   OCC          E(Eh)            E(eV) 
   0   2.0000     -11.236037      -305.7481 
   1   2.0000     -11.235669      -305.7381 
   2   2.0000     -11.227481      -305.5153 
   3   2.0000     -11.221296      -305.3470 
   4   2.0000     -11.214849      -305.1715 
   5   2.0000      -1.100903       -29.9571 
   6   2.0000      -1.020787       -27.7770 
   7   2.0000      -0.941324       -25.6147 
   8   2.0000      -0.813659       -22.1408 
   9   2.0000      -0.717791       -19.5321 
  10   2.0000      -0.667602       -18.1664 
  11   2.0000      -0.602925       -16.4064 
  12   2.0000      -0.584703       -15.9106 
  13   2.0000      -0.567557       -15.4440 
  14   2.0000      -0.542073       -14.7506 
  15   2.0000      -0.507137       -13.7999 
  16   2.0000      -0.468945       -12.7606 
  17   2.0000      -0.411077       -11.1860 
  18   2.0000      -0.315462        -8.5842 
  19   0.0000       0.132810         3.6139 
  20   0.0000       0.231659         6.3038 
  21   0.0000       0.252600         6.8736 
  22   0.0000       0.266409         7.2494 
  23   0.0000       0.291658         7.9364 
  24   0.0000       0.321049         8.7362 
  25   0.0000       0.336676         9.1614 
  26   0.0000       0.347753         9.4628 
  27   0.0000       0.360092         9.7986 
  28   0.0000       0.367825        10.0090 
  29   0.0000       0.430068        11.7028 
*Only the first 10 virtual orbitals were printed.

                    ********************************
                    * MULLIKEN POPULATION ANALYSIS *
                    ********************************

-----------------------
MULLIKEN ATOMIC CHARGES
-----------------------
   0 C :   -0.510633
   1 H :    0.182333
   2 C :   -0.363341
   3 C :   -0.152020
   4 C :   -0.196716
   5 C :   -0.147761
   6 H :    0.159183
   7 H :    0.171171
   8 H :    0.172274
   9 H :    0.161761
  10 H :    0.173063
  11 H :    0.175389
  12 H :    0.175298
Sum of atomic charges:   -0.0000000

--------------------------------
MULLIKEN REDUCED ORBITAL CHARGES
--------------------------------
  0 C s       :     3.366768  s :     3.366768
      pz      :     1.036237  p :     3.143865
      px      :     1.111661
      py      :     0.995967

  1 H s       :     0.817667  s :     0.817667

  2 C s       :     3.266708  s :     3.266708
      pz      :     1.017472  p :     3.096632
      px      :     1.082505
      py      :     0.996655

  3 C s       :     3.194905  s :     3.194905
      pz      :     0.997443  p :     2.957115
      px      :     0.964323
      py      :     0.995348

  4 C s       :     3.193993  s :     3.193993
      pz      :     1.015198  p :     3.002724
      px      :     0.923511
      py      :     1.064015

  5 C s       :     3.210802  s :     3.210802
      pz      :     0.940393  p :     2.936958
      px      :     1.035003
      py      :     0.961562

  6 H s       :     0.840817  s :     0.840817

  7 H s       :     0.828829  s :     0.828829

  8 H s       :     0.827726  s :     0.827726

  9 H s       :     0.838239  s :     0.838239

 10 H s       :     0.826937  s :     0.826937

 11 H s       :     0.824611  s :     0.824611

 12 H s       :     0.824702  s :     0.824702



                     *******************************
                     * LOEWDIN POPULATION ANALYSIS *
                     *******************************

----------------------
LOEWDIN ATOMIC CHARGES
----------------------
   0 C :   -0.319722
   1 H :    0.125232
   2 C :   -0.247510
   3 C :   -0.113849
   4 C :   -0.149957
   5 C :   -0.106660
   6 H :    0.110717
   7 H :    0.117254
   8 H :    0.117703
   9 H :    0.116112
  10 H :    0.116580
  11 H :    0.117318
  12 H :    0.116781

-------------------------------
LOEWDIN REDUCED ORBITAL CHARGES
-------------------------------
  0 C s       :     2.976215  s :     2.976215
      pz      :     1.106704  p :     3.343506
      px      :     1.144674
      py      :     1.092129

  1 H s       :     0.874768  s :     0.874768

  2 C s       :     2.988368  s :     2.988368
      pz      :     1.036711  p :     3.259143
      px      :     1.115605
      py      :     1.106827

  3 C s       :     2.944960  s :     2.944960
      pz      :     0.987938  p :     3.168889
      px      :     1.071815
      py      :     1.109136

  4 C s       :     2.940730  s :     2.940730
      pz      :     1.075031  p :     3.209227
      px      :     1.063542
      py      :     1.070655

  5 C s       :     2.951854  s :     2.951854
      pz      :     1.032349  p :     3.154806
      px      :     1.089015
      py      :     1.033442

  6 H s       :     0.889283  s :     0.889283

  7 H s       :     0.882746  s :     0.882746

  8 H s       :     0.882297  s :     0.882297

  9 H s       :     0.883888  s :     0.883888

 10 H s       :     0.883420  s :     0.883420

 11 H s       :     0.882682  s :     0.882682

 12 H s       :     0.883219  s :     0.883219



                      *****************************
                      * MAYER POPULATION ANALYSIS *
                      *****************************

  NA   - Mulliken gross atomic population
  ZA   - Total nuclear charge
  QA   - Mulliken gross atomic charge
  VA   - Mayer's total valence
  BVA  - Mayer's bonded valence
  FA   - Mayer's free valence

  ATOM       NA         ZA         QA         VA         BVA        FA
  0 C      6.5106     6.0000    -0.5106     3.7714     3.7714    -0.0000
  1 H      0.8177     1.0000     0.1823     0.9302     0.9302     0.0000
  2 C      6.3633     6.0000    -0.3633     3.8448     3.8448    -0.0000
  3 C      6.1520     6.0000    -0.1520     3.8086     3.8086     0.0000
  4 C      6.1967     6.0000    -0.1967     3.8228     3.8228     0.0000
  5 C      6.1478     6.0000    -0.1478     3.7655     3.7655    -0.0000
  6 H      0.8408     1.0000     0.1592     0.9328     0.9328    -0.0000
  7 H      0.8288     1.0000     0.1712     0.9220     0.9220    -0.0000
  8 H      0.8277     1.0000     0.1723     0.9387     0.9387     0.0000
  9 H      0.8382     1.0000     0.1618     0.9438     0.9438    -0.0000
 10 H      0.8269     1.0000     0.1731     0.9372     0.9372     0.0000
 11 H      0.8246     1.0000     0.1754     0.9387     0.9387    -0.0000
 12 H      0.8247     1.0000     0.1753     0.9386     0.9386    -0.0000

  Mayer bond orders larger than 0.100000
B(  0-C ,  1-H ) :   0.9418 B(  0-C ,  5-C ) :   0.9595 B(  0-C ,  6-H ) :   0.9599 
B(  0-C ,  7-H ) :   0.9452 B(  2-C ,  3-C ) :   1.8778 B(  2-C ,  8-H ) :   0.9613 
B(  2-C ,  9-H ) :   0.9628 B(  3-C ,  4-C ) :   1.0475 B(  3-C , 10-H ) :   0.9578 
B(  4-C ,  5-C ) :   1.8796 B(  4-C , 11-H ) :   0.9565 B(  5-C , 12-H ) :   0.9574 


-------
TIMINGS
-------

Total SCF time: 0 days 0 hours 0 min 0 sec 

Total time                  ....       0.750 sec
Sum of individual times     ....       0.695 sec  ( 92.7%)

SCF preparation             ....       0.253 sec  ( 33.8%)
Fock matrix formation       ....       0.386 sec  ( 51.5%)
  Startup                   ....       0.001 sec  (  0.4% of F)
  Coulomb+Exchange Fock     ....       0.418 sec  (108.2% of F)
Diagonalization             ....       0.000 sec  (  0.0%)
Density matrix formation    ....       0.008 sec  (  1.0%)
Total Energy calculation    ....       0.005 sec  (  0.6%)
Population analysis         ....       0.005 sec  (  0.6%)
Orbital Transformation      ....       0.005 sec  (  0.6%)
Orbital Orthonormalization  ....       0.000 sec  (  0.0%)
DIIS solution               ....       0.020 sec  (  2.7%)
SOSCF solution              ....       0.014 sec  (  1.8%)
Finished LeanSCF after   0.8 sec

Maximum memory used throughout the entire LEANSCF-calculation: 6.4 MB

-------------------------   --------------------
FINAL SINGLE POINT ENERGY      -193.876142028921
-------------------------   --------------------



           ************************************************************
           *        Program running with 8 parallel MPI-processes     *
           *              working on a common directory               *
           ************************************************************

------------------------------------------------------------------------------
                              ORCA PROPERTY CALCULATIONS
------------------------------------------------------------------------------

GBWName                                 ... h-shift_020.gbw
Number of atoms                         ...     13
Number of basis functions               ...     61
Max core memory                         ...   1200 MB

Electric properties:
Dipole moment                           ... YES
Quadrupole moment                       ...  NO
Static polarizability (Dipole/Dipole)   ...  NO
Static polarizability (Dipole/Quad.)    ...  NO
Static polarizability (Quad./Quad.)     ...  NO
Static polarizability (Velocity)        ...  NO
Static hyperpolarizability              ...  NO

Atomic electric properties:
Dipole moment                           ...  NO
Quadrupole moment                       ...  NO
Static polarizability                   ...  NO

Choice of electric origin               ... Center of mass
Position of electric origin             ...     1.883393    -1.411010     2.052925

General magnetic properties:
Magnetizability                         ...  NO

EPR properties:
g-Tensor (aka g-matrix)                 ...  NO
Zero-Field splitting spin-orbit         ...  NO
Zero-field splitting spin-spin          ...  NO
Hyperfine couplings                     ...  NO (   0 nuclei)
Quadrupole couplings                    ...  NO (   0 nuclei)
Contact density                         ...  NO (   0 nuclei)

NMR properties:
Chemical shifts                         ...  NO (   0 nuclei)
Spin-rotation constants                 ...  NO (   0 nuclei)
Spin-spin couplings                     ...  NO (   0 nuclei,    0 pairs)

Choice of magnetic origin               ... GIAO
Position of magnetic origin             ...     0.000000     0.000000     0.000000

Properties with geometric perturbations:
SCF Hessian                             ...  NO
IR spectrum                             ...  NO
VCD spectrum                            ...  NO
X-ray spectroscopy properties:
SCF XES/XAS/RIXS spectra                ...  NO

SCF SOC stabilization energy            ...  NO
Diagonal Born-Oppenheimer correction    ...  NO

-------------
DIPOLE MOMENT
-------------

Method             : SCF
Type of density    : Electron Density
Multiplicity       :   1
Irrep              :   0
Energy             :  -193.8761420289212936 Eh
Basis              : AO
                                X                 Y                 Z
Electronic contribution:      0.192624202      -1.811900729       1.743969611
Nuclear contribution   :     -0.246464780       1.817536232      -1.866266321
                        -----------------------------------------
Total Dipole Moment    :     -0.053840578       0.005635503      -0.122296710
                        -----------------------------------------
Magnitude (a.u.)       :      0.133742484
Magnitude (Debye)      :      0.339946378



--------------------
Rotational spectrum 
--------------------
 
Rotational constants in cm-1:             0.285078             0.140972             0.097559 
Rotational constants in MHz :          8546.412114          4226.234339          2924.756076 

Dipole components along the rotational axes: 
x,y,z [a.u.] :     0.106474     0.049344    -0.064153 
x,y,z [Debye]:     0.270635     0.125423    -0.163063 

 

Dipole moment calculation done in   0.0 sec 

Maximum memory used throughout the entire PROP-calculation: 2.2 MB

--------------------------------
SUGGESTED CITATIONS FOR THIS RUN
--------------------------------

Below you find a list of papers that are relevant to this ORCA run
We neither can nor want to force you to cite these papers, but we appreciate if you do
You receive ORCA, which is the product of decades of hard work by many enthusiastic individuals, for free
The only thing we kindly ask in return is that you cite our papers,
We deeply appreciate it, if you show your appreciation for ORCA by not just citing the generic ORCA reference.

Please note that relegating all ORCA citations to the supporting information does *not* help us.
SI sections are not indexed - citations you put there will not count into any citation statistics
But we need these citations in order to attract the funding resources that allow us to do what we are doing

Therefore, if you are a happy ORCA user, please consider citing a few of the papers listed below in the main body of your paper

In addition to the list printed below, the program has created the file h-shift_020.bibtex that contains the list in bibtex format
You can import this file easily into all common literature databanks and citation aid programs


List of essential papers. We consider these as the minimum necessary citations

  1. Neese, F.
     Software update: the ORCA program system, version 6.0
     WIRES Comput. Molec. Sci. 2025 15(1), e70019
     doi.org/10.1002/wcms.7019

List of papers to cite with high priority. The work reported in these papers was absolutely
necessary for this run to complete.
Our perspective: the developers of density functionals and basis sets usually get cited in chemistry papers
Good! But without the algorithms to do something with them, the functionals or basis sets would not do anything.
Hence, in our opinion, the algorithm design and method developments papers are equally worthy of getting cited

  1. Neese, F.
     The SHARK Integral Generation and Digestion System
     J. Comp. Chem. 2022 44(3), 381
     doi.org/10.1002/jcc.26942

List of suggested additional citations. These are papers that are important in the 'surrounding' of 
of this run, or papers that preceded the highly important papers. If you like your results we are grateful for a citation.

  1. Neese, F.
     The ORCA program system
     WIRES Comput. Molec. Sci. 2012 2(1), 73-78
     doi.org/10.1002/wcms.81
  2. Neese, F.
     Software update: the ORCA program system, version 4.0
     WIRES Comput. Molec. Sci. 2018 8(1), 1-6
     doi.org/10.1002/wcms.1327
  3. Neese, F.; Wennmohs, F.; Becker, U.; Riplinger, C.
     The ORCA quantum chemistry program package
     J. Chem. Phys. 2020 152(22), 224108
     doi.org/10.1063/5.0004608
  4. Neese, F.
     Software update: The ORCA program system—Version 5.0
     WIRES Comput. Molec. Sci. 2022 12(1), e1606
     doi.org/10.1002/wcms.1606

List of optional additional citations

  1. Neese, F.
     Approximate second-order SCF convergence for spin unrestricted wavefunctions
     Chem. Phys. Lett. 2000 325(1-3), 93-98
     doi.org/10.1016/s0009-2614(00)00662-x

Timings for individual modules:

Sum of individual times          ...        2.442 sec (=   0.041 min)
Startup calculation              ...        0.664 sec (=   0.011 min)  27.2 %
SCF iterations                   ...        1.355 sec (=   0.023 min)  55.5 %
Property calculations            ...        0.423 sec (=   0.007 min)  17.3 %
                             ****ORCA TERMINATED NORMALLY****
TOTAL RUN TIME: 0 days 0 hours 0 minutes 2 seconds 903 msec
