
                                 *****************
                                 * O   R   C   A *
                                 *****************

                                            #,                                       
                                            ###                                      
                                            ####                                     
                                            #####                                    
                                            ######                                   
                                           ########,                                 
                                     ,,################,,,,,                         
                               ,,#################################,,                 
                          ,,##########################################,,             
                       ,#########################################, ''#####,          
                    ,#############################################,,   '####,        
                  ,##################################################,,,,####,       
                ,###########''''           ''''###############################       
              ,#####''   ,,,,##########,,,,          '''####'''          '####       
            ,##' ,,,,###########################,,,                        '##       
           ' ,,###''''                  '''############,,,                           
         ,,##''                                '''############,,,,        ,,,,,,###''
      ,#''                                            '''#######################'''  
     '                                                          ''''####''''         
             ,#######,   #######,   ,#######,      ##                                
            ,#'     '#,  ##    ##  ,#'     '#,    #''#        ,####,    ,#,          
            ##       ##  ##   ,#'  ##            #'  '#       #'       ,# #          
            ##       ##  #######   ##           ,######,      #####,      #          
            '#,     ,#'  ##    ##  '#,     ,#' ,#      #,     #,   #      #          
             '#######'   ##     ##  '#######'  #'      '#     '####' #    #          



                #########################################################
                #                        -***-                          #
                #          Department of theory and spectroscopy        #
                #                                                       #
                #                      Frank Neese                      #
                #                                                       #
                #     Directorship, Architecture, Infrastructure        #
                #                    SHARK, DRIVERS                     #
                #        Core code/Algorithms in most modules           #
                #                                                       #
                #        Max Planck Institute fuer Kohlenforschung      #
                #                Kaiser Wilhelm Platz 1                 #
                #                 D-45470 Muelheim/Ruhr                 #
                #                      Germany                          #
                #                                                       #
                #                  All rights reserved                  #
                #                        -***-                          #
                #########################################################


                         Program Version 6.1.0  -  RELEASE   -
                                (GIT: $679e74b$)
                          ($2025-06-10 18:02:51 +0200$)


 With contributions from (in alphabetic order):
[Max-Planck-Institut fuer Kohlenforschung]                               
  Daniel Aravena         : Magnetic Suceptibility                        
  Michael Atanasov       : Ab Initio Ligand Field Theory (pilot matlab implementation)
  Alexander A. Auer      : GIAO ZORA, VPT2 properties, NMR spectrum      
  Ute Becker             : All parallelization in ORCA, NUMFREQ, NUMCALC 
  Giovanni Bistoni       : ED, misc. LED, open-shell LED, HFLD           
  Dmytro Bykov           : pre 5.0 version of the SCF Hessian            
  Marcos Casanova-Páez   : Triplet and SCS-CIS(D). UHF-(DLPNO)-IP/EA/STEOM-CCSD. UHF-CVS-IP/STEOM-CCSD   
  Vijay G. Chilkuri      : MRCI spin determinant printing, contributions to CSF-ICE 
  Pauline Colinet        : FMM embedding                                 
  Dipayan Datta          : RHF DLPNO-CCSD density                        
  Achintya Kumar Dutta   : EOM-CC, STEOM-CC                              
  Nicolas Foglia         : Exact transition moments, OPA infrastructure, MCD improvements    
  Dmitry Ganyushin       : Spin-Orbit,Spin-Spin,Magnetic field MRCI      
  Miquel Garcia-Rates    : C-PCM and meta-GGA Hessian, CCSD/C-PCM, Gaussian charge scheme 
  Tiago L. C. Gouveia    : GS-ROHF, GS-ROCIS                             
  Yang Guo               : DLPNO-NEVPT2, F12-NEVPT2, CIM, IAO-localization        
  Andreas Hansen         : Spin unrestricted coupled pair/coupled cluster methods 
  Ingolf Harden          : AUTO-CI MPn and infrastructure                
  Benjamin Helmich-Paris : MC-RPA, TRAH-(SCF,CASSCF), AVAS, COSX integrals, SCF dyn. polar., MC-PDFT, srDFT 
  Lee Huntington         : MR-EOM, pCC                                   
  Robert Izsak           : Overlap fitted RIJCOSX, COSX-SCS-MP3, EOM     
  Riya Kayal             : Wick's Theorem for AUTO-CI, AUTO-CI UHF-CCSDT 
  Emily Kempfer          : AUTO-CI RHF CISDT and CCSDT, approximate NEVPT4
  Christian Kollmar      : KDIIS, OOCD, Brueckner-CCSD(T), CCSD density, CASPT2, CASPT2-K, improved NEVPT2 
  Axel Koslowski         : Symmetry handling                             
  Simone Kossmann        : meta-GGA functionals, TD-DFT gradient, OOMP2, (MP2 Hessian; deprecated post 5.0) 
  Lucas Lang             : DCDCAS, Hyperfine gauge corrections, ICE-SOC+SSC
  Marvin Lechner         : AUTO-CI (C++ implementation), FIC-MRCC        
  Spencer Leger          : CASSCF response                               
  Dagmar Lenk            : GEPOL surface, SMD, ORCA-2-JSON               
  Dimitrios Liakos       : Extrapolation schemes; Compound Job, Property file
  Dimitrios Manganas     : Further ROCIS development; embedding schemes. LFT, Crystal Embedding 
  Dimitrios Pantazis     : SARC Basis sets                               
  Anastasios Papadopoulos: AUTO-CI, single reference methods and gradients 
  Taras Petrenko         : pre 6.0 DFT Hessian and TD-DFT gradient,  ECA, NRVS 
  Petra Pikulova         : Analytic Raman intensities                    
  Peter Pinski           : DLPNO-MP2, DLPNO-MP2 Gradient                 
  Shashank Vittal Rao    : ES-AILFT, MagRelax                            
  Christoph Reimann      : Effective Core Potentials                     
  Marius Retegan         : Local ZFS, SOC                                
  Christoph Riplinger    : Optimizer, TS searches, QM/MM, DLPNO-CCSD(T), (RO)-DLPNO pert. Triples 
  Michael Roemelt        : Original ROCIS implementation, recursive CI coupling coefficients
  Masaaki Saitow         : Open-shell DLPNO-CCSD energy and density      
  Barbara Sandhoefer     : DKH picture change effects                    
  Yorick L. A. Schmerwitz: GMF and freeze-and-release deltaSCF, NEB S-IDPP initial path                    
  Kantharuban Sivalingam : CASSCF convergence/infrastructure, NEVPT2, NEVPT3, NEVPT4(SD), FIC-MRCI and CEPA variants
  Bernardo de Souza      : ESD, SOC TD-DFT                               
  Georgi L. Stoychev     : AutoAux, RI-MP2 NMR, DLPNO-MP2 response, X2C  
  Van Anh Tran           : RI-MP2 g-tensors                              
  Willem Van den Heuvel  : Paramagnetic NMR                              
  Zikuan Wang            : NOTCH, Electric field optimization            
  Frank Wennmohs         : Technical directorship and infrastructure     
  Hang Xu                : AUTO-CI-Response properties                   
                                                                         
[FACCTs GmbH]                                                            
  Markus Bursch, Nicolas Foglia, Miquel Garcia-Rates, Ingolf Harden, Hagen Neugebauer, Anastasios Papadopoulos, 
  Christoph Riplinger, Bernardo de Souza, Georgi L. Stoychev                                                    
                                                                 
  APM, various basis sets, CI-OPT, improved COSX, DLPNO-Multilevel,           
  DOCKER, DRACO, updates on ESD, Fragmentator, GOAT, IRC, LR-CPCM, L-BFGS, MBIS, meta-GGA TD-DFT gradient, ML-optimized integration grids, 
  MM, NACMEs, nearIR, NEB, NEB-TS, NL-DFT gradient (VV10), 2- and 3-layer-ONIOM, interface openCOSMO-RS, QMMM,   
  Crystal-QMMM, RESP, rigid body optimization, SF, symmetry and pop. for TD-DFT, various functionals, SOLVATOR                                   
                                                                         
[Other institutions]                                                     
  V. Asgeirsson          : NEB                                           
  Christoph Bannwarth    : sTDA-DFT, sTD-DFT, PBEh-3c, B97-3c, D3        
  Giovanni Bistoni       : ETS/NOCV, ADLD/ADEX, COVALED                  
  Martin Brehm           : Molecular dynamics                            
  Ronald Cardenas        : ETS/NOCV                                      
  Martina Colucci        : COVALED                                       
  Sebastian Ehlert       : rSCAN, r2SCAN, r2SCAN-3c, D4, dhf basis sets  
  Marvin Friede          : D4 for Fr, Ra, Ac-Lr                          
  Lars Goerigk           : TD-DFT with DH, B97 family of functionals     
  Stefan Grimme          : VdW corrections, initial TS optimization, DFT functionals, gCP, sTDA/sTD-DF 
  Waldemar Hujo          : DFT-NL                                        
  H. Jonsson             : NEB                                           
  Holger Kruse           : gCP                                           
  Marcel Mueller         : wB97X-3c, vDZP basis set                      
  Hagen Neugebauer       : wr2SCAN, Native XTB                           
  Gianluca Regni         : ADLD/ADEX                                     
  Tobias Risthaus        : pre 6.0 range-separated hybrid DFT and stability analysis
  Lukas Wittmann         : regularized MP2, r2SCAN double-hybrids, wr2SCAN        
                                                                         
We gratefully acknowledge several colleagues who have allowed us to      
interface, adapt or use parts of their codes:                            
  Ed Valeev, F. Pavosevic, A. Kumar             : LibInt (2-el integral package), F12 methods 
  Garnet Chan, S. Sharma, J. Yang, R. Olivares  : DMRG                   
  Ulf Ekstrom                                   : XCFun DFT Library      
  Mihaly Kallay                                 : mrcc  (arbitrary order and MRCC methods)
  Frank Weinhold                                : gennbo (NPA and NBO analysis)           
  Simon Mueller                                 : openCOSMO-RS                            
  Christopher J. Cramer and Donald G. Truhlar   : smd solvation model                     
  S Lehtola, MJT Oliveira, MAL Marques          : LibXC Library                           
  Liviu Ungur et al                             : ANISO software                          


 Your calculation uses the libint2 library for the computation of 2-el integrals
 For citations please refer to: http://libint.valeyev.net

 Your ORCA version has been built with support for libXC version: 7.0.0
 For citations please refer to: https://libxc.gitlab.io

 This ORCA versions uses:
   CBLAS   interface :  Fast vector & matrix operations
   LAPACKE interface :  Fast linear algebra routines
   SCALAPACK package :  Parallel linear algebra routines
   Shared memory     :  Shared parallel matrices
   BLAS/LAPACK       :  OpenBLAS 0.3.29  USE64BITINT DYNAMIC_ARCH NO_AFFINITY Zen SINGLE_THREADED
        Core in use  :  Zen
   Copyright (c) 2011-2014, The OpenBLAS Project


  ***********************************
  * Starting time: Sun Apr  5 13:01:55 2026
  * Host name:     QC1
  * Process ID:    10085
  * Working dir.:  /home/user/QC/h-shift/split_2
  ***********************************

NOTE: MaxCore=1200 MB was set to SCF,MP2,MDCI,CIPSI,MRCI,RASCI and CIS
      => If you want to overwrite this, your respective input block should be placed after the MaxCore statement
================================================================================

----- Orbital basis set information -----
Your calculation utilizes the basis: 6-31G
   H-He, Li-Ne : W. J. Hehre, R. Ditchfield and J.A. Pople, J. Chem. Phys. 56, 2257 (1972).
                 Note: He and Ne are unpublished basis sets taken from the Gaussian program.
                 Note: Li and B from J. D. Dill and J. A. Pople, J. Chem. Phys. 62, 2921 (1975).
   Na - Ar     : M. M. Francl, W. J. Pietro, W. J. Hehre, J. S. Binkley, M. S. Gordon, 
                 D. J. DeFrees and J. A. Pople, J. Chem. Phys. 77, 3654 (1982).
   K - Zn      : V. A. Rassolov, J. A. Pople, M. A. Ratner, and T. L. Windus, J. Chem. Phys. 109, 1223 (1998).

================================================================================
                                        WARNINGS
                       Please study these warnings very carefully!
================================================================================


================================================================================
                                       INPUT FILE
================================================================================
NAME = h-shift_053.inp
|  1> ! HF 6-31G
|  2> %maxcore 1200
|  3> %pal nprocs 8 end
|  4> * xyz 0 1
|  5> C   -0.20977000   0.02157600   0.02494500
|  6> H    1.74989200  -0.04539100   0.12220500
|  7> C    2.31440500   0.01914200   1.05756500
|  8> C    1.86314800  -1.15827300   1.84357800
|  9> C    0.59884900  -1.58694600   1.77961600
| 10> C   -0.29769000  -1.11246200   0.73048200
| 11> H   -0.56567600   0.07708700  -0.98355300
| 12> H    0.14031800   0.94688700   0.43359000
| 13> H    1.97426100   0.97218200   1.44676900
| 14> H    3.38434000   0.05912600   0.93851700
| 15> H    2.60580100  -1.78177700   2.30996300
| 16> H    0.31618800  -2.48798000   2.29339200
| 17> H   -0.99212100  -1.85504600   0.38580000
| 18> *
| 19> 
| 20>                          ****END OF INPUT****
================================================================================

                       ****************************
                       * Single Point Calculation *
                       ****************************

---------------------------------
CARTESIAN COORDINATES (ANGSTROEM)
---------------------------------
  C     -0.209770    0.021576    0.024945
  H      1.749892   -0.045391    0.122205
  C      2.314405    0.019142    1.057565
  C      1.863148   -1.158273    1.843578
  C      0.598849   -1.586946    1.779616
  C     -0.297690   -1.112462    0.730482
  H     -0.565676    0.077087   -0.983553
  H      0.140318    0.946887    0.433590
  H      1.974261    0.972182    1.446769
  H      3.384340    0.059126    0.938517
  H      2.605801   -1.781777    2.309963
  H      0.316188   -2.487980    2.293392
  H     -0.992121   -1.855046    0.385800

----------------------------
CARTESIAN COORDINATES (A.U.)
----------------------------
  NO LB      ZA    FRAG     MASS         X           Y           Z
   0 C     6.0000    0    12.011   -0.396408    0.040773    0.047139
   1 H     1.0000    0     1.008    3.306817   -0.085777    0.230934
   2 C     6.0000    0    12.011    4.373592    0.036173    1.998508
   3 C     6.0000    0    12.011    3.520839   -2.188819    3.483858
   4 C     6.0000    0    12.011    1.131661   -2.998893    3.362987
   5 C     6.0000    0    12.011   -0.562553   -2.102249    1.380411
   6 H     1.0000    0     1.008   -1.068973    0.145673   -1.858646
   7 H     1.0000    0     1.008    0.265163    1.789357    0.819366
   8 H     1.0000    0     1.008    3.730813    1.837158    2.733997
   9 H     1.0000    0     1.008    6.395476    0.111732    1.773540
  10 H     1.0000    0     1.008    4.924250   -3.367071    4.365197
  11 H     1.0000    0     1.008    0.597509   -4.701601    4.333883
  12 H     1.0000    0     1.008   -1.874837   -3.505529    0.729056

--------------------------------
INTERNAL COORDINATES (ANGSTROEM)
--------------------------------
 C      0   0   0     0.000000000000     0.00000000     0.00000000
 H      1   0   0     1.963216554773     0.00000000     0.00000000
 C      2   1   0     1.094412063557   123.72517494     0.00000000
 C      3   2   1     1.485851741744   104.40289041    61.20557282
 C      4   3   2     1.336526707468   121.07309350   324.58962083
 C      1   2   3     1.338489660107    90.60463697   296.61089159
 H      1   2   3     1.070896245190   112.34390404   172.21232582
 H      1   2   3     1.070398426050    71.58502227    61.99143682
 H      3   2   1     1.084187684837   101.35087939   302.20903210
 H      3   2   1     1.077279931487   114.83698346   185.39918091
 H      4   3   2     1.076013793894   118.61017126   132.38314437
 H      5   4   3     1.075046644687   119.64793922   174.96537051
 H      6   1   2     1.073532063769   117.34255124   224.53400660

---------------------------
INTERNAL COORDINATES (A.U.)
---------------------------
 C      0   0   0     0.000000000000     0.00000000     0.00000000
 H      1   0   0     3.709941630101     0.00000000     0.00000000
 C      2   1   0     2.068139077781   123.72517494     0.00000000
 C      3   2   1     2.807852867506   104.40289041    61.20557282
 C      4   3   2     2.525669447785   121.07309350   324.58962083
 C      1   2   3     2.529378890687    90.60463697   296.61089159
 H      1   2   3     2.023700621253   112.34390404   172.21232582
 H      1   2   3     2.022759879415    71.58502227    61.99143682
 H      3   2   1     2.048817802112   101.35087939   302.20903210
 H      3   2   1     2.035764040080   114.83698346   185.39918091
 H      4   3   2     2.033371386781   118.61017126   132.38314437
 H      5   4   3     2.031543739650   119.64793922   174.96537051
 H      6   1   2     2.028681596507   117.34255124   224.53400660

---------------------
BASIS SET INFORMATION
---------------------
There are 2 groups of distinct atoms

 Group   1 Type C   : 10s4p contracted to 3s2p pattern {631/31}
 Group   2 Type H   : 4s contracted to 2s pattern {31}

Atom   0C    basis set group =>   1
Atom   1H    basis set group =>   2
Atom   2C    basis set group =>   1
Atom   3C    basis set group =>   1
Atom   4C    basis set group =>   1
Atom   5C    basis set group =>   1
Atom   6H    basis set group =>   2
Atom   7H    basis set group =>   2
Atom   8H    basis set group =>   2
Atom   9H    basis set group =>   2
Atom  10H    basis set group =>   2
Atom  11H    basis set group =>   2
Atom  12H    basis set group =>   2


           ************************************************************
           *        Program running with 8 parallel MPI-processes     *
           *              working on a common directory               *
           ************************************************************
------------------------------------------------------------------------------
                             ORCA STARTUP CALCULATIONS
------------------------------------------------------------------------------
------------------------------------------------------------------------------
                   ___                                                        
                  /   \      - P O W E R E D   B Y -                         
                 /     \                                                     
                 |  |  |   _    _      __       _____    __    __             
                 |  |  |  | |  | |    /  \     |  _  \  |  |  /  |          
                  \  \/   | |  | |   /    \    | | | |  |  | /  /          
                 / \  \   | |__| |  /  /\  \   | |_| |  |  |/  /          
                |  |  |   |  __  | /  /__\  \  |    /   |      \           
                |  |  |   | |  | | |   __   |  |    \   |  |\   \          
                \     /   | |  | | |  |  |  |  | |\  \  |  | \   \       
                 \___/    |_|  |_| |__|  |__|  |_| \__\ |__|  \__/        
                                                                              
                      - O R C A' S   B I G   F R I E N D -                    
                                      &                                       
                       - I N T E G R A L  F E E D E R -                       
                                                                              
 v1 FN, 2020, v2 2021, v3 2022-2024                                           
------------------------------------------------------------------------------


----------------------
SHARK INTEGRAL PACKAGE
----------------------

Number of atoms                             ...     13
Number of basis functions                   ...     61
Number of shells                            ...     41
Maximum angular momentum                    ...      1
Integral batch strategy                     ... SHARK/LIBINT Hybrid
RI-J (if used) integral strategy            ... SPLIT-RIJ (Revised 2003 algorithm where possible)
Printlevel                                  ...      1
Contraction scheme used                     ... SEGMENTED contraction
Prescreening option                         ... SCHWARTZ
   Thresh                                   ... 1.000e-10
   Tcut                                     ... 1.000e-11
   Tpresel                                  ... 1.000e-11 
Coulomb Range Separation                    ... NOT USED
Exchange Range Separation                   ... NOT USED
Multipole approximations                    ... NOT USED
Finite Nucleus Model                        ... NOT USED
CABS basis                                  ... NOT available
Auxiliary Coulomb fitting basis             ... NOT available
Auxiliary J/K fitting basis                 ... NOT available
Auxiliary Correlation fitting basis         ... NOT available
Auxiliary 'external' fitting basis          ... NOT available

Checking pre-screening integrals            ... done (  0.0 sec) Dimension = 41
   => SHARK Basis and OBASIS are compatible. Storing Pre-screening
Shell pair information
Shell pair cut-off parameter TPreSel        ...   1.0e-11
Total number of shell pairs                 ...       861
Shell pairs after pre-screening             ...       848
Total number of primitive shell pairs       ...      5382
Primitive shell pairs kept                  ...      3783
          la=0 lb=0:    483 shell pairs
          la=1 lb=0:    310 shell pairs
          la=1 lb=1:     55 shell pairs

Checking whether 4 symmetric matrices of dimension 61 fit in memory
:Max Core in MB      =   1200.00
 MB in use           =      2.05
 MB left             =   1197.95
 MB needed           =      0.06
 Data fit in memory  = YES
Calculating Nuclear repulsion               ... done (  0.0 sec) ENN=    164.221566535569 Eh

Diagonalization of the overlap matrix:
Smallest eigenvalue                        ... 3.458e-03
Time for diagonalization                   ...    0.001 sec
Threshold for overlap eigenvalues          ... 1.000e-07
Number of eigenvalues below threshold      ... 0
Time for construction of square roots      ...    0.000 sec
Total time needed                          ...    0.002 sec

-------------------
DFT GRID GENERATION
-------------------

General Integration Accuracy     IntAcc      ... 4.388
Radial Grid Type                 RadialGrid  ... OptM3 with GC (2021)
Angular Grid (max. ang.)         AngularGrid ... 4 (Lebedev-302)
Angular grid pruning method      GridPruning ... 4 (adaptive)
Weight generation scheme         WeightScheme... mBecke (2022)
Basis function cutoff            BFCut       ... 1.0000e-10
Integration weight cutoff        WCut        ... 1.0000e-14
Partially contracted basis set               ... off
Rotationally invariant grid construction     ... off
Angular grids for H and He will be reduced by one unit

Total number of grid points                  ...    55961
Total number of batches                      ...      880
Average number of points per batch           ...       63
Average number of grid points per atom       ...     4305
Grids setup in   0.2 sec
Initializing property integral containers    ... done (  0.0 sec)

SHARK setup successfully completed in   0.3 seconds

Maximum memory used throughout the entire STARTUP-calculation: 11.8 MB


           ************************************************************
           *        Program running with 8 parallel MPI-processes     *
           *              working on a common directory               *
           ************************************************************
-------------------------------------------------------------------------------
                                 ORCA GUESS
                   Start orbitals & Density for SCF / CASSCF
-------------------------------------------------------------------------------

------------
SCF SETTINGS
------------
Hamiltonian:
 Ab initio Hamiltonian  Method          .... Hartree-Fock(GTOs)


General Settings:
 Integral files         IntName         .... h-shift_053
 Hartree-Fock type      HFTyp           .... RHF
 Total Charge           Charge          ....    0
 Multiplicity           Mult            ....    1
 Number of Electrons    NEL             ....   38
 Basis Dimension        Dim             ....   61
 Nuclear Repulsion      ENuc            ....    164.2215665356 Eh

Convergence Acceleration:
 AO-DIIS                CNVDIIS         .... on
   Start iteration      DIISMaxIt       ....    12
   Startup error        DIISStart       ....  0.200000
   # of expansion vecs  DIISMaxEq       ....     5
   Bias factor          DIISBfac        ....   1.050
   Max. coefficient     DIISMaxC        ....  10.000
 MO-DIIS                CNVKDIIS        .... off
 Trust-Rad. Augm. Hess. CNVTRAH         .... auto
   Auto Start mean grad. ratio tolernc. ....  1.125000
   Auto Start start iteration           ....    50
   Auto Start num. interpolation iter.  ....    10
   Max. Number of Micro iterations      ....    24
   Max. Number of Macro iterations      .... Maxiter - #DIIS iter
   Number of Davidson start vectors     ....     2
   Converg. threshold    (grad. norm)   ....   5.000e-05
   Grad. Scal. Fac. for Micro threshold ....   0.100
   Minimum threshold for Micro iter.    ....   1.000e-02
   NR start threshold (gradient norm)   ....   1.000e-04
   Initial trust radius                 ....   0.400
   Minimum AH scaling param. (alpha)    ....   1.000
   Maximum AH scaling param. (alpha)    .... 1000.000
   Quad. conv. algorithm                .... NR
   White noise on init. David. guess    .... on
   Maximum white noise                  ....   0.010
   Pseudo random numbers                .... off
   Inactive MOs                         .... canonical
   Orbital update algorithm             .... Taylor
   Preconditioner                       .... Diag
   Full preconditioner red. dimension   ....   250
 SOSCF                 CNVSOSCF           .... on
   Start iteration     SOSCFMaxIt         ....   150
   Startup grad/error  SOSCFStart         ....  0.003300
   Hessian update      SOSCFHessUp        .... L-BFGS
   Autom. constraints  SOSCFAutoConstrain .... off
 Level Shifting         CNVShift        .... on
   Level shift para.    LevelShift      ....    0.2500
   Turn off err/grad.   ShiftErr        ....    0.0010
 Zerner damping         CNVZerner       .... off
 Static damping         CNVDamp         .... on
   Fraction old density DampFac         ....    0.7000
   Max. Damping (<1)    DampMax         ....    0.9800
   Min. Damping (>=0)   DampMin         ....    0.0000
   Turn off err/grad.   DampErr         ....    0.1000

SCF Procedure:
 Maximum # iterations   MaxIter         ....   125
 SCF integral mode      SCFMode         .... Direct
   Integral package                     .... SHARK and LIBINT hybrid scheme
 Reset frequency        DirectResetFreq ....    20
 Integral Threshold     Thresh          ....  1.000e-10 Eh
 Primitive CutOff       TCut            ....  1.000e-11 Eh

Convergence Tolerance:
 Convergence Check Mode ConvCheckMode   .... Total+1el-Energy
 Convergence forced     ConvForced      .... 0
 Energy Change          TolE            ....  1.000e-06 Eh
 1-El. energy change                    ....  1.000e-03 Eh
 Orbital Gradient       TolG            ....  5.000e-05
 Orbital Rotation angle TolX            ....  5.000e-05
 DIIS Error             TolErr          ....  1.000e-06

------------------------------
INITIAL GUESS: MODEL POTENTIAL
------------------------------
Loading Hartree-Fock densities                     ... done
Calculating cut-offs                               ... done
Initializing the effective Hamiltonian             ... done
Setting up the integral package (SHARK)            ... done
Starting the Coulomb interaction                   ... done (   0.0 sec)
Making the grid                                    ... done (   0.1 sec)
Mapping shells                                     ... done
Starting the XC term evaluation                    ... done (   0.0 sec)
Transforming the Hamiltonian                       ... done (   0.0 sec)
Diagonalizing the Hamiltonian                      ... done (   0.0 sec)
Back transforming the eigenvectors                 ... done (   0.0 sec)
Now organizing SCF variables                       ... done
                      ------------------
                      INITIAL GUESS DONE (   0.1 sec)
                      ------------------
             **** ENERGY FILE WAS UPDATED (h-shift_053.en.tmp) ****
Finished Guess after   0.3 sec
Maximum memory used throughout the entire GUESS-calculation: 4.2 MB


           ************************************************************
           *        Program running with 8 parallel MPI-processes     *
           *              working on a common directory               *
           ************************************************************

-------------------------------------------------------------------------------------------
                                      ORCA LEAN-SCF
                              memory conserving SCF solver
-------------------------------------------------------------------------------------------

----------------------------------------D-I-I-S--------------------------------------------
Iteration    Energy (Eh)           Delta-E    RMSDP     MaxDP     DIISErr   Damp  Time(sec)
-------------------------------------------------------------------------------------------
               ***  Starting incremental Fock matrix formation  ***
    1    -193.6126338783419101     0.00e+00  1.59e-02  5.38e-02  1.83e-01  0.700   0.0
    2    -193.6931027204111047    -8.05e-02  1.26e-02  4.07e-02  1.20e-01  0.700   0.0
                               ***Turning on AO-DIIS***
    3    -193.7427721261923921    -4.97e-02  7.68e-03  2.05e-02  7.21e-02  0.700   0.0
    4    -193.7741589328462055    -3.14e-02  1.83e-02  4.45e-02  4.89e-02  0.000   0.0
                              *** Initializing SOSCF ***
---------------------------------------S-O-S-C-F--------------------------------------
Iteration    Energy (Eh)           Delta-E    RMSDP     MaxDP     MaxGrad    Time(sec)
--------------------------------------------------------------------------------------
    5    -193.8421811996024644    -6.80e-02  1.82e-03  3.08e-03  2.71e-03     0.0
               *** Restarting incremental Fock matrix formation ***
    6    -193.8423361724180154    -1.55e-04  1.05e-03  2.30e-03  1.84e-03     0.0
    7    -193.8423935692895839    -5.74e-05  8.25e-04  2.10e-03  8.44e-04     0.0
    8    -193.8424089853482997    -1.54e-05  1.10e-04  3.47e-04  1.64e-04     0.0
    9    -193.8424093908832333    -4.06e-07  4.64e-05  1.21e-04  4.38e-05     0.0
                 **** Energy Check signals convergence ****

               *****************************************************
               *                     SUCCESS                       *
               *           SCF CONVERGED AFTER   9 CYCLES          *
               *****************************************************

             **** ENERGY FILE WAS UPDATED (h-shift_053.en.tmp) ****

----------------
TOTAL SCF ENERGY
----------------

Total Energy       :       -193.84240949862630 Eh           -5274.72012 eV

Components:
Nuclear Repulsion  :        164.22156653556891 Eh            4468.69601 eV
Electronic Energy  :       -358.06397603419521 Eh           -9743.41613 eV
One Electron Energy:       -585.32307381591716 Eh          -15927.45057 eV
Two Electron Energy:        227.25909778172195 Eh            6184.03444 eV

Virial components:
Potential Energy   :       -388.12130593349002 Eh          -10561.31766 eV
Kinetic Energy     :        194.27889643486370 Eh            5286.59754 eV
Virial Ratio       :          1.99775329722246

---------------
SCF CONVERGENCE
---------------

  Last Energy change         ...    4.0553e-07  Tolerance :   1.0000e-06
  Last MAX-Density change    ...    1.2058e-04  Tolerance :   1.0000e-05
  Last RMS-Density change    ...    4.6351e-05  Tolerance :   1.0000e-06
  Last DIIS Error            ...    2.7103e-03  Tolerance :   1.0000e-06
  Last Orbital Gradient      ...    4.3843e-05  Tolerance :   5.0000e-05
  Last Orbital Rotation      ...    4.0526e-05  Tolerance :   5.0000e-05


----------------
ORBITAL ENERGIES
----------------

  NO   OCC          E(Eh)            E(eV) 
   0   2.0000     -11.236907      -305.7718 
   1   2.0000     -11.236260      -305.7542 
   2   2.0000     -11.227993      -305.5292 
   3   2.0000     -11.221795      -305.3606 
   4   2.0000     -11.208418      -304.9965 
   5   2.0000      -1.113038       -30.2873 
   6   2.0000      -1.016185       -27.6518 
   7   2.0000      -0.945551       -25.7297 
   8   2.0000      -0.810301       -22.0494 
   9   2.0000      -0.725386       -19.7388 
  10   2.0000      -0.674469       -18.3532 
  11   2.0000      -0.598704       -16.2916 
  12   2.0000      -0.584016       -15.8919 
  13   2.0000      -0.560935       -15.2638 
  14   2.0000      -0.550978       -14.9929 
  15   2.0000      -0.508646       -13.8410 
  16   2.0000      -0.483575       -13.1587 
  17   2.0000      -0.392405       -10.6779 
  18   2.0000      -0.306878        -8.3506 
  19   0.0000       0.129164         3.5147 
  20   0.0000       0.211661         5.7596 
  21   0.0000       0.245642         6.6843 
  22   0.0000       0.276115         7.5135 
  23   0.0000       0.291899         7.9430 
  24   0.0000       0.327055         8.8996 
  25   0.0000       0.335767         9.1367 
  26   0.0000       0.354030         9.6337 
  27   0.0000       0.376487        10.2447 
  28   0.0000       0.383780        10.4432 
  29   0.0000       0.435036        11.8379 
*Only the first 10 virtual orbitals were printed.

                    ********************************
                    * MULLIKEN POPULATION ANALYSIS *
                    ********************************

-----------------------
MULLIKEN ATOMIC CHARGES
-----------------------
   0 C :   -0.398159
   1 H :    0.197472
   2 C :   -0.525307
   3 C :   -0.136331
   4 C :   -0.197096
   5 C :   -0.159175
   6 H :    0.167271
   7 H :    0.186386
   8 H :    0.172953
   9 H :    0.156770
  10 H :    0.182191
  11 H :    0.176794
  12 H :    0.176231
Sum of atomic charges:    0.0000000

--------------------------------
MULLIKEN REDUCED ORBITAL CHARGES
--------------------------------
  0 C s       :     3.290461  s :     3.290461
      pz      :     1.064945  p :     3.107698
      px      :     1.032650
      py      :     1.010103

  1 H s       :     0.802528  s :     0.802528

  2 C s       :     3.371626  s :     3.371626
      pz      :     1.050152  p :     3.153681
      px      :     1.114959
      py      :     0.988570

  3 C s       :     3.209608  s :     3.209608
      pz      :     0.955604  p :     2.926723
      px      :     0.993573
      py      :     0.977546

  4 C s       :     3.199309  s :     3.199309
      pz      :     1.007577  p :     2.997788
      px      :     0.926973
      py      :     1.063238

  5 C s       :     3.198793  s :     3.198793
      pz      :     0.916536  p :     2.960381
      px      :     1.039817
      py      :     1.004028

  6 H s       :     0.832729  s :     0.832729

  7 H s       :     0.813614  s :     0.813614

  8 H s       :     0.827047  s :     0.827047

  9 H s       :     0.843230  s :     0.843230

 10 H s       :     0.817809  s :     0.817809

 11 H s       :     0.823206  s :     0.823206

 12 H s       :     0.823769  s :     0.823769



                     *******************************
                     * LOEWDIN POPULATION ANALYSIS *
                     *******************************

----------------------
LOEWDIN ATOMIC CHARGES
----------------------
   0 C :   -0.263294
   1 H :    0.143230
   2 C :   -0.328985
   3 C :   -0.101520
   4 C :   -0.153116
   5 C :   -0.116231
   6 H :    0.117494
   7 H :    0.122031
   8 H :    0.115062
   9 H :    0.109529
  10 H :    0.119419
  11 H :    0.117748
  12 H :    0.118632

-------------------------------
LOEWDIN REDUCED ORBITAL CHARGES
-------------------------------
  0 C s       :     2.992510  s :     2.992510
      pz      :     1.106066  p :     3.270784
      px      :     1.056482
      py      :     1.108237

  1 H s       :     0.856770  s :     0.856770

  2 C s       :     2.979173  s :     2.979173
      pz      :     1.130748  p :     3.349811
      px      :     1.129349
      py      :     1.089715

  3 C s       :     2.952678  s :     2.952678
      pz      :     0.997157  p :     3.148843
      px      :     1.101792
      py      :     1.049894

  4 C s       :     2.942668  s :     2.942668
      pz      :     1.055903  p :     3.210448
      px      :     1.082191
      py      :     1.072354

  5 C s       :     2.944518  s :     2.944518
      pz      :     1.031209  p :     3.171713
      px      :     1.034157
      py      :     1.106347

  6 H s       :     0.882506  s :     0.882506

  7 H s       :     0.877969  s :     0.877969

  8 H s       :     0.884938  s :     0.884938

  9 H s       :     0.890471  s :     0.890471

 10 H s       :     0.880581  s :     0.880581

 11 H s       :     0.882252  s :     0.882252

 12 H s       :     0.881368  s :     0.881368



                      *****************************
                      * MAYER POPULATION ANALYSIS *
                      *****************************

  NA   - Mulliken gross atomic population
  ZA   - Total nuclear charge
  QA   - Mulliken gross atomic charge
  VA   - Mayer's total valence
  BVA  - Mayer's bonded valence
  FA   - Mayer's free valence

  ATOM       NA         ZA         QA         VA         BVA        FA
  0 C      6.3982     6.0000    -0.3982     3.8140     3.8140     0.0000
  1 H      0.8025     1.0000     0.1975     0.9132     0.9132    -0.0000
  2 C      6.5253     6.0000    -0.5253     3.7581     3.7581     0.0000
  3 C      6.1363     6.0000    -0.1363     3.7439     3.7439     0.0000
  4 C      6.1971     6.0000    -0.1971     3.8117     3.8117     0.0000
  5 C      6.1592     6.0000    -0.1592     3.7958     3.7958     0.0000
  6 H      0.8327     1.0000     0.1673     0.9405     0.9405    -0.0000
  7 H      0.8136     1.0000     0.1864     0.9284     0.9284     0.0000
  8 H      0.8270     1.0000     0.1730     0.9202     0.9202     0.0000
  9 H      0.8432     1.0000     0.1568     0.9391     0.9391     0.0000
 10 H      0.8178     1.0000     0.1822     0.9382     0.9382     0.0000
 11 H      0.8232     1.0000     0.1768     0.9388     0.9388     0.0000
 12 H      0.8238     1.0000     0.1762     0.9359     0.9359    -0.0000

  Mayer bond orders larger than 0.100000
B(  0-C ,  5-C ) :   1.8076 B(  0-C ,  6-H ) :   0.9593 B(  0-C ,  7-H ) :   0.9593 
B(  1-H ,  2-C ) :   0.9009 B(  2-C ,  3-C ) :   0.9776 B(  2-C ,  8-H ) :   0.9455 
B(  2-C ,  9-H ) :   0.9622 B(  3-C ,  4-C ) :   1.8179 B(  3-C , 10-H ) :   0.9550 
B(  4-C ,  5-C ) :   1.0926 B(  4-C , 11-H ) :   0.9571 B(  5-C , 12-H ) :   0.9576 


-------
TIMINGS
-------

Total SCF time: 0 days 0 hours 0 min 0 sec 

Total time                  ....       0.634 sec
Sum of individual times     ....       0.590 sec  ( 93.1%)

SCF preparation             ....       0.256 sec  ( 40.3%)
Fock matrix formation       ....       0.280 sec  ( 44.1%)
  Startup                   ....       0.002 sec  (  0.5% of F)
  Coulomb+Exchange Fock     ....       0.299 sec  (106.8% of F)
Diagonalization             ....       0.000 sec  (  0.0%)
Density matrix formation    ....       0.008 sec  (  1.2%)
Total Energy calculation    ....       0.004 sec  (  0.7%)
Population analysis         ....       0.005 sec  (  0.7%)
Orbital Transformation      ....       0.005 sec  (  0.7%)
Orbital Orthonormalization  ....       0.000 sec  (  0.0%)
DIIS solution               ....       0.020 sec  (  3.2%)
SOSCF solution              ....       0.013 sec  (  2.1%)
Finished LeanSCF after   0.6 sec

Maximum memory used throughout the entire LEANSCF-calculation: 6.5 MB

-------------------------   --------------------
FINAL SINGLE POINT ENERGY      -193.842409498626
-------------------------   --------------------



           ************************************************************
           *        Program running with 8 parallel MPI-processes     *
           *              working on a common directory               *
           ************************************************************

------------------------------------------------------------------------------
                              ORCA PROPERTY CALCULATIONS
------------------------------------------------------------------------------

GBWName                                 ... h-shift_053.gbw
Number of atoms                         ...     13
Number of basis functions               ...     61
Max core memory                         ...   1200 MB

Electric properties:
Dipole moment                           ... YES
Quadrupole moment                       ...  NO
Static polarizability (Dipole/Dipole)   ...  NO
Static polarizability (Dipole/Quad.)    ...  NO
Static polarizability (Quad./Quad.)     ...  NO
Static polarizability (Velocity)        ...  NO
Static hyperpolarizability              ...  NO

Atomic electric properties:
Dipole moment                           ...  NO
Quadrupole moment                       ...  NO
Static polarizability                   ...  NO

Choice of electric origin               ... Center of mass
Position of electric origin             ...     1.663277    -1.386893     2.005611

General magnetic properties:
Magnetizability                         ...  NO

EPR properties:
g-Tensor (aka g-matrix)                 ...  NO
Zero-Field splitting spin-orbit         ...  NO
Zero-field splitting spin-spin          ...  NO
Hyperfine couplings                     ...  NO (   0 nuclei)
Quadrupole couplings                    ...  NO (   0 nuclei)
Contact density                         ...  NO (   0 nuclei)

NMR properties:
Chemical shifts                         ...  NO (   0 nuclei)
Spin-rotation constants                 ...  NO (   0 nuclei)
Spin-spin couplings                     ...  NO (   0 nuclei,    0 pairs)

Choice of magnetic origin               ... GIAO
Position of magnetic origin             ...     0.000000     0.000000     0.000000

Properties with geometric perturbations:
SCF Hessian                             ...  NO
IR spectrum                             ...  NO
VCD spectrum                            ...  NO
X-ray spectroscopy properties:
SCF XES/XAS/RIXS spectra                ...  NO

SCF SOC stabilization energy            ...  NO
Diagonal Born-Oppenheimer correction    ...  NO

-------------
DIPOLE MOMENT
-------------

Method             : SCF
Type of density    : Electron Density
Multiplicity       :   1
Irrep              :   0
Energy             :  -193.8424094986262958 Eh
Basis              : AO
                                X                 Y                 Z
Electronic contribution:     -1.332709467      -1.709181893       1.324440344
Nuclear contribution   :      1.474492814       1.647800511      -1.448454270
                        -----------------------------------------
Total Dipole Moment    :      0.141783347      -0.061381382      -0.124013926
                        -----------------------------------------
Magnitude (a.u.)       :      0.198115232
Magnitude (Debye)      :      0.503568901



--------------------
Rotational spectrum 
--------------------
 
Rotational constants in cm-1:             0.273524             0.162662             0.105784 
Rotational constants in MHz :          8200.037810          4876.469352          3171.335349 

Dipole components along the rotational axes: 
x,y,z [a.u.] :    -0.074320    -0.055588    -0.175032 
x,y,z [Debye]:    -0.188905    -0.141293    -0.444896 

 

Dipole moment calculation done in   0.0 sec 

Maximum memory used throughout the entire PROP-calculation: 2.2 MB

--------------------------------
SUGGESTED CITATIONS FOR THIS RUN
--------------------------------

Below you find a list of papers that are relevant to this ORCA run
We neither can nor want to force you to cite these papers, but we appreciate if you do
You receive ORCA, which is the product of decades of hard work by many enthusiastic individuals, for free
The only thing we kindly ask in return is that you cite our papers,
We deeply appreciate it, if you show your appreciation for ORCA by not just citing the generic ORCA reference.

Please note that relegating all ORCA citations to the supporting information does *not* help us.
SI sections are not indexed - citations you put there will not count into any citation statistics
But we need these citations in order to attract the funding resources that allow us to do what we are doing

Therefore, if you are a happy ORCA user, please consider citing a few of the papers listed below in the main body of your paper

In addition to the list printed below, the program has created the file h-shift_053.bibtex that contains the list in bibtex format
You can import this file easily into all common literature databanks and citation aid programs


List of essential papers. We consider these as the minimum necessary citations

  1. Neese, F.
     Software update: the ORCA program system, version 6.0
     WIRES Comput. Molec. Sci. 2025 15(1), e70019
     doi.org/10.1002/wcms.7019

List of papers to cite with high priority. The work reported in these papers was absolutely
necessary for this run to complete.
Our perspective: the developers of density functionals and basis sets usually get cited in chemistry papers
Good! But without the algorithms to do something with them, the functionals or basis sets would not do anything.
Hence, in our opinion, the algorithm design and method developments papers are equally worthy of getting cited

  1. Neese, F.
     The SHARK Integral Generation and Digestion System
     J. Comp. Chem. 2022 44(3), 381
     doi.org/10.1002/jcc.26942

List of suggested additional citations. These are papers that are important in the 'surrounding' of 
of this run, or papers that preceded the highly important papers. If you like your results we are grateful for a citation.

  1. Neese, F.
     The ORCA program system
     WIRES Comput. Molec. Sci. 2012 2(1), 73-78
     doi.org/10.1002/wcms.81
  2. Neese, F.
     Software update: the ORCA program system, version 4.0
     WIRES Comput. Molec. Sci. 2018 8(1), 1-6
     doi.org/10.1002/wcms.1327
  3. Neese, F.; Wennmohs, F.; Becker, U.; Riplinger, C.
     The ORCA quantum chemistry program package
     J. Chem. Phys. 2020 152(22), 224108
     doi.org/10.1063/5.0004608
  4. Neese, F.
     Software update: The ORCA program system—Version 5.0
     WIRES Comput. Molec. Sci. 2022 12(1), e1606
     doi.org/10.1002/wcms.1606

List of optional additional citations

  1. Neese, F.
     Approximate second-order SCF convergence for spin unrestricted wavefunctions
     Chem. Phys. Lett. 2000 325(1-3), 93-98
     doi.org/10.1016/s0009-2614(00)00662-x

Timings for individual modules:

Sum of individual times          ...        2.223 sec (=   0.037 min)
Startup calculation              ...        0.648 sec (=   0.011 min)  29.1 %
SCF iterations                   ...        1.189 sec (=   0.020 min)  53.5 %
Property calculations            ...        0.387 sec (=   0.006 min)  17.4 %
                             ****ORCA TERMINATED NORMALLY****
TOTAL RUN TIME: 0 days 0 hours 0 minutes 2 seconds 672 msec
