
                                 *****************
                                 * O   R   C   A *
                                 *****************

                                            #,                                       
                                            ###                                      
                                            ####                                     
                                            #####                                    
                                            ######                                   
                                           ########,                                 
                                     ,,################,,,,,                         
                               ,,#################################,,                 
                          ,,##########################################,,             
                       ,#########################################, ''#####,          
                    ,#############################################,,   '####,        
                  ,##################################################,,,,####,       
                ,###########''''           ''''###############################       
              ,#####''   ,,,,##########,,,,          '''####'''          '####       
            ,##' ,,,,###########################,,,                        '##       
           ' ,,###''''                  '''############,,,                           
         ,,##''                                '''############,,,,        ,,,,,,###''
      ,#''                                            '''#######################'''  
     '                                                          ''''####''''         
             ,#######,   #######,   ,#######,      ##                                
            ,#'     '#,  ##    ##  ,#'     '#,    #''#        ,####,    ,#,          
            ##       ##  ##   ,#'  ##            #'  '#       #'       ,# #          
            ##       ##  #######   ##           ,######,      #####,      #          
            '#,     ,#'  ##    ##  '#,     ,#' ,#      #,     #,   #      #          
             '#######'   ##     ##  '#######'  #'      '#     '####' #    #          



                #########################################################
                #                        -***-                          #
                #          Department of theory and spectroscopy        #
                #                                                       #
                #                      Frank Neese                      #
                #                                                       #
                #     Directorship, Architecture, Infrastructure        #
                #                    SHARK, DRIVERS                     #
                #        Core code/Algorithms in most modules           #
                #                                                       #
                #        Max Planck Institute fuer Kohlenforschung      #
                #                Kaiser Wilhelm Platz 1                 #
                #                 D-45470 Muelheim/Ruhr                 #
                #                      Germany                          #
                #                                                       #
                #                  All rights reserved                  #
                #                        -***-                          #
                #########################################################


                         Program Version 6.1.0  -  RELEASE   -
                                (GIT: $679e74b$)
                          ($2025-06-10 18:02:51 +0200$)


 With contributions from (in alphabetic order):
[Max-Planck-Institut fuer Kohlenforschung]                               
  Daniel Aravena         : Magnetic Suceptibility                        
  Michael Atanasov       : Ab Initio Ligand Field Theory (pilot matlab implementation)
  Alexander A. Auer      : GIAO ZORA, VPT2 properties, NMR spectrum      
  Ute Becker             : All parallelization in ORCA, NUMFREQ, NUMCALC 
  Giovanni Bistoni       : ED, misc. LED, open-shell LED, HFLD           
  Dmytro Bykov           : pre 5.0 version of the SCF Hessian            
  Marcos Casanova-Páez   : Triplet and SCS-CIS(D). UHF-(DLPNO)-IP/EA/STEOM-CCSD. UHF-CVS-IP/STEOM-CCSD   
  Vijay G. Chilkuri      : MRCI spin determinant printing, contributions to CSF-ICE 
  Pauline Colinet        : FMM embedding                                 
  Dipayan Datta          : RHF DLPNO-CCSD density                        
  Achintya Kumar Dutta   : EOM-CC, STEOM-CC                              
  Nicolas Foglia         : Exact transition moments, OPA infrastructure, MCD improvements    
  Dmitry Ganyushin       : Spin-Orbit,Spin-Spin,Magnetic field MRCI      
  Miquel Garcia-Rates    : C-PCM and meta-GGA Hessian, CCSD/C-PCM, Gaussian charge scheme 
  Tiago L. C. Gouveia    : GS-ROHF, GS-ROCIS                             
  Yang Guo               : DLPNO-NEVPT2, F12-NEVPT2, CIM, IAO-localization        
  Andreas Hansen         : Spin unrestricted coupled pair/coupled cluster methods 
  Ingolf Harden          : AUTO-CI MPn and infrastructure                
  Benjamin Helmich-Paris : MC-RPA, TRAH-(SCF,CASSCF), AVAS, COSX integrals, SCF dyn. polar., MC-PDFT, srDFT 
  Lee Huntington         : MR-EOM, pCC                                   
  Robert Izsak           : Overlap fitted RIJCOSX, COSX-SCS-MP3, EOM     
  Riya Kayal             : Wick's Theorem for AUTO-CI, AUTO-CI UHF-CCSDT 
  Emily Kempfer          : AUTO-CI RHF CISDT and CCSDT, approximate NEVPT4
  Christian Kollmar      : KDIIS, OOCD, Brueckner-CCSD(T), CCSD density, CASPT2, CASPT2-K, improved NEVPT2 
  Axel Koslowski         : Symmetry handling                             
  Simone Kossmann        : meta-GGA functionals, TD-DFT gradient, OOMP2, (MP2 Hessian; deprecated post 5.0) 
  Lucas Lang             : DCDCAS, Hyperfine gauge corrections, ICE-SOC+SSC
  Marvin Lechner         : AUTO-CI (C++ implementation), FIC-MRCC        
  Spencer Leger          : CASSCF response                               
  Dagmar Lenk            : GEPOL surface, SMD, ORCA-2-JSON               
  Dimitrios Liakos       : Extrapolation schemes; Compound Job, Property file
  Dimitrios Manganas     : Further ROCIS development; embedding schemes. LFT, Crystal Embedding 
  Dimitrios Pantazis     : SARC Basis sets                               
  Anastasios Papadopoulos: AUTO-CI, single reference methods and gradients 
  Taras Petrenko         : pre 6.0 DFT Hessian and TD-DFT gradient,  ECA, NRVS 
  Petra Pikulova         : Analytic Raman intensities                    
  Peter Pinski           : DLPNO-MP2, DLPNO-MP2 Gradient                 
  Shashank Vittal Rao    : ES-AILFT, MagRelax                            
  Christoph Reimann      : Effective Core Potentials                     
  Marius Retegan         : Local ZFS, SOC                                
  Christoph Riplinger    : Optimizer, TS searches, QM/MM, DLPNO-CCSD(T), (RO)-DLPNO pert. Triples 
  Michael Roemelt        : Original ROCIS implementation, recursive CI coupling coefficients
  Masaaki Saitow         : Open-shell DLPNO-CCSD energy and density      
  Barbara Sandhoefer     : DKH picture change effects                    
  Yorick L. A. Schmerwitz: GMF and freeze-and-release deltaSCF, NEB S-IDPP initial path                    
  Kantharuban Sivalingam : CASSCF convergence/infrastructure, NEVPT2, NEVPT3, NEVPT4(SD), FIC-MRCI and CEPA variants
  Bernardo de Souza      : ESD, SOC TD-DFT                               
  Georgi L. Stoychev     : AutoAux, RI-MP2 NMR, DLPNO-MP2 response, X2C  
  Van Anh Tran           : RI-MP2 g-tensors                              
  Willem Van den Heuvel  : Paramagnetic NMR                              
  Zikuan Wang            : NOTCH, Electric field optimization            
  Frank Wennmohs         : Technical directorship and infrastructure     
  Hang Xu                : AUTO-CI-Response properties                   
                                                                         
[FACCTs GmbH]                                                            
  Markus Bursch, Nicolas Foglia, Miquel Garcia-Rates, Ingolf Harden, Hagen Neugebauer, Anastasios Papadopoulos, 
  Christoph Riplinger, Bernardo de Souza, Georgi L. Stoychev                                                    
                                                                 
  APM, various basis sets, CI-OPT, improved COSX, DLPNO-Multilevel,           
  DOCKER, DRACO, updates on ESD, Fragmentator, GOAT, IRC, LR-CPCM, L-BFGS, MBIS, meta-GGA TD-DFT gradient, ML-optimized integration grids, 
  MM, NACMEs, nearIR, NEB, NEB-TS, NL-DFT gradient (VV10), 2- and 3-layer-ONIOM, interface openCOSMO-RS, QMMM,   
  Crystal-QMMM, RESP, rigid body optimization, SF, symmetry and pop. for TD-DFT, various functionals, SOLVATOR                                   
                                                                         
[Other institutions]                                                     
  V. Asgeirsson          : NEB                                           
  Christoph Bannwarth    : sTDA-DFT, sTD-DFT, PBEh-3c, B97-3c, D3        
  Giovanni Bistoni       : ETS/NOCV, ADLD/ADEX, COVALED                  
  Martin Brehm           : Molecular dynamics                            
  Ronald Cardenas        : ETS/NOCV                                      
  Martina Colucci        : COVALED                                       
  Sebastian Ehlert       : rSCAN, r2SCAN, r2SCAN-3c, D4, dhf basis sets  
  Marvin Friede          : D4 for Fr, Ra, Ac-Lr                          
  Lars Goerigk           : TD-DFT with DH, B97 family of functionals     
  Stefan Grimme          : VdW corrections, initial TS optimization, DFT functionals, gCP, sTDA/sTD-DF 
  Waldemar Hujo          : DFT-NL                                        
  H. Jonsson             : NEB                                           
  Holger Kruse           : gCP                                           
  Marcel Mueller         : wB97X-3c, vDZP basis set                      
  Hagen Neugebauer       : wr2SCAN, Native XTB                           
  Gianluca Regni         : ADLD/ADEX                                     
  Tobias Risthaus        : pre 6.0 range-separated hybrid DFT and stability analysis
  Lukas Wittmann         : regularized MP2, r2SCAN double-hybrids, wr2SCAN        
                                                                         
We gratefully acknowledge several colleagues who have allowed us to      
interface, adapt or use parts of their codes:                            
  Ed Valeev, F. Pavosevic, A. Kumar             : LibInt (2-el integral package), F12 methods 
  Garnet Chan, S. Sharma, J. Yang, R. Olivares  : DMRG                   
  Ulf Ekstrom                                   : XCFun DFT Library      
  Mihaly Kallay                                 : mrcc  (arbitrary order and MRCC methods)
  Frank Weinhold                                : gennbo (NPA and NBO analysis)           
  Simon Mueller                                 : openCOSMO-RS                            
  Christopher J. Cramer and Donald G. Truhlar   : smd solvation model                     
  S Lehtola, MJT Oliveira, MAL Marques          : LibXC Library                           
  Liviu Ungur et al                             : ANISO software                          


 Your calculation uses the libint2 library for the computation of 2-el integrals
 For citations please refer to: http://libint.valeyev.net

 Your ORCA version has been built with support for libXC version: 7.0.0
 For citations please refer to: https://libxc.gitlab.io

 This ORCA versions uses:
   CBLAS   interface :  Fast vector & matrix operations
   LAPACKE interface :  Fast linear algebra routines
   SCALAPACK package :  Parallel linear algebra routines
   Shared memory     :  Shared parallel matrices
   BLAS/LAPACK       :  OpenBLAS 0.3.29  USE64BITINT DYNAMIC_ARCH NO_AFFINITY Zen SINGLE_THREADED
        Core in use  :  Zen
   Copyright (c) 2011-2014, The OpenBLAS Project


  ***********************************
  * Starting time: Sun Apr  5 13:01:50 2026
  * Host name:     QC1
  * Process ID:    9789
  * Working dir.:  /home/user/QC/h-shift/split_2
  ***********************************

NOTE: MaxCore=1200 MB was set to SCF,MP2,MDCI,CIPSI,MRCI,RASCI and CIS
      => If you want to overwrite this, your respective input block should be placed after the MaxCore statement
================================================================================

----- Orbital basis set information -----
Your calculation utilizes the basis: 6-31G
   H-He, Li-Ne : W. J. Hehre, R. Ditchfield and J.A. Pople, J. Chem. Phys. 56, 2257 (1972).
                 Note: He and Ne are unpublished basis sets taken from the Gaussian program.
                 Note: Li and B from J. D. Dill and J. A. Pople, J. Chem. Phys. 62, 2921 (1975).
   Na - Ar     : M. M. Francl, W. J. Pietro, W. J. Hehre, J. S. Binkley, M. S. Gordon, 
                 D. J. DeFrees and J. A. Pople, J. Chem. Phys. 77, 3654 (1982).
   K - Zn      : V. A. Rassolov, J. A. Pople, M. A. Ratner, and T. L. Windus, J. Chem. Phys. 109, 1223 (1998).

================================================================================
                                        WARNINGS
                       Please study these warnings very carefully!
================================================================================


================================================================================
                                       INPUT FILE
================================================================================
NAME = h-shift_051.inp
|  1> ! HF 6-31G
|  2> %maxcore 1200
|  3> %pal nprocs 8 end
|  4> * xyz 0 1
|  5> C   -0.12995600   0.00752200   0.00932100
|  6> H    1.65445800  -0.04742200   0.12143700
|  7> C    2.31108700   0.01555800   1.06023100
|  8> C    1.86542600  -1.15133100   1.84812900
|  9> C    0.59913000  -1.58444200   1.78260300
| 10> C   -0.28061000  -1.11414600   0.73569800
| 11> H   -0.52560400   0.07231900  -0.98086800
| 12> H    0.11424200   0.95718900   0.44753400
| 13> H    1.95838200   0.97649700   1.42323200
| 14> H    3.39436600   0.06052200   0.95657500
| 15> H    2.60790600  -1.79815800   2.28439100
| 16> H    0.31889700  -2.48905300   2.28934100
| 17> H   -1.00577800  -1.83693000   0.40524500
| 18> *
| 19> 
| 20>                          ****END OF INPUT****
================================================================================

                       ****************************
                       * Single Point Calculation *
                       ****************************

---------------------------------
CARTESIAN COORDINATES (ANGSTROEM)
---------------------------------
  C     -0.129956    0.007522    0.009321
  H      1.654458   -0.047422    0.121437
  C      2.311087    0.015558    1.060231
  C      1.865426   -1.151331    1.848129
  C      0.599130   -1.584442    1.782603
  C     -0.280610   -1.114146    0.735698
  H     -0.525604    0.072319   -0.980868
  H      0.114242    0.957189    0.447534
  H      1.958382    0.976497    1.423232
  H      3.394366    0.060522    0.956575
  H      2.607906   -1.798158    2.284391
  H      0.318897   -2.489053    2.289341
  H     -1.005778   -1.836930    0.405245

----------------------------
CARTESIAN COORDINATES (A.U.)
----------------------------
  NO LB      ZA    FRAG     MASS         X           Y           Z
   0 C     6.0000    0    12.011   -0.245581    0.014215    0.017614
   1 H     1.0000    0     1.008    3.126473   -0.089615    0.229483
   2 C     6.0000    0    12.011    4.367322    0.029400    2.003546
   3 C     6.0000    0    12.011    3.525144   -2.175700    3.492458
   4 C     6.0000    0    12.011    1.132192   -2.994161    3.368631
   5 C     6.0000    0    12.011   -0.530276   -2.105431    1.390268
   6 H     1.0000    0     1.008   -0.993248    0.136663   -1.853572
   7 H     1.0000    0     1.008    0.215886    1.808825    0.845717
   8 H     1.0000    0     1.008    3.700806    1.845312    2.689519
   9 H     1.0000    0     1.008    6.414422    0.114370    1.807665
  10 H     1.0000    0     1.008    4.928228   -3.398026    4.316873
  11 H     1.0000    0     1.008    0.602628   -4.703629    4.326228
  12 H     1.0000    0     1.008   -1.900645   -3.471295    0.765802

--------------------------------
INTERNAL COORDINATES (ANGSTROEM)
--------------------------------
 C      0   0   0     0.000000000000     0.00000000     0.00000000
 H      1   0   0     1.788776722788     0.00000000     0.00000000
 C      2   1   0     1.147371909399   128.35201903     0.00000000
 C      3   2   1     1.476830025306   102.73555769    60.20283763
 C      4   3   2     1.339919532887   120.96382458   328.35303613
 C      1   2   3     1.344789677261    92.99680548   297.73780785
 H      1   2   3     1.068274424871   115.43060773   171.57234406
 H      1   2   3     1.074025468721    76.98382636    60.80114559
 H      3   2   1     1.086082089322    97.82720307   302.26039263
 H      3   2   1     1.089155507480   119.57733042   185.68139879
 H      4   3   2     1.077026578582   118.85512309   133.36500420
 H      5   4   3     1.074074018052   119.71832415   174.16397131
 H      6   1   2     1.075864547278   118.03152667   222.83197607

---------------------------
INTERNAL COORDINATES (A.U.)
---------------------------
 C      0   0   0     0.000000000000     0.00000000     0.00000000
 H      1   0   0     3.380298120802     0.00000000     0.00000000
 C      2   1   0     2.168218682518   128.35201903     0.00000000
 C      3   2   1     2.790804294181   102.73555769    60.20283763
 C      4   3   2     2.532080958649   120.96382458   328.35303613
 C      1   2   3     2.541284197749    92.99680548   297.73780785
 H      1   2   3     2.018746098879   115.43060773   171.57234406
 H      1   2   3     2.029613996740    76.98382636    60.80114559
 H      3   2   1     2.052397707776    97.82720307   302.26039263
 H      3   2   1     2.058205626388   119.57733042   185.68139879
 H      4   3   2     2.035285272475   118.85512309   133.36500420
 H      5   4   3     2.029705741678   119.71832415   174.16397131
 H      6   1   2     2.033089351550   118.03152667   222.83197607

---------------------
BASIS SET INFORMATION
---------------------
There are 2 groups of distinct atoms

 Group   1 Type C   : 10s4p contracted to 3s2p pattern {631/31}
 Group   2 Type H   : 4s contracted to 2s pattern {31}

Atom   0C    basis set group =>   1
Atom   1H    basis set group =>   2
Atom   2C    basis set group =>   1
Atom   3C    basis set group =>   1
Atom   4C    basis set group =>   1
Atom   5C    basis set group =>   1
Atom   6H    basis set group =>   2
Atom   7H    basis set group =>   2
Atom   8H    basis set group =>   2
Atom   9H    basis set group =>   2
Atom  10H    basis set group =>   2
Atom  11H    basis set group =>   2
Atom  12H    basis set group =>   2


           ************************************************************
           *        Program running with 8 parallel MPI-processes     *
           *              working on a common directory               *
           ************************************************************
------------------------------------------------------------------------------
                             ORCA STARTUP CALCULATIONS
------------------------------------------------------------------------------
------------------------------------------------------------------------------
                   ___                                                        
                  /   \      - P O W E R E D   B Y -                         
                 /     \                                                     
                 |  |  |   _    _      __       _____    __    __             
                 |  |  |  | |  | |    /  \     |  _  \  |  |  /  |          
                  \  \/   | |  | |   /    \    | | | |  |  | /  /          
                 / \  \   | |__| |  /  /\  \   | |_| |  |  |/  /          
                |  |  |   |  __  | /  /__\  \  |    /   |      \           
                |  |  |   | |  | | |   __   |  |    \   |  |\   \          
                \     /   | |  | | |  |  |  |  | |\  \  |  | \   \       
                 \___/    |_|  |_| |__|  |__|  |_| \__\ |__|  \__/        
                                                                              
                      - O R C A' S   B I G   F R I E N D -                    
                                      &                                       
                       - I N T E G R A L  F E E D E R -                       
                                                                              
 v1 FN, 2020, v2 2021, v3 2022-2024                                           
------------------------------------------------------------------------------


----------------------
SHARK INTEGRAL PACKAGE
----------------------

Number of atoms                             ...     13
Number of basis functions                   ...     61
Number of shells                            ...     41
Maximum angular momentum                    ...      1
Integral batch strategy                     ... SHARK/LIBINT Hybrid
RI-J (if used) integral strategy            ... SPLIT-RIJ (Revised 2003 algorithm where possible)
Printlevel                                  ...      1
Contraction scheme used                     ... SEGMENTED contraction
Prescreening option                         ... SCHWARTZ
   Thresh                                   ... 1.000e-10
   Tcut                                     ... 1.000e-11
   Tpresel                                  ... 1.000e-11 
Coulomb Range Separation                    ... NOT USED
Exchange Range Separation                   ... NOT USED
Multipole approximations                    ... NOT USED
Finite Nucleus Model                        ... NOT USED
CABS basis                                  ... NOT available
Auxiliary Coulomb fitting basis             ... NOT available
Auxiliary J/K fitting basis                 ... NOT available
Auxiliary Correlation fitting basis         ... NOT available
Auxiliary 'external' fitting basis          ... NOT available

Checking pre-screening integrals            ... done (  0.0 sec) Dimension = 41
   => SHARK Basis and OBASIS are compatible. Storing Pre-screening
Shell pair information
Shell pair cut-off parameter TPreSel        ...   1.0e-11
Total number of shell pairs                 ...       861
Shell pairs after pre-screening             ...       848
Total number of primitive shell pairs       ...      5382
Primitive shell pairs kept                  ...      3789
          la=0 lb=0:    483 shell pairs
          la=1 lb=0:    310 shell pairs
          la=1 lb=1:     55 shell pairs

Checking whether 4 symmetric matrices of dimension 61 fit in memory
:Max Core in MB      =   1200.00
 MB in use           =      2.05
 MB left             =   1197.95
 MB needed           =      0.06
 Data fit in memory  = YES
Calculating Nuclear repulsion               ... done (  0.0 sec) ENN=    164.919348529763 Eh

Diagonalization of the overlap matrix:
Smallest eigenvalue                        ... 3.382e-03
Time for diagonalization                   ...    0.000 sec
Threshold for overlap eigenvalues          ... 1.000e-07
Number of eigenvalues below threshold      ... 0
Time for construction of square roots      ...    0.000 sec
Total time needed                          ...    0.001 sec

-------------------
DFT GRID GENERATION
-------------------

General Integration Accuracy     IntAcc      ... 4.388
Radial Grid Type                 RadialGrid  ... OptM3 with GC (2021)
Angular Grid (max. ang.)         AngularGrid ... 4 (Lebedev-302)
Angular grid pruning method      GridPruning ... 4 (adaptive)
Weight generation scheme         WeightScheme... mBecke (2022)
Basis function cutoff            BFCut       ... 1.0000e-10
Integration weight cutoff        WCut        ... 1.0000e-14
Partially contracted basis set               ... off
Rotationally invariant grid construction     ... off
Angular grids for H and He will be reduced by one unit

Total number of grid points                  ...    55945
Total number of batches                      ...      880
Average number of points per batch           ...       63
Average number of grid points per atom       ...     4303
Grids setup in   0.3 sec
Initializing property integral containers    ... done (  0.0 sec)

SHARK setup successfully completed in   0.3 seconds

Maximum memory used throughout the entire STARTUP-calculation: 11.8 MB


           ************************************************************
           *        Program running with 8 parallel MPI-processes     *
           *              working on a common directory               *
           ************************************************************
-------------------------------------------------------------------------------
                                 ORCA GUESS
                   Start orbitals & Density for SCF / CASSCF
-------------------------------------------------------------------------------

------------
SCF SETTINGS
------------
Hamiltonian:
 Ab initio Hamiltonian  Method          .... Hartree-Fock(GTOs)


General Settings:
 Integral files         IntName         .... h-shift_051
 Hartree-Fock type      HFTyp           .... RHF
 Total Charge           Charge          ....    0
 Multiplicity           Mult            ....    1
 Number of Electrons    NEL             ....   38
 Basis Dimension        Dim             ....   61
 Nuclear Repulsion      ENuc            ....    164.9193485298 Eh

Convergence Acceleration:
 AO-DIIS                CNVDIIS         .... on
   Start iteration      DIISMaxIt       ....    12
   Startup error        DIISStart       ....  0.200000
   # of expansion vecs  DIISMaxEq       ....     5
   Bias factor          DIISBfac        ....   1.050
   Max. coefficient     DIISMaxC        ....  10.000
 MO-DIIS                CNVKDIIS        .... off
 Trust-Rad. Augm. Hess. CNVTRAH         .... auto
   Auto Start mean grad. ratio tolernc. ....  1.125000
   Auto Start start iteration           ....    50
   Auto Start num. interpolation iter.  ....    10
   Max. Number of Micro iterations      ....    24
   Max. Number of Macro iterations      .... Maxiter - #DIIS iter
   Number of Davidson start vectors     ....     2
   Converg. threshold    (grad. norm)   ....   5.000e-05
   Grad. Scal. Fac. for Micro threshold ....   0.100
   Minimum threshold for Micro iter.    ....   1.000e-02
   NR start threshold (gradient norm)   ....   1.000e-04
   Initial trust radius                 ....   0.400
   Minimum AH scaling param. (alpha)    ....   1.000
   Maximum AH scaling param. (alpha)    .... 1000.000
   Quad. conv. algorithm                .... NR
   White noise on init. David. guess    .... on
   Maximum white noise                  ....   0.010
   Pseudo random numbers                .... off
   Inactive MOs                         .... canonical
   Orbital update algorithm             .... Taylor
   Preconditioner                       .... Diag
   Full preconditioner red. dimension   ....   250
 SOSCF                 CNVSOSCF           .... on
   Start iteration     SOSCFMaxIt         ....   150
   Startup grad/error  SOSCFStart         ....  0.003300
   Hessian update      SOSCFHessUp        .... L-BFGS
   Autom. constraints  SOSCFAutoConstrain .... off
 Level Shifting         CNVShift        .... on
   Level shift para.    LevelShift      ....    0.2500
   Turn off err/grad.   ShiftErr        ....    0.0010
 Zerner damping         CNVZerner       .... off
 Static damping         CNVDamp         .... on
   Fraction old density DampFac         ....    0.7000
   Max. Damping (<1)    DampMax         ....    0.9800
   Min. Damping (>=0)   DampMin         ....    0.0000
   Turn off err/grad.   DampErr         ....    0.1000

SCF Procedure:
 Maximum # iterations   MaxIter         ....   125
 SCF integral mode      SCFMode         .... Direct
   Integral package                     .... SHARK and LIBINT hybrid scheme
 Reset frequency        DirectResetFreq ....    20
 Integral Threshold     Thresh          ....  1.000e-10 Eh
 Primitive CutOff       TCut            ....  1.000e-11 Eh

Convergence Tolerance:
 Convergence Check Mode ConvCheckMode   .... Total+1el-Energy
 Convergence forced     ConvForced      .... 0
 Energy Change          TolE            ....  1.000e-06 Eh
 1-El. energy change                    ....  1.000e-03 Eh
 Orbital Gradient       TolG            ....  5.000e-05
 Orbital Rotation angle TolX            ....  5.000e-05
 DIIS Error             TolErr          ....  1.000e-06

------------------------------
INITIAL GUESS: MODEL POTENTIAL
------------------------------
Loading Hartree-Fock densities                     ... done
Calculating cut-offs                               ... done
Initializing the effective Hamiltonian             ... done
Setting up the integral package (SHARK)            ... done
Starting the Coulomb interaction                   ... done (   0.0 sec)
Making the grid                                    ... done (   0.1 sec)
Mapping shells                                     ... done
Starting the XC term evaluation                    ... done (   0.0 sec)
Transforming the Hamiltonian                       ... done (   0.0 sec)
Diagonalizing the Hamiltonian                      ... done (   0.0 sec)
Back transforming the eigenvectors                 ... done (   0.0 sec)
Now organizing SCF variables                       ... done
                      ------------------
                      INITIAL GUESS DONE (   0.1 sec)
                      ------------------
             **** ENERGY FILE WAS UPDATED (h-shift_051.en.tmp) ****
Finished Guess after   0.3 sec
Maximum memory used throughout the entire GUESS-calculation: 4.2 MB


           ************************************************************
           *        Program running with 8 parallel MPI-processes     *
           *              working on a common directory               *
           ************************************************************

-------------------------------------------------------------------------------------------
                                      ORCA LEAN-SCF
                              memory conserving SCF solver
-------------------------------------------------------------------------------------------

----------------------------------------D-I-I-S--------------------------------------------
Iteration    Energy (Eh)           Delta-E    RMSDP     MaxDP     DIISErr   Damp  Time(sec)
-------------------------------------------------------------------------------------------
               ***  Starting incremental Fock matrix formation  ***
    1    -193.6004901054084826     0.00e+00  1.60e-02  5.22e-02  1.77e-01  0.700   0.1
    2    -193.6800554353214920    -7.96e-02  1.26e-02  3.95e-02  1.16e-01  0.700   0.1
                               ***Turning on AO-DIIS***
    3    -193.7291102459682861    -4.91e-02  7.67e-03  2.00e-02  6.97e-02  0.700   0.1
    4    -193.7600925079078138    -3.10e-02  1.83e-02  4.44e-02  4.73e-02  0.000   0.1
                              *** Initializing SOSCF ***
---------------------------------------S-O-S-C-F--------------------------------------
Iteration    Energy (Eh)           Delta-E    RMSDP     MaxDP     MaxGrad    Time(sec)
--------------------------------------------------------------------------------------
    5    -193.8272799593134437    -6.72e-02  1.89e-03  3.32e-03  2.80e-03     0.1
               *** Restarting incremental Fock matrix formation ***
    6    -193.8274534485385630    -1.73e-04  1.16e-03  3.00e-03  2.09e-03     0.0
    7    -193.8275253696418758    -7.19e-05  1.06e-03  3.13e-03  1.02e-03     0.0
    8    -193.8275487765479284    -2.34e-05  1.39e-04  4.15e-04  1.82e-04     0.0
    9    -193.8275493602062056    -5.84e-07  5.84e-05  1.39e-04  4.92e-05     0.0
                 **** Energy Check signals convergence ****

               *****************************************************
               *                     SUCCESS                       *
               *           SCF CONVERGED AFTER   9 CYCLES          *
               *****************************************************

             **** ENERGY FILE WAS UPDATED (h-shift_051.en.tmp) ****

----------------
TOTAL SCF ENERGY
----------------

Total Energy       :       -193.82754951571644 Eh           -5274.31576 eV

Components:
Nuclear Repulsion  :        164.91934852976283 Eh            4487.68362 eV
Electronic Energy  :       -358.74689804547927 Eh           -9761.99939 eV
One Electron Energy:       -586.69578959894568 Eh          -15964.80407 eV
Two Electron Energy:        227.94889155346641 Eh            6202.80468 eV

Virial components:
Potential Energy   :       -388.06689200289986 Eh          -10559.83698 eV
Kinetic Energy     :        194.23934248718345 Eh            5285.52122 eV
Virial Ratio       :          1.99787997134775

---------------
SCF CONVERGENCE
---------------

  Last Energy change         ...    5.8366e-07  Tolerance :   1.0000e-06
  Last MAX-Density change    ...    1.3869e-04  Tolerance :   1.0000e-05
  Last RMS-Density change    ...    5.8355e-05  Tolerance :   1.0000e-06
  Last DIIS Error            ...    2.7993e-03  Tolerance :   1.0000e-06
  Last Orbital Gradient      ...    4.9230e-05  Tolerance :   5.0000e-05
  Last Orbital Rotation      ...    5.2645e-05  Tolerance :   5.0000e-05


----------------
ORBITAL ENERGIES
----------------

  NO   OCC          E(Eh)            E(eV) 
   0   2.0000     -11.238669      -305.8197 
   1   2.0000     -11.236872      -305.7708 
   2   2.0000     -11.227067      -305.5040 
   3   2.0000     -11.222845      -305.3891 
   4   2.0000     -11.212481      -305.1071 
   5   2.0000      -1.117598       -30.4114 
   6   2.0000      -1.014879       -27.6162 
   7   2.0000      -0.944991       -25.7145 
   8   2.0000      -0.809714       -22.0334 
   9   2.0000      -0.726306       -19.7638 
  10   2.0000      -0.677481       -18.4352 
  11   2.0000      -0.596616       -16.2348 
  12   2.0000      -0.583105       -15.8671 
  13   2.0000      -0.559848       -15.2342 
  14   2.0000      -0.546940       -14.8830 
  15   2.0000      -0.508371       -13.8335 
  16   2.0000      -0.487721       -13.2716 
  17   2.0000      -0.382243       -10.4013 
  18   2.0000      -0.305257        -8.3065 
  19   0.0000       0.126272         3.4360 
  20   0.0000       0.202185         5.5017 
  21   0.0000       0.243080         6.6145 
  22   0.0000       0.277110         7.5405 
  23   0.0000       0.291307         7.9269 
  24   0.0000       0.325742         8.8639 
  25   0.0000       0.336797         9.1647 
  26   0.0000       0.355500         9.6736 
  27   0.0000       0.384673        10.4675 
  28   0.0000       0.388092        10.5605 
  29   0.0000       0.434301        11.8179 
*Only the first 10 virtual orbitals were printed.

                    ********************************
                    * MULLIKEN POPULATION ANALYSIS *
                    ********************************

-----------------------
MULLIKEN ATOMIC CHARGES
-----------------------
   0 C :   -0.428323
   1 H :    0.200134
   2 C :   -0.530242
   3 C :   -0.127545
   4 C :   -0.201453
   5 C :   -0.149294
   6 H :    0.167351
   7 H :    0.196426
   8 H :    0.175424
   9 H :    0.156612
  10 H :    0.182834
  11 H :    0.177226
  12 H :    0.180850
Sum of atomic charges:   -0.0000000

--------------------------------
MULLIKEN REDUCED ORBITAL CHARGES
--------------------------------
  0 C s       :     3.311936  s :     3.311936
      pz      :     1.071203  p :     3.116387
      px      :     1.034817
      py      :     1.010368

  1 H s       :     0.799866  s :     0.799866

  2 C s       :     3.382820  s :     3.382820
      pz      :     1.042254  p :     3.147422
      px      :     1.121472
      py      :     0.983695

  3 C s       :     3.207392  s :     3.207392
      pz      :     0.946317  p :     2.920153
      px      :     0.993343
      py      :     0.980493

  4 C s       :     3.198264  s :     3.198264
      pz      :     1.008441  p :     3.003189
      px      :     0.928511
      py      :     1.066236

  5 C s       :     3.197174  s :     3.197174
      pz      :     0.910209  p :     2.952120
      px      :     1.036086
      py      :     1.005825

  6 H s       :     0.832649  s :     0.832649

  7 H s       :     0.803574  s :     0.803574

  8 H s       :     0.824576  s :     0.824576

  9 H s       :     0.843388  s :     0.843388

 10 H s       :     0.817166  s :     0.817166

 11 H s       :     0.822774  s :     0.822774

 12 H s       :     0.819150  s :     0.819150



                     *******************************
                     * LOEWDIN POPULATION ANALYSIS *
                     *******************************

----------------------
LOEWDIN ATOMIC CHARGES
----------------------
   0 C :   -0.276904
   1 H :    0.157536
   2 C :   -0.336030
   3 C :   -0.101180
   4 C :   -0.156962
   5 C :   -0.112258
   6 H :    0.116433
   7 H :    0.125922
   8 H :    0.114623
   9 H :    0.110562
  10 H :    0.120063
  11 H :    0.117876
  12 H :    0.120318

-------------------------------
LOEWDIN REDUCED ORBITAL CHARGES
-------------------------------
  0 C s       :     2.996386  s :     2.996386
      pz      :     1.111847  p :     3.280518
      px      :     1.060428
      py      :     1.108243

  1 H s       :     0.842464  s :     0.842464

  2 C s       :     2.990131  s :     2.990131
      pz      :     1.130126  p :     3.345899
      px      :     1.127066
      py      :     1.088707

  3 C s       :     2.952495  s :     2.952495
      pz      :     0.991856  p :     3.148685
      px      :     1.101289
      py      :     1.055540

  4 C s       :     2.941241  s :     2.941241
      pz      :     1.059649  p :     3.215721
      px      :     1.082526
      py      :     1.073546

  5 C s       :     2.944460  s :     2.944460
      pz      :     1.028385  p :     3.167798
      px      :     1.034554
      py      :     1.104858

  6 H s       :     0.883567  s :     0.883567

  7 H s       :     0.874078  s :     0.874078

  8 H s       :     0.885377  s :     0.885377

  9 H s       :     0.889438  s :     0.889438

 10 H s       :     0.879937  s :     0.879937

 11 H s       :     0.882124  s :     0.882124

 12 H s       :     0.879682  s :     0.879682



                      *****************************
                      * MAYER POPULATION ANALYSIS *
                      *****************************

  NA   - Mulliken gross atomic population
  ZA   - Total nuclear charge
  QA   - Mulliken gross atomic charge
  VA   - Mayer's total valence
  BVA  - Mayer's bonded valence
  FA   - Mayer's free valence

  ATOM       NA         ZA         QA         VA         BVA        FA
  0 C      6.4283     6.0000    -0.4283     3.7880     3.7880     0.0000
  1 H      0.7999     1.0000     0.2001     0.9085     0.9085    -0.0000
  2 C      6.5302     6.0000    -0.5302     3.7409     3.7409    -0.0000
  3 C      6.1275     6.0000    -0.1275     3.7333     3.7333     0.0000
  4 C      6.2015     6.0000    -0.2015     3.8130     3.8130    -0.0000
  5 C      6.1493     6.0000    -0.1493     3.7823     3.7823    -0.0000
  6 H      0.8326     1.0000     0.1674     0.9408     0.9408     0.0000
  7 H      0.8036     1.0000     0.1964     0.9214     0.9214    -0.0000
  8 H      0.8246     1.0000     0.1754     0.9180     0.9180     0.0000
  9 H      0.8434     1.0000     0.1566     0.9430     0.9430    -0.0000
 10 H      0.8172     1.0000     0.1828     0.9382     0.9382     0.0000
 11 H      0.8228     1.0000     0.1772     0.9388     0.9388    -0.0000
 12 H      0.8191     1.0000     0.1809     0.9351     0.9351     0.0000

  Mayer bond orders larger than 0.100000
B(  0-C ,  3-C ) :   0.1019 B(  0-C ,  5-C ) :   1.7411 B(  0-C ,  6-H ) :   0.9585 
B(  0-C ,  7-H ) :   0.9548 B(  1-H ,  2-C ) :   0.8605 B(  2-C ,  3-C ) :   0.9941 
B(  2-C ,  8-H ) :   0.9409 B(  2-C ,  9-H ) :   0.9623 B(  3-C ,  4-C ) :   1.7733 
B(  3-C , 10-H ) :   0.9554 B(  4-C ,  5-C ) :   1.1305 B(  4-C , 11-H ) :   0.9576 
B(  5-C , 12-H ) :   0.9565 

-------
TIMINGS
-------

Total SCF time: 0 days 0 hours 0 min 0 sec 

Total time                  ....       0.710 sec
Sum of individual times     ....       0.665 sec  ( 93.8%)

SCF preparation             ....       0.255 sec  ( 36.0%)
Fock matrix formation       ....       0.354 sec  ( 49.9%)
  Startup                   ....       0.001 sec  (  0.4% of F)
  Coulomb+Exchange Fock     ....       0.374 sec  (105.8% of F)
Diagonalization             ....       0.000 sec  (  0.0%)
Density matrix formation    ....       0.008 sec  (  1.1%)
Total Energy calculation    ....       0.005 sec  (  0.7%)
Population analysis         ....       0.005 sec  (  0.6%)
Orbital Transformation      ....       0.005 sec  (  0.6%)
Orbital Orthonormalization  ....       0.000 sec  (  0.0%)
DIIS solution               ....       0.021 sec  (  2.9%)
SOSCF solution              ....       0.013 sec  (  1.9%)
Finished LeanSCF after   0.7 sec

Maximum memory used throughout the entire LEANSCF-calculation: 6.5 MB

-------------------------   --------------------
FINAL SINGLE POINT ENERGY      -193.827549515716
-------------------------   --------------------



           ************************************************************
           *        Program running with 8 parallel MPI-processes     *
           *              working on a common directory               *
           ************************************************************

------------------------------------------------------------------------------
                              ORCA PROPERTY CALCULATIONS
------------------------------------------------------------------------------

GBWName                                 ... h-shift_051.gbw
Number of atoms                         ...     13
Number of basis functions               ...     61
Max core memory                         ...   1200 MB

Electric properties:
Dipole moment                           ... YES
Quadrupole moment                       ...  NO
Static polarizability (Dipole/Dipole)   ...  NO
Static polarizability (Dipole/Quad.)    ...  NO
Static polarizability (Quad./Quad.)     ...  NO
Static polarizability (Velocity)        ...  NO
Static hyperpolarizability              ...  NO

Atomic electric properties:
Dipole moment                           ...  NO
Quadrupole moment                       ...  NO
Static polarizability                   ...  NO

Choice of electric origin               ... Center of mass
Position of electric origin             ...     1.692621    -1.389908     2.005548

General magnetic properties:
Magnetizability                         ...  NO

EPR properties:
g-Tensor (aka g-matrix)                 ...  NO
Zero-Field splitting spin-orbit         ...  NO
Zero-field splitting spin-spin          ...  NO
Hyperfine couplings                     ...  NO (   0 nuclei)
Quadrupole couplings                    ...  NO (   0 nuclei)
Contact density                         ...  NO (   0 nuclei)

NMR properties:
Chemical shifts                         ...  NO (   0 nuclei)
Spin-rotation constants                 ...  NO (   0 nuclei)
Spin-spin couplings                     ...  NO (   0 nuclei,    0 pairs)

Choice of magnetic origin               ... GIAO
Position of magnetic origin             ...     0.000000     0.000000     0.000000

Properties with geometric perturbations:
SCF Hessian                             ...  NO
IR spectrum                             ...  NO
VCD spectrum                            ...  NO
X-ray spectroscopy properties:
SCF XES/XAS/RIXS spectra                ...  NO

SCF SOC stabilization energy            ...  NO
Diagonal Born-Oppenheimer correction    ...  NO

-------------
DIPOLE MOMENT
-------------

Method             : SCF
Type of density    : Electron Density
Multiplicity       :   1
Irrep              :   0
Energy             :  -193.8275495157164414 Eh
Basis              : AO
                                X                 Y                 Z
Electronic contribution:     -1.203313487      -1.728034700       1.356406268
Nuclear contribution   :      1.267755647       1.669038815      -1.448015569
                        -----------------------------------------
Total Dipole Moment    :      0.064442160      -0.058995885      -0.091609301
                        -----------------------------------------
Magnitude (a.u.)       :      0.126592142
Magnitude (Debye)      :      0.321771653



--------------------
Rotational spectrum 
--------------------
 
Rotational constants in cm-1:             0.273166             0.167366             0.107624 
Rotational constants in MHz :          8189.325044          5017.512074          3226.484921 

Dipole components along the rotational axes: 
x,y,z [a.u.] :    -0.018208    -0.019312    -0.123778 
x,y,z [Debye]:    -0.046280    -0.049086    -0.314620 

 

Dipole moment calculation done in   0.0 sec 

Maximum memory used throughout the entire PROP-calculation: 2.2 MB

--------------------------------
SUGGESTED CITATIONS FOR THIS RUN
--------------------------------

Below you find a list of papers that are relevant to this ORCA run
We neither can nor want to force you to cite these papers, but we appreciate if you do
You receive ORCA, which is the product of decades of hard work by many enthusiastic individuals, for free
The only thing we kindly ask in return is that you cite our papers,
We deeply appreciate it, if you show your appreciation for ORCA by not just citing the generic ORCA reference.

Please note that relegating all ORCA citations to the supporting information does *not* help us.
SI sections are not indexed - citations you put there will not count into any citation statistics
But we need these citations in order to attract the funding resources that allow us to do what we are doing

Therefore, if you are a happy ORCA user, please consider citing a few of the papers listed below in the main body of your paper

In addition to the list printed below, the program has created the file h-shift_051.bibtex that contains the list in bibtex format
You can import this file easily into all common literature databanks and citation aid programs


List of essential papers. We consider these as the minimum necessary citations

  1. Neese, F.
     Software update: the ORCA program system, version 6.0
     WIRES Comput. Molec. Sci. 2025 15(1), e70019
     doi.org/10.1002/wcms.7019

List of papers to cite with high priority. The work reported in these papers was absolutely
necessary for this run to complete.
Our perspective: the developers of density functionals and basis sets usually get cited in chemistry papers
Good! But without the algorithms to do something with them, the functionals or basis sets would not do anything.
Hence, in our opinion, the algorithm design and method developments papers are equally worthy of getting cited

  1. Neese, F.
     The SHARK Integral Generation and Digestion System
     J. Comp. Chem. 2022 44(3), 381
     doi.org/10.1002/jcc.26942

List of suggested additional citations. These are papers that are important in the 'surrounding' of 
of this run, or papers that preceded the highly important papers. If you like your results we are grateful for a citation.

  1. Neese, F.
     The ORCA program system
     WIRES Comput. Molec. Sci. 2012 2(1), 73-78
     doi.org/10.1002/wcms.81
  2. Neese, F.
     Software update: the ORCA program system, version 4.0
     WIRES Comput. Molec. Sci. 2018 8(1), 1-6
     doi.org/10.1002/wcms.1327
  3. Neese, F.; Wennmohs, F.; Becker, U.; Riplinger, C.
     The ORCA quantum chemistry program package
     J. Chem. Phys. 2020 152(22), 224108
     doi.org/10.1063/5.0004608
  4. Neese, F.
     Software update: The ORCA program system—Version 5.0
     WIRES Comput. Molec. Sci. 2022 12(1), e1606
     doi.org/10.1002/wcms.1606

List of optional additional citations

  1. Neese, F.
     Approximate second-order SCF convergence for spin unrestricted wavefunctions
     Chem. Phys. Lett. 2000 325(1-3), 93-98
     doi.org/10.1016/s0009-2614(00)00662-x

Timings for individual modules:

Sum of individual times          ...        2.364 sec (=   0.039 min)
Startup calculation              ...        0.690 sec (=   0.011 min)  29.2 %
SCF iterations                   ...        1.267 sec (=   0.021 min)  53.6 %
Property calculations            ...        0.408 sec (=   0.007 min)  17.3 %
                             ****ORCA TERMINATED NORMALLY****
TOTAL RUN TIME: 0 days 0 hours 0 minutes 2 seconds 838 msec
