[Molden Format]
[Title]
 Molden file created by orca_2mkl for BaseName=h-shift_069

[Atoms] AU
C    1   6         -0.7476550271         0.0301411318         0.0608359534 
H    2   1          3.9018252631         0.0136721686         0.0704981232 
C    3   6          4.5989679106         0.0204392779         1.9944169617 
C    4   6          3.5164099489        -2.1636967391         3.4426974016 
C    5   6          1.1659270096        -3.0297185420         3.1705938458 
C    6   6         -0.6167801539        -2.2062155771         1.2053882707 
H    7   1         -1.8973247227         0.2919740260        -1.5867350045 
H    8   1          0.2864768127         1.6554095419         0.6749742702 
H    9   1          4.0097815377         1.8013587604         2.8308664404 
H   10   1          6.6390690016        -0.0023848344         1.9474553776 
H   11   1          4.7580034826        -3.1083330389         4.7470411813 
H   12   1          0.5736509344        -4.6099982421         4.3072527770 
H   13   1         -1.8450038752        -3.6817156322         0.5349474534 
[GTO]
  1 0
s   6 1.0 
     3047.5249000000         0.5363343823
      457.3695100000         0.9894506076
      103.9486900000         1.5972822308
       29.2101550000         2.0791870615
        9.2866630000         1.7741742532
        3.1639270000         0.6125798260
s   3 1.0 
        7.8682724000        -0.3995563516
        1.8812885000        -0.1841552393
        0.5442493000         0.5163903794
p   3 1.0 
        7.8682724000         1.2960827175
        1.8812885000         0.9937536282
        0.5442493000         0.4959527138
s   1 1.0 
        0.1687144000         0.1876178721
p   1 1.0 
        0.1687144000         0.1541275509

  2 0
s   3 1.0 
       18.7311370000         0.2149354183
        2.8253937000         0.3645711272
        0.6401217000         0.4150514277
s   1 1.0 
        0.1612778000         0.1813806839

  3 0
s   6 1.0 
     3047.5249000000         0.5363343823
      457.3695100000         0.9894506076
      103.9486900000         1.5972822308
       29.2101550000         2.0791870615
        9.2866630000         1.7741742532
        3.1639270000         0.6125798260
s   3 1.0 
        7.8682724000        -0.3995563516
        1.8812885000        -0.1841552393
        0.5442493000         0.5163903794
p   3 1.0 
        7.8682724000         1.2960827175
        1.8812885000         0.9937536282
        0.5442493000         0.4959527138
s   1 1.0 
        0.1687144000         0.1876178721
p   1 1.0 
        0.1687144000         0.1541275509

  4 0
s   6 1.0 
     3047.5249000000         0.5363343823
      457.3695100000         0.9894506076
      103.9486900000         1.5972822308
       29.2101550000         2.0791870615
        9.2866630000         1.7741742532
        3.1639270000         0.6125798260
s   3 1.0 
        7.8682724000        -0.3995563516
        1.8812885000        -0.1841552393
        0.5442493000         0.5163903794
p   3 1.0 
        7.8682724000         1.2960827175
        1.8812885000         0.9937536282
        0.5442493000         0.4959527138
s   1 1.0 
        0.1687144000         0.1876178721
p   1 1.0 
        0.1687144000         0.1541275509

  5 0
s   6 1.0 
     3047.5249000000         0.5363343823
      457.3695100000         0.9894506076
      103.9486900000         1.5972822308
       29.2101550000         2.0791870615
        9.2866630000         1.7741742532
        3.1639270000         0.6125798260
s   3 1.0 
        7.8682724000        -0.3995563516
        1.8812885000        -0.1841552393
        0.5442493000         0.5163903794
p   3 1.0 
        7.8682724000         1.2960827175
        1.8812885000         0.9937536282
        0.5442493000         0.4959527138
s   1 1.0 
        0.1687144000         0.1876178721
p   1 1.0 
        0.1687144000         0.1541275509

  6 0
s   6 1.0 
     3047.5249000000         0.5363343823
      457.3695100000         0.9894506076
      103.9486900000         1.5972822308
       29.2101550000         2.0791870615
        9.2866630000         1.7741742532
        3.1639270000         0.6125798260
s   3 1.0 
        7.8682724000        -0.3995563516
        1.8812885000        -0.1841552393
        0.5442493000         0.5163903794
p   3 1.0 
        7.8682724000         1.2960827175
        1.8812885000         0.9937536282
        0.5442493000         0.4959527138
s   1 1.0 
        0.1687144000         0.1876178721
p   1 1.0 
        0.1687144000         0.1541275509

  7 0
s   3 1.0 
       18.7311370000         0.2149354183
        2.8253937000         0.3645711272
        0.6401217000         0.4150514277
s   1 1.0 
        0.1612778000         0.1813806839

  8 0
s   3 1.0 
       18.7311370000         0.2149354183
        2.8253937000         0.3645711272
        0.6401217000         0.4150514277
s   1 1.0 
        0.1612778000         0.1813806839

  9 0
s   3 1.0 
       18.7311370000         0.2149354183
        2.8253937000         0.3645711272
        0.6401217000         0.4150514277
s   1 1.0 
        0.1612778000         0.1813806839

 10 0
s   3 1.0 
       18.7311370000         0.2149354183
        2.8253937000         0.3645711272
        0.6401217000         0.4150514277
s   1 1.0 
        0.1612778000         0.1813806839

 11 0
s   3 1.0 
       18.7311370000         0.2149354183
        2.8253937000         0.3645711272
        0.6401217000         0.4150514277
s   1 1.0 
        0.1612778000         0.1813806839

 12 0
s   3 1.0 
       18.7311370000         0.2149354183
        2.8253937000         0.3645711272
        0.6401217000         0.4150514277
s   1 1.0 
        0.1612778000         0.1813806839

 13 0
s   3 1.0 
       18.7311370000         0.2149354183
        2.8253937000         0.3645711272
        0.6401217000         0.4150514277
s   1 1.0 
        0.1612778000         0.1813806839

[5D]
[7F]
[9G]
[MO]
 Sym=     1a
 Ene= -1.12360026832265E+01
 Spin= Alpha
 Occup= 2.000000
  1      -0.053696481839
  2      -0.000543570645
  3      -0.000018402360
  4      -0.000171554781
  5       0.000131811747
  6      -0.005313653158
  7      -0.000734922653
  8       0.001921972113
  9      -0.001821475468
 10       0.000144831457
 11      -0.000630878904
 12      -0.003161513471
 13       0.000032396295
 14      -0.000048861993
 15      -0.000087194784
 16       0.000040049231
 17      -0.000711764213
 18       0.000176655513
 19       0.000661865818
 20      -0.000611395733
 21      -0.225929182055
 22      -0.005359285487
 23      -0.000132128890
 24      -0.000042926661
 25      -0.000087528472
 26       0.003769978720
 27       0.000317603019
 28       0.000537367697
 29      -0.000055250009
 30      -0.066071208284
 31      -0.000832368304
 32      -0.000081972329
 33       0.000089361442
 34      -0.000119020444
 35      -0.004597078701
 36       0.000958318980
 37      -0.001629536592
 38       0.001819879524
 39      -0.966408047282
 40      -0.024148551697
 41      -0.000104791226
 42      -0.000140854399
 43       0.000049704826
 44       0.016857090106
 45       0.001485564842
 46       0.001623260345
 47       0.000483716326
 48       0.000078810882
 49      -0.000499339503
 50       0.000261753950
 51       0.000299155081
 52       0.000030829431
 53      -0.000157356598
 54       0.000018795928
 55      -0.000026388856
 56       0.000008376469
 57      -0.000891669101
 58       0.000094242659
 59      -0.000530933710
 60       0.000251539965
 61      -0.002074260776
 Sym=     1a
 Ene= -1.12358754917285E+01
 Spin= Alpha
 Occup= 2.000000
  1       0.013307728582
  2       0.000158377935
  3       0.000020749997
  4       0.000062761343
  5      -0.000000786939
  6       0.000902457065
  7       0.000043957525
  8      -0.000585482199
  9       0.000225464018
 10       0.000173728441
 11      -0.000071448450
 12      -0.014507033739
 13       0.000018142336
 14       0.000001677661
 15      -0.000142634661
 16       0.000038516907
 17      -0.003586883181
 18       0.001120431014
 19       0.002112692109
 20      -0.000744760826
 21      -0.964954396176
 22      -0.024163511586
 23       0.000190498856
 24      -0.000033162379
 25       0.000118406948
 26       0.016896597555
 27      -0.001668820946
 28       0.000891006908
 29      -0.001720750897
 30      -0.086484937202
 31      -0.001329978378
 32       0.000237449348
 33       0.000111580453
 34       0.000024612783
 35      -0.004438556414
 36      -0.002766991613
 37      -0.001673102841
 38       0.000282274182
 39       0.230872524077
 40       0.005969584781
 41       0.000169352577
 42      -0.000024961206
 43       0.000099851932
 44      -0.003478023094
 45      -0.000051295385
 46      -0.000069625373
 47       0.000004085402
 48      -0.000024086203
 49       0.000030738382
 50      -0.000065533954
 51       0.000336142461
 52       0.000201284178
 53      -0.000888586332
 54       0.000086562065
 55      -0.000176023536
 56       0.000271012067
 57      -0.001905119549
 58       0.000032685592
 59      -0.000694381036
 60      -0.000049259610
 61       0.000520322000
 Sym=     1a
 Ene= -1.12276138602843E+01
 Spin= Alpha
 Occup= 2.000000
  1       0.007005986000
  2       0.000317807237
  3       0.000046885388
  4      -0.000122008061
  5       0.000159967305
  6       0.000828864550
  7       0.000216971753
  8       0.000064014222
  9      -0.000151986828
 10      -0.000053401884
 11      -0.000173102264
 12       0.003109877749
 13       0.000071341326
 14      -0.000101772392
 15      -0.000106273685
 16       0.000099916221
 17       0.001730303920
 18      -0.000421946424
 19      -0.000656580779
 20       0.000017966528
 21       0.099946084751
 22       0.003522636604
 23      -0.000227331447
 24      -0.000026400693
 25      -0.000077755512
 26      -0.009405240035
 27       0.003296095849
 28      -0.000184479683
 29       0.001840748829
 30      -0.990197771153
 31      -0.025147802426
 32      -0.000147200009
 33      -0.000159442086
 34       0.000239959768
 35       0.019572870930
 36       0.001525075218
 37       0.002609483101
 38      -0.002297761139
 39       0.044293388079
 40       0.001745053250
 41       0.000126429555
 42      -0.000038760754
 43       0.000109653781
 44      -0.006085805171
 45      -0.002498255101
 46       0.000000745964
 47      -0.001734303958
 48      -0.000050165628
 49      -0.000330095910
 50       0.000038481037
 51      -0.000287376993
 52      -0.000016633673
 53       0.000148023627
 54      -0.000061047731
 55      -0.000163253550
 56       0.000011653681
 57      -0.000331703919
 58       0.000295565054
 59      -0.001676805731
 60       0.000077401412
 61      -0.000352119307
 Sym=     1a
 Ene= -1.12210911685770E+01
 Spin= Alpha
 Occup= 2.000000
  1      -0.994578446971
  2      -0.024882690029
  3      -0.000097233501
  4       0.000206316272
  5      -0.000054420159
  6       0.016701102550
  7       0.000492425874
  8      -0.001679754214
  9       0.000866779553
 10       0.000166211558
 11      -0.001282634550
 12       0.000417080083
 13       0.000061635100
 14      -0.000115266862
 15       0.000011570605
 16       0.000066868363
 17       0.000007907164
 18       0.000494806619
 19       0.000082261154
 20      -0.000861502546
 21      -0.000028478748
 22      -0.000046762654
 23      -0.000036389572
 24       0.000018338400
 25      -0.000023879398
 26       0.000284586728
 27       0.000259056618
 28       0.000470510266
 29      -0.000197357462
 30      -0.004551315084
 31      -0.000014472337
 32      -0.000068489695
 33       0.000081310203
 34      -0.000088354646
 35       0.000411621628
 36       0.000306862149
 37      -0.000042338605
 38       0.000240780669
 39       0.056153090890
 40       0.002230620434
 41      -0.000034468191
 42       0.000285056045
 43      -0.000128065228
 44      -0.006837951861
 45       0.000095143560
 46      -0.002795870991
 47       0.001389409439
 48       0.000209505981
 49      -0.002654002286
 50       0.000114974548
 51      -0.002737858035
 52      -0.000004195947
 53       0.000562167075
 54      -0.000037691293
 55      -0.000326483820
 56       0.000008727231
 57       0.000045626251
 58      -0.000038235689
 59      -0.000228914005
 60       0.000115773077
 61       0.000001488787
 Sym=     1a
 Ene= -1.12142859371080E+01
 Spin= Alpha
 Occup= 2.000000
  1       0.000414772938
  2      -0.000043442363
  3      -0.000093272520
  4      -0.000010624043
  5      -0.000117800254
  6       0.000293079007
  7       0.000431359131
  8      -0.000261482493
  9       0.000755891152
 10       0.000075111592
 11       0.003273602229
 12       0.996088471559
 13       0.026158413090
 14      -0.000088421307
 15       0.000001379731
 16       0.000068999677
 17      -0.019238807507
 18       0.000683272048
 19       0.000718448812
 20      -0.000578828067
 21      -0.015245996003
 22      -0.000810228039
 23      -0.000081138688
 24      -0.000107361986
 25       0.000073880179
 26       0.004078694040
 27       0.001515202922
 28       0.002206552533
 29      -0.001286454116
 30       0.001614647552
 31      -0.000162103227
 32      -0.000122678636
 33      -0.000090241295
 34       0.000029099509
 35       0.000662435278
 36       0.000752907441
 37       0.000419482235
 38      -0.000009133967
 39       0.000142512248
 40       0.000011634806
 41      -0.000062789130
 42      -0.000043774348
 43      -0.000014338222
 44      -0.000557892983
 45      -0.000140023080
 46      -0.000407570992
 47       0.000097407200
 48       0.000070834446
 49       0.000519921255
 50      -0.000041059840
 51      -0.000116626417
 52       0.000073723402
 53       0.003333093136
 54       0.000033762458
 55       0.003087857061
 56      -0.000139305730
 57       0.000039083722
 58       0.000033109571
 59       0.000448503825
 60      -0.000024083796
 61      -0.000016683542
 Sym=     1a
 Ene= -1.10161796902999E+00
 Spin= Alpha
 Occup= 2.000000
  1       0.074893783466
  2      -0.146069066308
  3      -0.011872668996
  4       0.055715400378
  5      -0.033530895517
  6      -0.099654782594
  7      -0.000696858945
  8       0.002944176794
  9       0.001588789698
 10      -0.039723579363
 11      -0.001063938572
 12       0.069454235111
 13      -0.128608783891
 14       0.025117808172
 15       0.032377938882
 16      -0.016949449706
 17      -0.122752256318
 18       0.013625899430
 19       0.003795299226
 20      -0.000511663591
 21       0.113873260911
 22      -0.226115484836
 23       0.064140943229
 24       0.003597552200
 25       0.027296422615
 26      -0.136265167552
 27      -0.000938898532
 28       0.004206282977
 29      -0.004023561786
 30       0.125447748318
 31      -0.247415486118
 32      -0.039578616276
 33      -0.041232374729
 34       0.029380048007
 35      -0.163308529524
 36      -0.000434453251
 37      -0.003751537732
 38       0.005354689898
 39       0.109994530059
 40      -0.218032020951
 41      -0.036741896745
 42      -0.028277794578
 43      -0.012532888935
 44      -0.138629704564
 45      -0.006095217332
 46      -0.000107439969
 47      -0.003213738982
 48      -0.032772895615
 49      -0.001454881752
 50      -0.039652627375
 51      -0.006924264839
 52      -0.035395113038
 53      -0.000177182621
 54      -0.032021060293
 55      -0.005479989430
 56      -0.052632548624
 57      -0.004102235197
 58      -0.058181573476
 59      -0.007970916440
 60      -0.052820205723
 61      -0.008246997863
 Sym=     1a
 Ene= -1.02013017827427E+00
 Spin= Alpha
 Occup= 2.000000
  1      -0.122250240660
  2       0.239814911509
  3      -0.001708597315
  4      -0.078717932107
  5       0.033495245957
  6       0.185791497191
  7       0.001945186965
  8      -0.003165440849
  9       0.004051539541
 10      -0.052667063021
 11      -0.005336123240
 12       0.099414558247
 13      -0.189184583792
 14       0.012639807136
 15       0.030734949378
 16      -0.023031058649
 17      -0.176605583619
 18      -0.000552965529
 19       0.000934916423
 20      -0.003548185685
 21       0.101506608964
 22      -0.201572432954
 23      -0.002464529725
 24      -0.021558757146
 25       0.018630958268
 26      -0.148987135270
 27      -0.000474609249
 28      -0.005745185017
 29       0.004937876175
 30       0.020702658607
 31      -0.041148745921
 32      -0.101303445500
 33      -0.005390822474
 34      -0.045457028861
 35      -0.025413216164
 36      -0.007441245574
 37       0.011701493581
 38      -0.011912703993
 39      -0.116456832047
 40       0.232582824408
 41      -0.020753454702
 42       0.076121422762
 43      -0.053727460848
 44       0.161481460203
 45      -0.010233529339
 46      -0.004679244355
 47      -0.007036170059
 48       0.070053658284
 49       0.016168895591
 50       0.061846582101
 51       0.005828932773
 52      -0.057564922248
 53      -0.005485674192
 54      -0.059014015870
 55      -0.008821687741
 56      -0.062428204617
 57      -0.016601682112
 58      -0.010146311711
 59       0.003756113912
 60       0.069238452466
 61       0.011717280225
 Sym=     1a
 Ene= -9.41422538213525E-01
 Spin= Alpha
 Occup= 2.000000
  1       0.079015127467
  2      -0.154430820854
  3      -0.001190816624
  4       0.010853140556
  5      -0.001785228763
  6      -0.136535600346
  7      -0.005530405789
  8      -0.001904193013
  9      -0.000170816839
 10      -0.099501670631
 11      -0.022090448903
 12       0.138791320474
 13      -0.260899089520
 14      -0.011639493366
 15      -0.020938412769
 16       0.010790192576
 17      -0.294192558735
 18       0.005007180983
 19      -0.002057958177
 20       0.000145286561
 21      -0.029678708288
 22       0.055860135147
 23      -0.130054594086
 24      -0.113947703145
 25       0.040444618433
 26       0.074146664149
 27      -0.019076564827
 28      -0.009292615548
 29       0.000667200970
 30      -0.118946051339
 31       0.236607166774
 32       0.035630997984
 33      -0.012945020585
 34       0.017087903494
 35       0.184906501911
 36      -0.005173452166
 37      -0.015674872055
 38       0.006538600391
 39       0.002074719214
 40      -0.003050800839
 41       0.046656117822
 42      -0.088763752431
 43       0.084500474707
 44       0.000076126827
 45       0.013319001023
 46      -0.005747768685
 47       0.014846913769
 48      -0.057447482086
 49      -0.018428341901
 50      -0.060331010215
 51      -0.017858774535
 52      -0.099698756886
 53      -0.024347430827
 54      -0.100974452608
 55      -0.028067189506
 56       0.020584153656
 57       0.007364372954
 58       0.091126267977
 59       0.025126125589
 60       0.002842525639
 61       0.005002156316
 Sym=     1a
 Ene= -8.13229833055257E-01
 Spin= Alpha
 Occup= 2.000000
  1      -0.102017078359
  2       0.203054219297
  3      -0.007894021875
  4       0.079786441310
  5      -0.045704884542
  6       0.190310328965
  7      -0.002203917684
  8       0.032065820598
  9      -0.017497136044
 10      -0.058523643410
 11      -0.023010184144
 12       0.060411444991
 13      -0.114670992905
 14      -0.031405020041
 15      -0.064388375173
 16       0.043830862902
 17      -0.146383105615
 18      -0.015948169766
 19      -0.015103383921
 20       0.008448618443
 21      -0.091968423688
 22       0.184298633235
 23      -0.014560433343
 24      -0.067566499289
 25       0.059554216231
 26       0.179039369997
 27       0.014616155783
 28      -0.011462715509
 29       0.019664584558
 30       0.029731080812
 31      -0.061966066319
 32       0.195848605191
 33       0.026257517330
 34       0.093391811668
 35      -0.051190774852
 36       0.046555443913
 37       0.007294561467
 38       0.021038659303
 39       0.086057013067
 40      -0.175783367637
 41      -0.018396996154
 42       0.151154924914
 43      -0.084237092967
 44      -0.163115553506
 45      -0.001492477840
 46       0.050384440426
 47      -0.023436762410
 48       0.113476695344
 49       0.048496932582
 50       0.109068420584
 51       0.042156539449
 52      -0.060169167383
 53      -0.024145435959
 54      -0.062996192713
 55      -0.021218806816
 56       0.108028077486
 57       0.043745783597
 58      -0.039261540946
 59      -0.017610661729
 60      -0.108853057357
 61      -0.045074322302
 Sym=     1a
 Ene= -7.18457568042288E-01
 Spin= Alpha
 Occup= 2.000000
  1      -0.038645640354
  2       0.077172913038
  3       0.065388229137
  4       0.197007426208
  5      -0.015817950017
  6       0.080419918770
  7       0.022402602407
  8       0.064192187914
  9      -0.008375593454
 10       0.078843797948
 11       0.042937569997
 12      -0.020477969355
 13       0.035487251664
 14      -0.027779791051
 15       0.110189307142
 16      -0.099598721667
 17       0.060615030377
 18      -0.014722008916
 19       0.039881035666
 20      -0.036318107778
 21       0.073803905852
 22      -0.150184071245
 23      -0.175750825228
 24      -0.001215935676
 25      -0.063776116437
 26      -0.155397042593
 27      -0.073365977541
 28       0.007007008185
 29      -0.031244277369
 30      -0.078208716518
 31       0.159900600897
 32      -0.029360357197
 33      -0.030291456874
 34       0.029254857305
 35       0.155769205720
 36      -0.029217469362
 37      -0.034762143558
 38       0.019264139620
 39       0.069948838474
 40      -0.142047155542
 41       0.130139449520
 42       0.026301831748
 43       0.125611853807
 44      -0.140938167888
 45       0.051425378826
 46       0.039183629594
 47       0.035486722447
 48       0.040158804546
 49       0.019646841223
 50       0.142130442507
 51       0.087098840587
 52       0.054112469328
 53       0.029455541690
 54       0.002257514233
 55      -0.001240634114
 56      -0.151875836298
 57      -0.076519389782
 58       0.102561665034
 59       0.041731646954
 60      -0.141040086595
 61      -0.067851208893
 Sym=     1a
 Ene= -6.67984915917496E-01
 Spin= Alpha
 Occup= 2.000000
  1      -0.021726973294
  2       0.043202605212
  3      -0.112403279102
  4       0.085028022639
  5      -0.153407887236
  6       0.061017212706
  7      -0.048440688389
  8       0.021036416977
  9      -0.055138235549
 10      -0.015813449775
 11      -0.010175446607
 12      -0.017297805995
 13       0.032012871065
 14       0.141252237435
 15       0.068491019354
 16       0.001681553624
 17       0.051293352435
 18       0.065278423905
 19       0.023837029697
 20       0.006873873694
 21       0.023273383565
 22      -0.048607061223
 23       0.116094177173
 24      -0.090949479686
 25       0.123397876467
 26      -0.034517342500
 27       0.029347159764
 28      -0.037429648709
 29       0.042892972914
 30      -0.021134720523
 31       0.040690936624
 32      -0.094434518644
 33      -0.232502574950
 34       0.153465261648
 35       0.055335579922
 36      -0.040108093210
 37      -0.097356559653
 38       0.061009950501
 39       0.024660623362
 40      -0.052565502882
 41      -0.124716579564
 42      -0.139000641525
 43      -0.030551012491
 44      -0.046099348809
 45      -0.041791653552
 46      -0.043922789645
 47      -0.008000643735
 48       0.135702933451
 49       0.085161299452
 50       0.001257518464
 51       0.006407441969
 52       0.027003797436
 53       0.015712949167
 54       0.097423241565
 55       0.058323432587
 56       0.083409915214
 57       0.058460410692
 58       0.188195019772
 59       0.114034347620
 60       0.080313741071
 61       0.058700785553
 Sym=     1a
 Ene= -6.02400505199265E-01
 Spin= Alpha
 Occup= 2.000000
  1       0.007789282492
  2      -0.017234051875
  3      -0.166180793780
  4      -0.097786146418
  5      -0.206745861517
  6      -0.030304275612
  7      -0.074067113334
  8      -0.046082953050
  9      -0.096372929767
 10       0.094479307976
 11       0.064007726641
 12      -0.010721054467
 13       0.020719160540
 14      -0.111930045103
 15       0.025890748760
 16      -0.117065400866
 17       0.030533613548
 18      -0.042825899277
 19       0.012982089695
 20      -0.055058420690
 21      -0.003513416726
 22       0.009518549770
 23      -0.246989042821
 24      -0.014955539427
 25      -0.119844731648
 26       0.002909302663
 27      -0.101479155607
 28       0.002204469817
 29      -0.059608828043
 30      -0.009708911442
 31       0.022010692247
 32       0.224319236786
 33       0.036647291841
 34       0.036067827561
 35      -0.011991685929
 36       0.064993922084
 37      -0.006035138432
 38       0.012938622262
 39       0.015796625256
 40      -0.036539877958
 41      -0.116429961916
 42      -0.075867386234
 43      -0.150425954621
 44      -0.024960605355
 45      -0.031726980869
 46      -0.018590687849
 47      -0.060202651889
 48       0.145309859424
 49       0.101451399894
 50      -0.141630173027
 51      -0.091435375842
 52       0.010468232022
 53       0.002094566091
 54      -0.059284975272
 55      -0.050224342797
 56      -0.135784430986
 57      -0.094316744493
 58      -0.035235942069
 59      -0.033772820571
 60       0.090079743136
 61       0.072202094526
 Sym=     1a
 Ene= -5.84550352550471E-01
 Spin= Alpha
 Occup= 2.000000
  1       0.007116244529
  2      -0.019091818141
  3      -0.017836865108
  4       0.285058967778
  5      -0.167076741822
  6       0.017320511145
  7      -0.001727988725
  8       0.102681152779
  9      -0.058476493055
 10      -0.018136582490
 11      -0.010624250330
 12       0.006974524314
 13      -0.008559770213
 14      -0.106508528427
 15      -0.179640394949
 16       0.064289839345
 17      -0.037797304761
 18      -0.045945088974
 19      -0.075100311301
 20       0.024253932628
 21      -0.024046214698
 22       0.048855456922
 23       0.115329845692
 24       0.140515250447
 25      -0.113687445598
 26       0.083540765414
 27       0.043298958320
 28       0.054570829100
 29      -0.050716320570
 30       0.010790228607
 31      -0.021608834573
 32      -0.119470972776
 33       0.047656543533
 34      -0.167305230480
 35      -0.021920166531
 36      -0.043471740980
 37       0.020559910440
 38      -0.072609961659
 39       0.007652863858
 40      -0.018283054583
 41       0.032797859523
 42      -0.307093596772
 43       0.135498965120
 44       0.004326033951
 45       0.004414044859
 46      -0.111405236335
 47       0.036919509342
 48       0.109867079363
 49       0.086517911766
 50       0.098876372842
 51       0.071885281292
 52      -0.068360152870
 53      -0.051644664131
 54      -0.074815553996
 55      -0.054867186284
 56      -0.012559848638
 57      -0.012288001620
 58      -0.073475413434
 59      -0.050791191678
 60       0.094043765752
 61       0.069983991016
 Sym=     1a
 Ene= -5.67540997780735E-01
 Spin= Alpha
 Occup= 2.000000
  1      -0.004589814646
  2       0.008933103166
  3       0.030837561177
  4      -0.022966927908
  5       0.005564613859
  6       0.012469907195
  7       0.017331902731
  8      -0.004901296369
  9      -0.007026947790
 10       0.145527278417
 11       0.114606390038
 12      -0.000446728041
 13       0.001908282902
 14       0.176198923143
 15      -0.237794894232
 16      -0.290152834929
 17       0.000642905705
 18       0.087942867181
 19      -0.122092040429
 20      -0.146009147319
 21       0.005950951723
 22      -0.010114691289
 23       0.048859677640
 24      -0.103329531215
 25      -0.072388190882
 26      -0.029533553038
 27       0.031582555152
 28      -0.049255555213
 29      -0.034576472669
 30      -0.003158340656
 31       0.004245457071
 32       0.015931486941
 33      -0.044944145845
 34      -0.056128813010
 35       0.020829872123
 36       0.020364663834
 37      -0.022572413445
 38      -0.038088790179
 39       0.001316004630
 40      -0.003483428936
 41       0.056989627810
 42       0.031757522086
 43      -0.008152931126
 44      -0.004105886783
 45       0.028950429766
 46       0.016481061882
 47      -0.005651558306
 48      -0.011020414705
 49      -0.011351157912
 50      -0.004234503387
 51      -0.013904692778
 52      -0.251709261050
 53      -0.196291995008
 54       0.125420732148
 55       0.096711637683
 56       0.013745843685
 57       0.011421333837
 58       0.002359145287
 59       0.004910194969
 60      -0.039058996951
 61      -0.028302554262
 Sym=     1a
 Ene= -5.42601003008965E-01
 Spin= Alpha
 Occup= 2.000000
  1      -0.013086960488
  2       0.028879814909
  3      -0.129943070454
  4      -0.071162382034
  5      -0.111943542227
  6       0.015362316364
  7      -0.083586728400
  8      -0.032637466227
  9      -0.068046378585
 10      -0.184226087628
 11      -0.142701053755
 12      -0.006266629904
 13       0.016442176952
 14       0.239573430728
 15      -0.066750703301
 16       0.203666483830
 17      -0.008473460541
 18       0.145157931260
 19      -0.030000383116
 20       0.108222301221
 21       0.007878161885
 22      -0.015893423640
 23      -0.063459521132
 24       0.103588123161
 25      -0.087843737284
 26      -0.014669302726
 27      -0.043278792978
 28       0.067775725581
 29      -0.059027769991
 30      -0.035029938577
 31       0.078061232772
 32      -0.023323414536
 33       0.102524096464
 34      -0.071303912639
 35       0.071168250365
 36      -0.015043089932
 37       0.023230723498
 38      -0.010061041235
 39       0.007946620572
 40      -0.014716263339
 41       0.113381185531
 42       0.088539841393
 43       0.086334522941
 44      -0.014386587183
 45       0.071692331041
 46       0.064737174597
 47       0.053064509331
 48       0.125810737648
 49       0.089398624226
 50      -0.109999110563
 51      -0.084838718452
 52      -0.025904265001
 53      -0.021557325954
 54       0.173040746807
 55       0.132558239867
 56      -0.108624857055
 57      -0.071766113581
 58      -0.032078693708
 59      -0.041608324647
 60      -0.122951602318
 61      -0.083827428715
 Sym=     1a
 Ene= -5.07497335339462E-01
 Spin= Alpha
 Occup= 2.000000
  1      -0.011573878076
  2       0.025935479226