
                                 *****************
                                 * O   R   C   A *
                                 *****************

                                            #,                                       
                                            ###                                      
                                            ####                                     
                                            #####                                    
                                            ######                                   
                                           ########,                                 
                                     ,,################,,,,,                         
                               ,,#################################,,                 
                          ,,##########################################,,             
                       ,#########################################, ''#####,          
                    ,#############################################,,   '####,        
                  ,##################################################,,,,####,       
                ,###########''''           ''''###############################       
              ,#####''   ,,,,##########,,,,          '''####'''          '####       
            ,##' ,,,,###########################,,,                        '##       
           ' ,,###''''                  '''############,,,                           
         ,,##''                                '''############,,,,        ,,,,,,###''
      ,#''                                            '''#######################'''  
     '                                                          ''''####''''         
             ,#######,   #######,   ,#######,      ##                                
            ,#'     '#,  ##    ##  ,#'     '#,    #''#        ,####,    ,#,          
            ##       ##  ##   ,#'  ##            #'  '#       #'       ,# #          
            ##       ##  #######   ##           ,######,      #####,      #          
            '#,     ,#'  ##    ##  '#,     ,#' ,#      #,     #,   #      #          
             '#######'   ##     ##  '#######'  #'      '#     '####' #    #          



                #########################################################
                #                        -***-                          #
                #          Department of theory and spectroscopy        #
                #                                                       #
                #                      Frank Neese                      #
                #                                                       #
                #     Directorship, Architecture, Infrastructure        #
                #                    SHARK, DRIVERS                     #
                #        Core code/Algorithms in most modules           #
                #                                                       #
                #        Max Planck Institute fuer Kohlenforschung      #
                #                Kaiser Wilhelm Platz 1                 #
                #                 D-45470 Muelheim/Ruhr                 #
                #                      Germany                          #
                #                                                       #
                #                  All rights reserved                  #
                #                        -***-                          #
                #########################################################


                         Program Version 6.1.0  -  RELEASE   -
                                (GIT: $679e74b$)
                          ($2025-06-10 18:02:51 +0200$)


 With contributions from (in alphabetic order):
[Max-Planck-Institut fuer Kohlenforschung]                               
  Daniel Aravena         : Magnetic Suceptibility                        
  Michael Atanasov       : Ab Initio Ligand Field Theory (pilot matlab implementation)
  Alexander A. Auer      : GIAO ZORA, VPT2 properties, NMR spectrum      
  Ute Becker             : All parallelization in ORCA, NUMFREQ, NUMCALC 
  Giovanni Bistoni       : ED, misc. LED, open-shell LED, HFLD           
  Dmytro Bykov           : pre 5.0 version of the SCF Hessian            
  Marcos Casanova-Páez   : Triplet and SCS-CIS(D). UHF-(DLPNO)-IP/EA/STEOM-CCSD. UHF-CVS-IP/STEOM-CCSD   
  Vijay G. Chilkuri      : MRCI spin determinant printing, contributions to CSF-ICE 
  Pauline Colinet        : FMM embedding                                 
  Dipayan Datta          : RHF DLPNO-CCSD density                        
  Achintya Kumar Dutta   : EOM-CC, STEOM-CC                              
  Nicolas Foglia         : Exact transition moments, OPA infrastructure, MCD improvements    
  Dmitry Ganyushin       : Spin-Orbit,Spin-Spin,Magnetic field MRCI      
  Miquel Garcia-Rates    : C-PCM and meta-GGA Hessian, CCSD/C-PCM, Gaussian charge scheme 
  Tiago L. C. Gouveia    : GS-ROHF, GS-ROCIS                             
  Yang Guo               : DLPNO-NEVPT2, F12-NEVPT2, CIM, IAO-localization        
  Andreas Hansen         : Spin unrestricted coupled pair/coupled cluster methods 
  Ingolf Harden          : AUTO-CI MPn and infrastructure                
  Benjamin Helmich-Paris : MC-RPA, TRAH-(SCF,CASSCF), AVAS, COSX integrals, SCF dyn. polar., MC-PDFT, srDFT 
  Lee Huntington         : MR-EOM, pCC                                   
  Robert Izsak           : Overlap fitted RIJCOSX, COSX-SCS-MP3, EOM     
  Riya Kayal             : Wick's Theorem for AUTO-CI, AUTO-CI UHF-CCSDT 
  Emily Kempfer          : AUTO-CI RHF CISDT and CCSDT, approximate NEVPT4
  Christian Kollmar      : KDIIS, OOCD, Brueckner-CCSD(T), CCSD density, CASPT2, CASPT2-K, improved NEVPT2 
  Axel Koslowski         : Symmetry handling                             
  Simone Kossmann        : meta-GGA functionals, TD-DFT gradient, OOMP2, (MP2 Hessian; deprecated post 5.0) 
  Lucas Lang             : DCDCAS, Hyperfine gauge corrections, ICE-SOC+SSC
  Marvin Lechner         : AUTO-CI (C++ implementation), FIC-MRCC        
  Spencer Leger          : CASSCF response                               
  Dagmar Lenk            : GEPOL surface, SMD, ORCA-2-JSON               
  Dimitrios Liakos       : Extrapolation schemes; Compound Job, Property file
  Dimitrios Manganas     : Further ROCIS development; embedding schemes. LFT, Crystal Embedding 
  Dimitrios Pantazis     : SARC Basis sets                               
  Anastasios Papadopoulos: AUTO-CI, single reference methods and gradients 
  Taras Petrenko         : pre 6.0 DFT Hessian and TD-DFT gradient,  ECA, NRVS 
  Petra Pikulova         : Analytic Raman intensities                    
  Peter Pinski           : DLPNO-MP2, DLPNO-MP2 Gradient                 
  Shashank Vittal Rao    : ES-AILFT, MagRelax                            
  Christoph Reimann      : Effective Core Potentials                     
  Marius Retegan         : Local ZFS, SOC                                
  Christoph Riplinger    : Optimizer, TS searches, QM/MM, DLPNO-CCSD(T), (RO)-DLPNO pert. Triples 
  Michael Roemelt        : Original ROCIS implementation, recursive CI coupling coefficients
  Masaaki Saitow         : Open-shell DLPNO-CCSD energy and density      
  Barbara Sandhoefer     : DKH picture change effects                    
  Yorick L. A. Schmerwitz: GMF and freeze-and-release deltaSCF, NEB S-IDPP initial path                    
  Kantharuban Sivalingam : CASSCF convergence/infrastructure, NEVPT2, NEVPT3, NEVPT4(SD), FIC-MRCI and CEPA variants
  Bernardo de Souza      : ESD, SOC TD-DFT                               
  Georgi L. Stoychev     : AutoAux, RI-MP2 NMR, DLPNO-MP2 response, X2C  
  Van Anh Tran           : RI-MP2 g-tensors                              
  Willem Van den Heuvel  : Paramagnetic NMR                              
  Zikuan Wang            : NOTCH, Electric field optimization            
  Frank Wennmohs         : Technical directorship and infrastructure     
  Hang Xu                : AUTO-CI-Response properties                   
                                                                         
[FACCTs GmbH]                                                            
  Markus Bursch, Nicolas Foglia, Miquel Garcia-Rates, Ingolf Harden, Hagen Neugebauer, Anastasios Papadopoulos, 
  Christoph Riplinger, Bernardo de Souza, Georgi L. Stoychev                                                    
                                                                 
  APM, various basis sets, CI-OPT, improved COSX, DLPNO-Multilevel,           
  DOCKER, DRACO, updates on ESD, Fragmentator, GOAT, IRC, LR-CPCM, L-BFGS, MBIS, meta-GGA TD-DFT gradient, ML-optimized integration grids, 
  MM, NACMEs, nearIR, NEB, NEB-TS, NL-DFT gradient (VV10), 2- and 3-layer-ONIOM, interface openCOSMO-RS, QMMM,   
  Crystal-QMMM, RESP, rigid body optimization, SF, symmetry and pop. for TD-DFT, various functionals, SOLVATOR                                   
                                                                         
[Other institutions]                                                     
  V. Asgeirsson          : NEB                                           
  Christoph Bannwarth    : sTDA-DFT, sTD-DFT, PBEh-3c, B97-3c, D3        
  Giovanni Bistoni       : ETS/NOCV, ADLD/ADEX, COVALED                  
  Martin Brehm           : Molecular dynamics                            
  Ronald Cardenas        : ETS/NOCV                                      
  Martina Colucci        : COVALED                                       
  Sebastian Ehlert       : rSCAN, r2SCAN, r2SCAN-3c, D4, dhf basis sets  
  Marvin Friede          : D4 for Fr, Ra, Ac-Lr                          
  Lars Goerigk           : TD-DFT with DH, B97 family of functionals     
  Stefan Grimme          : VdW corrections, initial TS optimization, DFT functionals, gCP, sTDA/sTD-DF 
  Waldemar Hujo          : DFT-NL                                        
  H. Jonsson             : NEB                                           
  Holger Kruse           : gCP                                           
  Marcel Mueller         : wB97X-3c, vDZP basis set                      
  Hagen Neugebauer       : wr2SCAN, Native XTB                           
  Gianluca Regni         : ADLD/ADEX                                     
  Tobias Risthaus        : pre 6.0 range-separated hybrid DFT and stability analysis
  Lukas Wittmann         : regularized MP2, r2SCAN double-hybrids, wr2SCAN        
                                                                         
We gratefully acknowledge several colleagues who have allowed us to      
interface, adapt or use parts of their codes:                            
  Ed Valeev, F. Pavosevic, A. Kumar             : LibInt (2-el integral package), F12 methods 
  Garnet Chan, S. Sharma, J. Yang, R. Olivares  : DMRG                   
  Ulf Ekstrom                                   : XCFun DFT Library      
  Mihaly Kallay                                 : mrcc  (arbitrary order and MRCC methods)
  Frank Weinhold                                : gennbo (NPA and NBO analysis)           
  Simon Mueller                                 : openCOSMO-RS                            
  Christopher J. Cramer and Donald G. Truhlar   : smd solvation model                     
  S Lehtola, MJT Oliveira, MAL Marques          : LibXC Library                           
  Liviu Ungur et al                             : ANISO software                          


 Your calculation uses the libint2 library for the computation of 2-el integrals
 For citations please refer to: http://libint.valeyev.net

 Your ORCA version has been built with support for libXC version: 7.0.0
 For citations please refer to: https://libxc.gitlab.io

 This ORCA versions uses:
   CBLAS   interface :  Fast vector & matrix operations
   LAPACKE interface :  Fast linear algebra routines
   SCALAPACK package :  Parallel linear algebra routines
   Shared memory     :  Shared parallel matrices
   BLAS/LAPACK       :  OpenBLAS 0.3.29  USE64BITINT DYNAMIC_ARCH NO_AFFINITY Zen SINGLE_THREADED
        Core in use  :  Zen
   Copyright (c) 2011-2014, The OpenBLAS Project


  ***********************************
  * Starting time: Sun Apr  5 13:03:00 2026
  * Host name:     QC1
  * Process ID:    13489
  * Working dir.:  /home/user/QC/h-shift/split_2
  ***********************************

NOTE: MaxCore=1200 MB was set to SCF,MP2,MDCI,CIPSI,MRCI,RASCI and CIS
      => If you want to overwrite this, your respective input block should be placed after the MaxCore statement
================================================================================

----- Orbital basis set information -----
Your calculation utilizes the basis: 6-31G
   H-He, Li-Ne : W. J. Hehre, R. Ditchfield and J.A. Pople, J. Chem. Phys. 56, 2257 (1972).
                 Note: He and Ne are unpublished basis sets taken from the Gaussian program.
                 Note: Li and B from J. D. Dill and J. A. Pople, J. Chem. Phys. 62, 2921 (1975).
   Na - Ar     : M. M. Francl, W. J. Pietro, W. J. Hehre, J. S. Binkley, M. S. Gordon, 
                 D. J. DeFrees and J. A. Pople, J. Chem. Phys. 77, 3654 (1982).
   K - Zn      : V. A. Rassolov, J. A. Pople, M. A. Ratner, and T. L. Windus, J. Chem. Phys. 109, 1223 (1998).

================================================================================
                                        WARNINGS
                       Please study these warnings very carefully!
================================================================================


================================================================================
                                       INPUT FILE
================================================================================
NAME = h-shift_076.inp
|  1> ! HF 6-31G
|  2> %maxcore 1200
|  3> %pal nprocs 8 end
|  4> * xyz 0 1
|  5> C   -0.42312100   0.01066300   0.03038900
|  6> H    2.11278200   0.01184600   0.03177100
|  7> C    2.45912900   0.01016400   1.05792200
|  8> C    1.85904800  -1.13503700   1.82067600
|  9> C    0.62410300  -1.60605400   1.65323100
| 10> C   -0.32790300  -1.17962200   0.61657400
| 11> H   -1.07824800   0.16464700  -0.80459200
| 12> H    0.13941300   0.86543200   0.34486400
| 13> H    2.15910400   0.95905200   1.49494900
| 14> H    3.53937800  -0.02228900   1.05608900
| 15> H    2.49390300  -1.61405600   2.54618500
| 16> H    0.30752000  -2.43543800   2.26294000
| 17> H   -0.98316300  -1.96118100   0.27187200
| 18> *
| 19> 
| 20>                          ****END OF INPUT****
================================================================================

                       ****************************
                       * Single Point Calculation *
                       ****************************

---------------------------------
CARTESIAN COORDINATES (ANGSTROEM)
---------------------------------
  C     -0.423121    0.010663    0.030389
  H      2.112782    0.011846    0.031771
  C      2.459129    0.010164    1.057922
  C      1.859048   -1.135037    1.820676
  C      0.624103   -1.606054    1.653231
  C     -0.327903   -1.179622    0.616574
  H     -1.078248    0.164647   -0.804592
  H      0.139413    0.865432    0.344864
  H      2.159104    0.959052    1.494949
  H      3.539378   -0.022289    1.056089
  H      2.493903   -1.614056    2.546185
  H      0.307520   -2.435438    2.262940
  H     -0.983163   -1.961181    0.271872

----------------------------
CARTESIAN COORDINATES (A.U.)
----------------------------
  NO LB      ZA    FRAG     MASS         X           Y           Z
   0 C     6.0000    0    12.011   -0.799583    0.020150    0.057427
   1 H     1.0000    0     1.008    3.992579    0.022386    0.060038
   2 C     6.0000    0    12.011    4.647080    0.019207    1.999183
   3 C     6.0000    0    12.011    3.513092   -2.144909    3.440579
   4 C     6.0000    0    12.011    1.179384   -3.035002    3.124154
   5 C     6.0000    0    12.011   -0.619647   -2.229163    1.165156
   6 H     1.0000    0     1.008   -2.037593    0.311138   -1.520459
   7 H     1.0000    0     1.008    0.263452    1.635429    0.651699
   8 H     1.0000    0     1.008    4.080115    1.812346    2.825044
   9 H     1.0000    0     1.008    6.688455   -0.042120    1.995719
  10 H     1.0000    0     1.008    4.712794   -3.050124    4.811592
  11 H     1.0000    0     1.008    0.581129   -4.602311    4.276337
  12 H     1.0000    0     1.008   -1.857909   -3.706095    0.513764

--------------------------------
INTERNAL COORDINATES (ANGSTROEM)
--------------------------------
 C      0   0   0     0.000000000000     0.00000000     0.00000000
 H      1   0   0     2.535903652512     0.00000000     0.00000000
 C      2   1   0     1.083025829948   108.68174866     0.00000000
 C      3   2   1     1.501124978634   110.78013663    54.56734853
 C      4   3   2     1.332285252992   125.19770231   324.17430608
 C      1   2   3     1.330209646249    85.90537318   296.31917887
 H      1   2   3     1.072425162306   127.67927682   169.62942552
 H      1   2   3     1.070499448922    58.26307389    69.91648092
 H      3   2   1     1.086920436784   106.93780326   294.00902739
 H      3   2   1     1.080737923411   108.54749551   178.15649361
 H      4   3   2     1.076505170664   116.49808886   143.14889190
 H      5   4   3     1.076962246333   118.26790181   179.99324540
 H      6   1   2     1.076577729142   117.70623702   223.33041229

---------------------------
INTERNAL COORDINATES (A.U.)
---------------------------
 C      0   0   0     0.000000000000     0.00000000     0.00000000
 H      1   0   0     4.792163405258     0.00000000     0.00000000
 C      2   1   0     2.046622214564   108.68174866     0.00000000
 C      3   2   1     2.836715102406   110.78013663    54.56734853
 C      4   3   2     2.517654260416   125.19770231   324.17430608
 C      1   2   3     2.513731932111    85.90537318   296.31917887
 H      1   2   3     2.026589855883   127.67927682   169.62942552
 H      1   2   3     2.022950784976    58.26307389    69.91648092
 H      3   2   1     2.053981954883   106.93780326   294.00902739
 H      3   2   1     2.042298697790   108.54749551   178.15649361
 H      4   3   2     2.034299954306   116.49808886   143.14889190
 H      5   4   3     2.035163702141   118.26790181   179.99324540
 H      6   1   2     2.034437069958   117.70623702   223.33041229

---------------------
BASIS SET INFORMATION
---------------------
There are 2 groups of distinct atoms

 Group   1 Type C   : 10s4p contracted to 3s2p pattern {631/31}
 Group   2 Type H   : 4s contracted to 2s pattern {31}

Atom   0C    basis set group =>   1
Atom   1H    basis set group =>   2
Atom   2C    basis set group =>   1
Atom   3C    basis set group =>   1
Atom   4C    basis set group =>   1
Atom   5C    basis set group =>   1
Atom   6H    basis set group =>   2
Atom   7H    basis set group =>   2
Atom   8H    basis set group =>   2
Atom   9H    basis set group =>   2
Atom  10H    basis set group =>   2
Atom  11H    basis set group =>   2
Atom  12H    basis set group =>   2


           ************************************************************
           *        Program running with 8 parallel MPI-processes     *
           *              working on a common directory               *
           ************************************************************
------------------------------------------------------------------------------
                             ORCA STARTUP CALCULATIONS
------------------------------------------------------------------------------
------------------------------------------------------------------------------
                   ___                                                        
                  /   \      - P O W E R E D   B Y -                         
                 /     \                                                     
                 |  |  |   _    _      __       _____    __    __             
                 |  |  |  | |  | |    /  \     |  _  \  |  |  /  |          
                  \  \/   | |  | |   /    \    | | | |  |  | /  /          
                 / \  \   | |__| |  /  /\  \   | |_| |  |  |/  /          
                |  |  |   |  __  | /  /__\  \  |    /   |      \           
                |  |  |   | |  | | |   __   |  |    \   |  |\   \          
                \     /   | |  | | |  |  |  |  | |\  \  |  | \   \       
                 \___/    |_|  |_| |__|  |__|  |_| \__\ |__|  \__/        
                                                                              
                      - O R C A' S   B I G   F R I E N D -                    
                                      &                                       
                       - I N T E G R A L  F E E D E R -                       
                                                                              
 v1 FN, 2020, v2 2021, v3 2022-2024                                           
------------------------------------------------------------------------------


----------------------
SHARK INTEGRAL PACKAGE
----------------------

Number of atoms                             ...     13
Number of basis functions                   ...     61
Number of shells                            ...     41
Maximum angular momentum                    ...      1
Integral batch strategy                     ... SHARK/LIBINT Hybrid
RI-J (if used) integral strategy            ... SPLIT-RIJ (Revised 2003 algorithm where possible)
Printlevel                                  ...      1
Contraction scheme used                     ... SEGMENTED contraction
Prescreening option                         ... SCHWARTZ
   Thresh                                   ... 1.000e-10
   Tcut                                     ... 1.000e-11
   Tpresel                                  ... 1.000e-11 
Coulomb Range Separation                    ... NOT USED
Exchange Range Separation                   ... NOT USED
Multipole approximations                    ... NOT USED
Finite Nucleus Model                        ... NOT USED
CABS basis                                  ... NOT available
Auxiliary Coulomb fitting basis             ... NOT available
Auxiliary J/K fitting basis                 ... NOT available
Auxiliary Correlation fitting basis         ... NOT available
Auxiliary 'external' fitting basis          ... NOT available

Checking pre-screening integrals            ... done (  0.0 sec) Dimension = 41
   => SHARK Basis and OBASIS are compatible. Storing Pre-screening
Shell pair information
Shell pair cut-off parameter TPreSel        ...   1.0e-11
Total number of shell pairs                 ...       861
Shell pairs after pre-screening             ...       846
Total number of primitive shell pairs       ...      5382
Primitive shell pairs kept                  ...      3733
          la=0 lb=0:    481 shell pairs
          la=1 lb=0:    310 shell pairs
          la=1 lb=1:     55 shell pairs

Checking whether 4 symmetric matrices of dimension 61 fit in memory
:Max Core in MB      =   1200.00
 MB in use           =      2.04
 MB left             =   1197.96
 MB needed           =      0.06
 Data fit in memory  = YES
Calculating Nuclear repulsion               ... done (  0.0 sec) ENN=    160.831595049076 Eh

Diagonalization of the overlap matrix:
Smallest eigenvalue                        ... 3.370e-03
Time for diagonalization                   ...    0.000 sec
Threshold for overlap eigenvalues          ... 1.000e-07
Number of eigenvalues below threshold      ... 0
Time for construction of square roots      ...    0.000 sec
Total time needed                          ...    0.001 sec

-------------------
DFT GRID GENERATION
-------------------

General Integration Accuracy     IntAcc      ... 4.388
Radial Grid Type                 RadialGrid  ... OptM3 with GC (2021)
Angular Grid (max. ang.)         AngularGrid ... 4 (Lebedev-302)
Angular grid pruning method      GridPruning ... 4 (adaptive)
Weight generation scheme         WeightScheme... mBecke (2022)
Basis function cutoff            BFCut       ... 1.0000e-10
Integration weight cutoff        WCut        ... 1.0000e-14
Partially contracted basis set               ... off
Rotationally invariant grid construction     ... off
Angular grids for H and He will be reduced by one unit

Total number of grid points                  ...    56065
Total number of batches                      ...      883
Average number of points per batch           ...       63
Average number of grid points per atom       ...     4313
Grids setup in   0.3 sec
Initializing property integral containers    ... done (  0.0 sec)

SHARK setup successfully completed in   0.3 seconds

Maximum memory used throughout the entire STARTUP-calculation: 11.9 MB


           ************************************************************
           *        Program running with 8 parallel MPI-processes     *
           *              working on a common directory               *
           ************************************************************
-------------------------------------------------------------------------------
                                 ORCA GUESS
                   Start orbitals & Density for SCF / CASSCF
-------------------------------------------------------------------------------

------------
SCF SETTINGS
------------
Hamiltonian:
 Ab initio Hamiltonian  Method          .... Hartree-Fock(GTOs)


General Settings:
 Integral files         IntName         .... h-shift_076
 Hartree-Fock type      HFTyp           .... RHF
 Total Charge           Charge          ....    0
 Multiplicity           Mult            ....    1
 Number of Electrons    NEL             ....   38
 Basis Dimension        Dim             ....   61
 Nuclear Repulsion      ENuc            ....    160.8315950491 Eh

Convergence Acceleration:
 AO-DIIS                CNVDIIS         .... on
   Start iteration      DIISMaxIt       ....    12
   Startup error        DIISStart       ....  0.200000
   # of expansion vecs  DIISMaxEq       ....     5
   Bias factor          DIISBfac        ....   1.050
   Max. coefficient     DIISMaxC        ....  10.000
 MO-DIIS                CNVKDIIS        .... off
 Trust-Rad. Augm. Hess. CNVTRAH         .... auto
   Auto Start mean grad. ratio tolernc. ....  1.125000
   Auto Start start iteration           ....    50
   Auto Start num. interpolation iter.  ....    10
   Max. Number of Micro iterations      ....    24
   Max. Number of Macro iterations      .... Maxiter - #DIIS iter
   Number of Davidson start vectors     ....     2
   Converg. threshold    (grad. norm)   ....   5.000e-05
   Grad. Scal. Fac. for Micro threshold ....   0.100
   Minimum threshold for Micro iter.    ....   1.000e-02
   NR start threshold (gradient norm)   ....   1.000e-04
   Initial trust radius                 ....   0.400
   Minimum AH scaling param. (alpha)    ....   1.000
   Maximum AH scaling param. (alpha)    .... 1000.000
   Quad. conv. algorithm                .... NR
   White noise on init. David. guess    .... on
   Maximum white noise                  ....   0.010
   Pseudo random numbers                .... off
   Inactive MOs                         .... canonical
   Orbital update algorithm             .... Taylor
   Preconditioner                       .... Diag
   Full preconditioner red. dimension   ....   250
 SOSCF                 CNVSOSCF           .... on
   Start iteration     SOSCFMaxIt         ....   150
   Startup grad/error  SOSCFStart         ....  0.003300
   Hessian update      SOSCFHessUp        .... L-BFGS
   Autom. constraints  SOSCFAutoConstrain .... off
 Level Shifting         CNVShift        .... on
   Level shift para.    LevelShift      ....    0.2500
   Turn off err/grad.   ShiftErr        ....    0.0010
 Zerner damping         CNVZerner       .... off
 Static damping         CNVDamp         .... on
   Fraction old density DampFac         ....    0.7000
   Max. Damping (<1)    DampMax         ....    0.9800
   Min. Damping (>=0)   DampMin         ....    0.0000
   Turn off err/grad.   DampErr         ....    0.1000

SCF Procedure:
 Maximum # iterations   MaxIter         ....   125
 SCF integral mode      SCFMode         .... Direct
   Integral package                     .... SHARK and LIBINT hybrid scheme
 Reset frequency        DirectResetFreq ....    20
 Integral Threshold     Thresh          ....  1.000e-10 Eh
 Primitive CutOff       TCut            ....  1.000e-11 Eh

Convergence Tolerance:
 Convergence Check Mode ConvCheckMode   .... Total+1el-Energy
 Convergence forced     ConvForced      .... 0
 Energy Change          TolE            ....  1.000e-06 Eh
 1-El. energy change                    ....  1.000e-03 Eh
 Orbital Gradient       TolG            ....  5.000e-05
 Orbital Rotation angle TolX            ....  5.000e-05
 DIIS Error             TolErr          ....  1.000e-06

------------------------------
INITIAL GUESS: MODEL POTENTIAL
------------------------------
Loading Hartree-Fock densities                     ... done
Calculating cut-offs                               ... done
Initializing the effective Hamiltonian             ... done
Setting up the integral package (SHARK)            ... done
Starting the Coulomb interaction                   ... done (   0.0 sec)
Making the grid                                    ... done (   0.1 sec)
Mapping shells                                     ... done
Starting the XC term evaluation                    ... done (   0.0 sec)
Transforming the Hamiltonian                       ... done (   0.0 sec)
Diagonalizing the Hamiltonian                      ... done (   0.0 sec)
Back transforming the eigenvectors                 ... done (   0.0 sec)
Now organizing SCF variables                       ... done
                      ------------------
                      INITIAL GUESS DONE (   0.1 sec)
                      ------------------
             **** ENERGY FILE WAS UPDATED (h-shift_076.en.tmp) ****
Finished Guess after   0.3 sec
Maximum memory used throughout the entire GUESS-calculation: 4.2 MB


           ************************************************************
           *        Program running with 8 parallel MPI-processes     *
           *              working on a common directory               *
           ************************************************************

-------------------------------------------------------------------------------------------
                                      ORCA LEAN-SCF
                              memory conserving SCF solver
-------------------------------------------------------------------------------------------

----------------------------------------D-I-I-S--------------------------------------------
Iteration    Energy (Eh)           Delta-E    RMSDP     MaxDP     DIISErr   Damp  Time(sec)
-------------------------------------------------------------------------------------------
               ***  Starting incremental Fock matrix formation  ***
    1    -193.6456156572992597     0.00e+00  1.57e-02  5.23e-02  1.83e-01  0.700   0.0
    2    -193.7266228457708905    -8.10e-02  1.25e-02  3.96e-02  1.20e-01  0.700   0.0
                               ***Turning on AO-DIIS***
    3    -193.7767046413649439    -5.01e-02  7.70e-03  2.01e-02  7.18e-02  0.700   0.0
    4    -193.8083505571399598    -3.16e-02  1.83e-02  4.39e-02  4.87e-02  0.000   0.0
                              *** Initializing SOSCF ***
---------------------------------------S-O-S-C-F--------------------------------------
Iteration    Energy (Eh)           Delta-E    RMSDP     MaxDP     MaxGrad    Time(sec)
--------------------------------------------------------------------------------------
    5    -193.8768042400312481    -6.85e-02  1.69e-03  2.71e-03  2.16e-03     0.0
               *** Restarting incremental Fock matrix formation ***
    6    -193.8769244421639826    -1.20e-04  8.67e-04  1.44e-03  1.34e-03     0.0
    7    -193.8769596870310750    -3.52e-05  5.39e-04  1.10e-03  5.46e-04     0.0
    8    -193.8769664715070746    -6.78e-06  7.09e-05  2.05e-04  1.34e-04     0.0
    9    -193.8769666870620370    -2.16e-07  3.21e-05  9.59e-05  3.23e-05     0.0
                 **** Energy Check signals convergence ****

               *****************************************************
               *                     SUCCESS                       *
               *           SCF CONVERGED AFTER   9 CYCLES          *
               *****************************************************

             **** ENERGY FILE WAS UPDATED (h-shift_076.en.tmp) ****

----------------
TOTAL SCF ENERGY
----------------

Total Energy       :       -193.87696674382570 Eh           -5275.66047 eV

Components:
Nuclear Repulsion  :        160.83159504907573 Eh            4376.45020 eV
Electronic Energy  :       -354.70856179290143 Eh           -9652.11067 eV
One Electron Energy:       -578.62327490796326 Eh          -15745.13978 eV
Two Electron Energy:        223.91471311506183 Eh            6093.02911 eV

Virial components:
Potential Energy   :       -388.04550879275155 Eh          -10559.25512 eV
Kinetic Energy     :        194.16854204892584 Eh            5283.59464 eV
Virial Ratio       :          1.99849833911290

---------------
SCF CONVERGENCE
---------------

  Last Energy change         ...    2.1555e-07  Tolerance :   1.0000e-06
  Last MAX-Density change    ...    9.5930e-05  Tolerance :   1.0000e-05
  Last RMS-Density change    ...    3.2075e-05  Tolerance :   1.0000e-06
  Last DIIS Error            ...    2.1635e-03  Tolerance :   1.0000e-06
  Last Orbital Gradient      ...    3.2279e-05  Tolerance :   5.0000e-05
  Last Orbital Rotation      ...    3.2299e-05  Tolerance :   5.0000e-05


----------------
ORBITAL ENERGIES
----------------

  NO   OCC          E(Eh)            E(eV) 
   0   2.0000     -11.236001      -305.7471 
   1   2.0000     -11.235538      -305.7345 
   2   2.0000     -11.227453      -305.5145 
   3   2.0000     -11.221423      -305.3504 
   4   2.0000     -11.215051      -305.1771 
   5   2.0000      -1.100569       -29.9480 
   6   2.0000      -1.021029       -27.7836 
   7   2.0000      -0.941149       -25.6100 
   8   2.0000      -0.813774       -22.1439 
   9   2.0000      -0.717370       -19.5206 
  10   2.0000      -0.667346       -18.1594 
  11   2.0000      -0.603480       -16.4215 
  12   2.0000      -0.584806       -15.9134 
  13   2.0000      -0.567366       -15.4388 
  14   2.0000      -0.541455       -14.7337 
  15   2.0000      -0.507193       -13.8014 
  16   2.0000      -0.468908       -12.7596 
  17   2.0000      -0.411309       -11.1923 
  18   2.0000      -0.315703        -8.5907 
  19   0.0000       0.132994         3.6190 
  20   0.0000       0.232147         6.3170 
  21   0.0000       0.253151         6.8886 
  22   0.0000       0.265614         7.2277 
  23   0.0000       0.291792         7.9401 
  24   0.0000       0.320496         8.7211 
  25   0.0000       0.336644         9.1606 
  26   0.0000       0.347389         9.4529 
  27   0.0000       0.359049         9.7702 
  28   0.0000       0.368150        10.0179 
  29   0.0000       0.429280        11.6813 
*Only the first 10 virtual orbitals were printed.

                    ********************************
                    * MULLIKEN POPULATION ANALYSIS *
                    ********************************

-----------------------
MULLIKEN ATOMIC CHARGES
-----------------------
   0 C :   -0.362717
   1 H :    0.181958
   2 C :   -0.509601
   3 C :   -0.148083
   4 C :   -0.196815
   5 C :   -0.151736
   6 H :    0.161870
   7 H :    0.171945
   8 H :    0.170777
   9 H :    0.159239
  10 H :    0.174572
  11 H :    0.175195
  12 H :    0.173395
Sum of atomic charges:   -0.0000000

--------------------------------
MULLIKEN REDUCED ORBITAL CHARGES
--------------------------------
  0 C s       :     3.266585  s :     3.266585
      pz      :     1.043886  p :     3.096131
      px      :     1.056394
      py      :     0.995851

  1 H s       :     0.818042  s :     0.818042

  2 C s       :     3.366596  s :     3.366596
      pz      :     1.064301  p :     3.143005
      px      :     1.081563
      py      :     0.997141

  3 C s       :     3.210621  s :     3.210621
      pz      :     0.994848  p :     2.937461
      px      :     0.982573
      py      :     0.960040

  4 C s       :     3.193728  s :     3.193728
      pz      :     1.001109  p :     3.003087
      px      :     0.937588
      py      :     1.064389

  5 C s       :     3.194714  s :     3.194714
      pz      :     0.941495  p :     2.957021
      px      :     1.020207
      py      :     0.995319

  6 H s       :     0.838130  s :     0.838130

  7 H s       :     0.828055  s :     0.828055

  8 H s       :     0.829223  s :     0.829223

  9 H s       :     0.840761  s :     0.840761

 10 H s       :     0.825428  s :     0.825428

 11 H s       :     0.824805  s :     0.824805

 12 H s       :     0.826605  s :     0.826605



                     *******************************
                     * LOEWDIN POPULATION ANALYSIS *
                     *******************************

----------------------
LOEWDIN ATOMIC CHARGES
----------------------
   0 C :   -0.246688
   1 H :    0.124847
   2 C :   -0.319462
   3 C :   -0.107231
   4 C :   -0.149756
   5 C :   -0.113937
   6 H :    0.116163
   7 H :    0.117590
   8 H :    0.117148
   9 H :    0.110857
  10 H :    0.116561
  11 H :    0.117319
  12 H :    0.116588

-------------------------------
LOEWDIN REDUCED ORBITAL CHARGES
-------------------------------
  0 C s       :     2.988359  s :     2.988359
      pz      :     1.076972  p :     3.258329
      px      :     1.074242
      py      :     1.107115

  1 H s       :     0.875153  s :     0.875153

  2 C s       :     2.976155  s :     2.976155
      pz      :     1.127715  p :     3.343307
      px      :     1.122895
      py      :     1.092697

  3 C s       :     2.951706  s :     2.951706
      pz      :     1.031740  p :     3.155526
      px      :     1.091227
      py      :     1.032559

  4 C s       :     2.940641  s :     2.940641
      pz      :     1.053451  p :     3.209115
      px      :     1.085110
      py      :     1.070553

  5 C s       :     2.944996  s :     2.944996
      pz      :     1.024708  p :     3.168940
      px      :     1.034325
      py      :     1.109908

  6 H s       :     0.883837  s :     0.883837

  7 H s       :     0.882410  s :     0.882410

  8 H s       :     0.882852  s :     0.882852

  9 H s       :     0.889143  s :     0.889143

 10 H s       :     0.883439  s :     0.883439

 11 H s       :     0.882681  s :     0.882681

 12 H s       :     0.883412  s :     0.883412



                      *****************************
                      * MAYER POPULATION ANALYSIS *
                      *****************************

  NA   - Mulliken gross atomic population
  ZA   - Total nuclear charge
  QA   - Mulliken gross atomic charge
  VA   - Mayer's total valence
  BVA  - Mayer's bonded valence
  FA   - Mayer's free valence

  ATOM       NA         ZA         QA         VA         BVA        FA
  0 C      6.3627     6.0000    -0.3627     3.8454     3.8454    -0.0000
  1 H      0.8180     1.0000     0.1820     0.9305     0.9305    -0.0000
  2 C      6.5096     6.0000    -0.5096     3.7715     3.7715    -0.0000
  3 C      6.1481     6.0000    -0.1481     3.7665     3.7665    -0.0000
  4 C      6.1968     6.0000    -0.1968     3.8238     3.8238    -0.0000
  5 C      6.1517     6.0000    -0.1517     3.8082     3.8082    -0.0000
  6 H      0.8381     1.0000     0.1619     0.9438     0.9438    -0.0000
  7 H      0.8281     1.0000     0.1719     0.9389     0.9389     0.0000
  8 H      0.8292     1.0000     0.1708     0.9222     0.9222    -0.0000
  9 H      0.8408     1.0000     0.1592     0.9325     0.9325    -0.0000
 10 H      0.8254     1.0000     0.1746     0.9387     0.9387    -0.0000
 11 H      0.8248     1.0000     0.1752     0.9387     0.9387    -0.0000
 12 H      0.8266     1.0000     0.1734     0.9371     0.9371    -0.0000

  Mayer bond orders larger than 0.100000
B(  0-C ,  5-C ) :   1.8795 B(  0-C ,  6-H ) :   0.9628 B(  0-C ,  7-H ) :   0.9615 
B(  1-H ,  2-C ) :   0.9429 B(  2-C ,  3-C ) :   0.9588 B(  2-C ,  8-H ) :   0.9452 
B(  2-C ,  9-H ) :   0.9597 B(  3-C ,  4-C ) :   1.8817 B(  3-C , 10-H ) :   0.9576 
B(  4-C ,  5-C ) :   1.0461 B(  4-C , 11-H ) :   0.9565 B(  5-C , 12-H ) :   0.9575 


-------
TIMINGS
-------

Total SCF time: 0 days 0 hours 0 min 0 sec 

Total time                  ....       0.647 sec
Sum of individual times     ....       0.601 sec  ( 92.9%)

SCF preparation             ....       0.261 sec  ( 40.3%)
Fock matrix formation       ....       0.285 sec  ( 44.0%)
  Startup                   ....       0.001 sec  (  0.5% of F)
  Coulomb+Exchange Fock     ....       0.306 sec  (107.5% of F)
Diagonalization             ....       0.000 sec  (  0.0%)
Density matrix formation    ....       0.008 sec  (  1.2%)
Total Energy calculation    ....       0.005 sec  (  0.8%)
Population analysis         ....       0.005 sec  (  0.7%)
Orbital Transformation      ....       0.005 sec  (  0.7%)
Orbital Orthonormalization  ....       0.000 sec  (  0.0%)
DIIS solution               ....       0.020 sec  (  3.1%)
SOSCF solution              ....       0.013 sec  (  2.1%)
Finished LeanSCF after   0.7 sec

Maximum memory used throughout the entire LEANSCF-calculation: 6.4 MB

-------------------------   --------------------
FINAL SINGLE POINT ENERGY      -193.876966743826
-------------------------   --------------------



           ************************************************************
           *        Program running with 8 parallel MPI-processes     *
           *              working on a common directory               *
           ************************************************************

------------------------------------------------------------------------------
                              ORCA PROPERTY CALCULATIONS
------------------------------------------------------------------------------

GBWName                                 ... h-shift_076.gbw
Number of atoms                         ...     13
Number of basis functions               ...     61
Max core memory                         ...   1200 MB

Electric properties:
Dipole moment                           ... YES
Quadrupole moment                       ...  NO
Static polarizability (Dipole/Dipole)   ...  NO
Static polarizability (Dipole/Quad.)    ...  NO
Static polarizability (Quad./Quad.)     ...  NO
Static polarizability (Velocity)        ...  NO
Static hyperpolarizability              ...  NO

Atomic electric properties:
Dipole moment                           ...  NO
Quadrupole moment                       ...  NO
Static polarizability                   ...  NO

Choice of electric origin               ... Center of mass
Position of electric origin             ...     1.639564    -1.412205     1.927044

General magnetic properties:
Magnetizability                         ...  NO

EPR properties:
g-Tensor (aka g-matrix)                 ...  NO
Zero-Field splitting spin-orbit         ...  NO
Zero-field splitting spin-spin          ...  NO
Hyperfine couplings                     ...  NO (   0 nuclei)
Quadrupole couplings                    ...  NO (   0 nuclei)
Contact density                         ...  NO (   0 nuclei)

NMR properties:
Chemical shifts                         ...  NO (   0 nuclei)
Spin-rotation constants                 ...  NO (   0 nuclei)
Spin-spin couplings                     ...  NO (   0 nuclei,    0 pairs)

Choice of magnetic origin               ... GIAO
Position of magnetic origin             ...     0.000000     0.000000     0.000000

Properties with geometric perturbations:
SCF Hessian                             ...  NO
IR spectrum                             ...  NO
VCD spectrum                            ...  NO
X-ray spectroscopy properties:
SCF XES/XAS/RIXS spectra                ...  NO

SCF SOC stabilization energy            ...  NO
Diagonal Born-Oppenheimer correction    ...  NO

-------------
DIPOLE MOMENT
-------------

Method             : SCF
Type of density    : Electron Density
Multiplicity       :   1
Irrep              :   0
Energy             :  -193.8769667438257045 Eh
Basis              : AO
                                X                 Y                 Z
Electronic contribution:     -1.517051778      -1.815819783       0.869386727
Nuclear contribution   :      1.641556295       1.826127797      -0.894928512
                        -----------------------------------------
Total Dipole Moment    :      0.124504518       0.010308014      -0.025541786
                        -----------------------------------------
Magnitude (a.u.)       :      0.127514756
Magnitude (Debye)      :      0.324116751



--------------------
Rotational spectrum 
--------------------
 
Rotational constants in cm-1:             0.285999             0.139880             0.097236 
Rotational constants in MHz :          8574.044013          4193.482955          2915.048023 

Dipole components along the rotational axes: 
x,y,z [a.u.] :     0.103775     0.048666     0.055878 
x,y,z [Debye]:     0.263775     0.123699     0.142031 

 

Dipole moment calculation done in   0.0 sec 

Maximum memory used throughout the entire PROP-calculation: 2.2 MB

--------------------------------
SUGGESTED CITATIONS FOR THIS RUN
--------------------------------

Below you find a list of papers that are relevant to this ORCA run
We neither can nor want to force you to cite these papers, but we appreciate if you do
You receive ORCA, which is the product of decades of hard work by many enthusiastic individuals, for free
The only thing we kindly ask in return is that you cite our papers,
We deeply appreciate it, if you show your appreciation for ORCA by not just citing the generic ORCA reference.

Please note that relegating all ORCA citations to the supporting information does *not* help us.
SI sections are not indexed - citations you put there will not count into any citation statistics
But we need these citations in order to attract the funding resources that allow us to do what we are doing

Therefore, if you are a happy ORCA user, please consider citing a few of the papers listed below in the main body of your paper

In addition to the list printed below, the program has created the file h-shift_076.bibtex that contains the list in bibtex format
You can import this file easily into all common literature databanks and citation aid programs


List of essential papers. We consider these as the minimum necessary citations

  1. Neese, F.
     Software update: the ORCA program system, version 6.0
     WIRES Comput. Molec. Sci. 2025 15(1), e70019
     doi.org/10.1002/wcms.7019

List of papers to cite with high priority. The work reported in these papers was absolutely
necessary for this run to complete.
Our perspective: the developers of density functionals and basis sets usually get cited in chemistry papers
Good! But without the algorithms to do something with them, the functionals or basis sets would not do anything.
Hence, in our opinion, the algorithm design and method developments papers are equally worthy of getting cited

  1. Neese, F.
     The SHARK Integral Generation and Digestion System
     J. Comp. Chem. 2022 44(3), 381
     doi.org/10.1002/jcc.26942

List of suggested additional citations. These are papers that are important in the 'surrounding' of 
of this run, or papers that preceded the highly important papers. If you like your results we are grateful for a citation.

  1. Neese, F.
     The ORCA program system
     WIRES Comput. Molec. Sci. 2012 2(1), 73-78
     doi.org/10.1002/wcms.81
  2. Neese, F.
     Software update: the ORCA program system, version 4.0
     WIRES Comput. Molec. Sci. 2018 8(1), 1-6
     doi.org/10.1002/wcms.1327
  3. Neese, F.; Wennmohs, F.; Becker, U.; Riplinger, C.
     The ORCA quantum chemistry program package
     J. Chem. Phys. 2020 152(22), 224108
     doi.org/10.1063/5.0004608
  4. Neese, F.
     Software update: The ORCA program system—Version 5.0
     WIRES Comput. Molec. Sci. 2022 12(1), e1606
     doi.org/10.1002/wcms.1606

List of optional additional citations

  1. Neese, F.
     Approximate second-order SCF convergence for spin unrestricted wavefunctions
     Chem. Phys. Lett. 2000 325(1-3), 93-98
     doi.org/10.1016/s0009-2614(00)00662-x

Timings for individual modules:

Sum of individual times          ...        2.267 sec (=   0.038 min)
Startup calculation              ...        0.674 sec (=   0.011 min)  29.7 %
SCF iterations                   ...        1.204 sec (=   0.020 min)  53.1 %
Property calculations            ...        0.389 sec (=   0.006 min)  17.2 %
                             ****ORCA TERMINATED NORMALLY****
TOTAL RUN TIME: 0 days 0 hours 0 minutes 2 seconds 777 msec
