
                                 *****************
                                 * O   R   C   A *
                                 *****************

                                            #,                                       
                                            ###                                      
                                            ####                                     
                                            #####                                    
                                            ######                                   
                                           ########,                                 
                                     ,,################,,,,,                         
                               ,,#################################,,                 
                          ,,##########################################,,             
                       ,#########################################, ''#####,          
                    ,#############################################,,   '####,        
                  ,##################################################,,,,####,       
                ,###########''''           ''''###############################       
              ,#####''   ,,,,##########,,,,          '''####'''          '####       
            ,##' ,,,,###########################,,,                        '##       
           ' ,,###''''                  '''############,,,                           
         ,,##''                                '''############,,,,        ,,,,,,###''
      ,#''                                            '''#######################'''  
     '                                                          ''''####''''         
             ,#######,   #######,   ,#######,      ##                                
            ,#'     '#,  ##    ##  ,#'     '#,    #''#        ,####,    ,#,          
            ##       ##  ##   ,#'  ##            #'  '#       #'       ,# #          
            ##       ##  #######   ##           ,######,      #####,      #          
            '#,     ,#'  ##    ##  '#,     ,#' ,#      #,     #,   #      #          
             '#######'   ##     ##  '#######'  #'      '#     '####' #    #          



                #########################################################
                #                        -***-                          #
                #          Department of theory and spectroscopy        #
                #                                                       #
                #                      Frank Neese                      #
                #                                                       #
                #     Directorship, Architecture, Infrastructure        #
                #                    SHARK, DRIVERS                     #
                #        Core code/Algorithms in most modules           #
                #                                                       #
                #        Max Planck Institute fuer Kohlenforschung      #
                #                Kaiser Wilhelm Platz 1                 #
                #                 D-45470 Muelheim/Ruhr                 #
                #                      Germany                          #
                #                                                       #
                #                  All rights reserved                  #
                #                        -***-                          #
                #########################################################


                         Program Version 6.1.0  -  RELEASE   -
                                (GIT: $679e74b$)
                          ($2025-06-10 18:02:51 +0200$)


 With contributions from (in alphabetic order):
[Max-Planck-Institut fuer Kohlenforschung]                               
  Daniel Aravena         : Magnetic Suceptibility                        
  Michael Atanasov       : Ab Initio Ligand Field Theory (pilot matlab implementation)
  Alexander A. Auer      : GIAO ZORA, VPT2 properties, NMR spectrum      
  Ute Becker             : All parallelization in ORCA, NUMFREQ, NUMCALC 
  Giovanni Bistoni       : ED, misc. LED, open-shell LED, HFLD           
  Dmytro Bykov           : pre 5.0 version of the SCF Hessian            
  Marcos Casanova-Páez   : Triplet and SCS-CIS(D). UHF-(DLPNO)-IP/EA/STEOM-CCSD. UHF-CVS-IP/STEOM-CCSD   
  Vijay G. Chilkuri      : MRCI spin determinant printing, contributions to CSF-ICE 
  Pauline Colinet        : FMM embedding                                 
  Dipayan Datta          : RHF DLPNO-CCSD density                        
  Achintya Kumar Dutta   : EOM-CC, STEOM-CC                              
  Nicolas Foglia         : Exact transition moments, OPA infrastructure, MCD improvements    
  Dmitry Ganyushin       : Spin-Orbit,Spin-Spin,Magnetic field MRCI      
  Miquel Garcia-Rates    : C-PCM and meta-GGA Hessian, CCSD/C-PCM, Gaussian charge scheme 
  Tiago L. C. Gouveia    : GS-ROHF, GS-ROCIS                             
  Yang Guo               : DLPNO-NEVPT2, F12-NEVPT2, CIM, IAO-localization        
  Andreas Hansen         : Spin unrestricted coupled pair/coupled cluster methods 
  Ingolf Harden          : AUTO-CI MPn and infrastructure                
  Benjamin Helmich-Paris : MC-RPA, TRAH-(SCF,CASSCF), AVAS, COSX integrals, SCF dyn. polar., MC-PDFT, srDFT 
  Lee Huntington         : MR-EOM, pCC                                   
  Robert Izsak           : Overlap fitted RIJCOSX, COSX-SCS-MP3, EOM     
  Riya Kayal             : Wick's Theorem for AUTO-CI, AUTO-CI UHF-CCSDT 
  Emily Kempfer          : AUTO-CI RHF CISDT and CCSDT, approximate NEVPT4
  Christian Kollmar      : KDIIS, OOCD, Brueckner-CCSD(T), CCSD density, CASPT2, CASPT2-K, improved NEVPT2 
  Axel Koslowski         : Symmetry handling                             
  Simone Kossmann        : meta-GGA functionals, TD-DFT gradient, OOMP2, (MP2 Hessian; deprecated post 5.0) 
  Lucas Lang             : DCDCAS, Hyperfine gauge corrections, ICE-SOC+SSC
  Marvin Lechner         : AUTO-CI (C++ implementation), FIC-MRCC        
  Spencer Leger          : CASSCF response                               
  Dagmar Lenk            : GEPOL surface, SMD, ORCA-2-JSON               
  Dimitrios Liakos       : Extrapolation schemes; Compound Job, Property file
  Dimitrios Manganas     : Further ROCIS development; embedding schemes. LFT, Crystal Embedding 
  Dimitrios Pantazis     : SARC Basis sets                               
  Anastasios Papadopoulos: AUTO-CI, single reference methods and gradients 
  Taras Petrenko         : pre 6.0 DFT Hessian and TD-DFT gradient,  ECA, NRVS 
  Petra Pikulova         : Analytic Raman intensities                    
  Peter Pinski           : DLPNO-MP2, DLPNO-MP2 Gradient                 
  Shashank Vittal Rao    : ES-AILFT, MagRelax                            
  Christoph Reimann      : Effective Core Potentials                     
  Marius Retegan         : Local ZFS, SOC                                
  Christoph Riplinger    : Optimizer, TS searches, QM/MM, DLPNO-CCSD(T), (RO)-DLPNO pert. Triples 
  Michael Roemelt        : Original ROCIS implementation, recursive CI coupling coefficients
  Masaaki Saitow         : Open-shell DLPNO-CCSD energy and density      
  Barbara Sandhoefer     : DKH picture change effects                    
  Yorick L. A. Schmerwitz: GMF and freeze-and-release deltaSCF, NEB S-IDPP initial path                    
  Kantharuban Sivalingam : CASSCF convergence/infrastructure, NEVPT2, NEVPT3, NEVPT4(SD), FIC-MRCI and CEPA variants
  Bernardo de Souza      : ESD, SOC TD-DFT                               
  Georgi L. Stoychev     : AutoAux, RI-MP2 NMR, DLPNO-MP2 response, X2C  
  Van Anh Tran           : RI-MP2 g-tensors                              
  Willem Van den Heuvel  : Paramagnetic NMR                              
  Zikuan Wang            : NOTCH, Electric field optimization            
  Frank Wennmohs         : Technical directorship and infrastructure     
  Hang Xu                : AUTO-CI-Response properties                   
                                                                         
[FACCTs GmbH]                                                            
  Markus Bursch, Nicolas Foglia, Miquel Garcia-Rates, Ingolf Harden, Hagen Neugebauer, Anastasios Papadopoulos, 
  Christoph Riplinger, Bernardo de Souza, Georgi L. Stoychev                                                    
                                                                 
  APM, various basis sets, CI-OPT, improved COSX, DLPNO-Multilevel,           
  DOCKER, DRACO, updates on ESD, Fragmentator, GOAT, IRC, LR-CPCM, L-BFGS, MBIS, meta-GGA TD-DFT gradient, ML-optimized integration grids, 
  MM, NACMEs, nearIR, NEB, NEB-TS, NL-DFT gradient (VV10), 2- and 3-layer-ONIOM, interface openCOSMO-RS, QMMM,   
  Crystal-QMMM, RESP, rigid body optimization, SF, symmetry and pop. for TD-DFT, various functionals, SOLVATOR                                   
                                                                         
[Other institutions]                                                     
  V. Asgeirsson          : NEB                                           
  Christoph Bannwarth    : sTDA-DFT, sTD-DFT, PBEh-3c, B97-3c, D3        
  Giovanni Bistoni       : ETS/NOCV, ADLD/ADEX, COVALED                  
  Martin Brehm           : Molecular dynamics                            
  Ronald Cardenas        : ETS/NOCV                                      
  Martina Colucci        : COVALED                                       
  Sebastian Ehlert       : rSCAN, r2SCAN, r2SCAN-3c, D4, dhf basis sets  
  Marvin Friede          : D4 for Fr, Ra, Ac-Lr                          
  Lars Goerigk           : TD-DFT with DH, B97 family of functionals     
  Stefan Grimme          : VdW corrections, initial TS optimization, DFT functionals, gCP, sTDA/sTD-DF 
  Waldemar Hujo          : DFT-NL                                        
  H. Jonsson             : NEB                                           
  Holger Kruse           : gCP                                           
  Marcel Mueller         : wB97X-3c, vDZP basis set                      
  Hagen Neugebauer       : wr2SCAN, Native XTB                           
  Gianluca Regni         : ADLD/ADEX                                     
  Tobias Risthaus        : pre 6.0 range-separated hybrid DFT and stability analysis
  Lukas Wittmann         : regularized MP2, r2SCAN double-hybrids, wr2SCAN        
                                                                         
We gratefully acknowledge several colleagues who have allowed us to      
interface, adapt or use parts of their codes:                            
  Ed Valeev, F. Pavosevic, A. Kumar             : LibInt (2-el integral package), F12 methods 
  Garnet Chan, S. Sharma, J. Yang, R. Olivares  : DMRG                   
  Ulf Ekstrom                                   : XCFun DFT Library      
  Mihaly Kallay                                 : mrcc  (arbitrary order and MRCC methods)
  Frank Weinhold                                : gennbo (NPA and NBO analysis)           
  Simon Mueller                                 : openCOSMO-RS                            
  Christopher J. Cramer and Donald G. Truhlar   : smd solvation model                     
  S Lehtola, MJT Oliveira, MAL Marques          : LibXC Library                           
  Liviu Ungur et al                             : ANISO software                          


 Your calculation uses the libint2 library for the computation of 2-el integrals
 For citations please refer to: http://libint.valeyev.net

 Your ORCA version has been built with support for libXC version: 7.0.0
 For citations please refer to: https://libxc.gitlab.io

 This ORCA versions uses:
   CBLAS   interface :  Fast vector & matrix operations
   LAPACKE interface :  Fast linear algebra routines
   SCALAPACK package :  Parallel linear algebra routines
   Shared memory     :  Shared parallel matrices
   BLAS/LAPACK       :  OpenBLAS 0.3.29  USE64BITINT DYNAMIC_ARCH NO_AFFINITY Zen SINGLE_THREADED
        Core in use  :  Zen
   Copyright (c) 2011-2014, The OpenBLAS Project


  ***********************************
  * Starting time: Sun Apr  5 13:02:40 2026
  * Host name:     QC1
  * Process ID:    12453
  * Working dir.:  /home/user/QC/h-shift/split_2
  ***********************************

NOTE: MaxCore=1200 MB was set to SCF,MP2,MDCI,CIPSI,MRCI,RASCI and CIS
      => If you want to overwrite this, your respective input block should be placed after the MaxCore statement
================================================================================

----- Orbital basis set information -----
Your calculation utilizes the basis: 6-31G
   H-He, Li-Ne : W. J. Hehre, R. Ditchfield and J.A. Pople, J. Chem. Phys. 56, 2257 (1972).
                 Note: He and Ne are unpublished basis sets taken from the Gaussian program.
                 Note: Li and B from J. D. Dill and J. A. Pople, J. Chem. Phys. 62, 2921 (1975).
   Na - Ar     : M. M. Francl, W. J. Pietro, W. J. Hehre, J. S. Binkley, M. S. Gordon, 
                 D. J. DeFrees and J. A. Pople, J. Chem. Phys. 77, 3654 (1982).
   K - Zn      : V. A. Rassolov, J. A. Pople, M. A. Ratner, and T. L. Windus, J. Chem. Phys. 109, 1223 (1998).

================================================================================
                                        WARNINGS
                       Please study these warnings very carefully!
================================================================================


================================================================================
                                       INPUT FILE
================================================================================
NAME = h-shift_069.inp
|  1> ! HF 6-31G
|  2> %maxcore 1200
|  3> %pal nprocs 8 end
|  4> * xyz 0 1
|  5> C   -0.39564200   0.01595000   0.03219300
|  6> H    2.06475700   0.00723500   0.03730600
|  7> C    2.43366900   0.01081600   1.05540000
|  8> C    1.86080400  -1.14497900   1.82179700
|  9> C    0.61698200  -1.60325800   1.67780600
| 10> C   -0.32638600  -1.16747900   0.63786400
| 11> H   -1.00402100   0.15450600  -0.83966400
| 12> H    0.15159700   0.87600500   0.35718100
| 13> H    2.12188500   0.95323800   1.49803000
| 14> H    3.51324400  -0.00126200   1.03054900
| 15> H    2.51782700  -1.64485900   2.51202600
| 16> H    0.30356300  -2.43950600   2.27930000
| 17> H   -0.97633400  -1.94828000   0.28308200
| 18> *
| 19> 
| 20>                          ****END OF INPUT****
================================================================================

                       ****************************
                       * Single Point Calculation *
                       ****************************

---------------------------------
CARTESIAN COORDINATES (ANGSTROEM)
---------------------------------
  C     -0.395642    0.015950    0.032193
  H      2.064757    0.007235    0.037306
  C      2.433669    0.010816    1.055400
  C      1.860804   -1.144979    1.821797
  C      0.616982   -1.603258    1.677806
  C     -0.326386   -1.167479    0.637864
  H     -1.004021    0.154506   -0.839664
  H      0.151597    0.876005    0.357181
  H      2.121885    0.953238    1.498030
  H      3.513244   -0.001262    1.030549
  H      2.517827   -1.644859    2.512026
  H      0.303563   -2.439506    2.279300
  H     -0.976334   -1.948280    0.283082

----------------------------
CARTESIAN COORDINATES (A.U.)
----------------------------
  NO LB      ZA    FRAG     MASS         X           Y           Z
   0 C     6.0000    0    12.011   -0.747655    0.030141    0.060836
   1 H     1.0000    0     1.008    3.901825    0.013672    0.070498
   2 C     6.0000    0    12.011    4.598968    0.020439    1.994417
   3 C     6.0000    0    12.011    3.516410   -2.163697    3.442697
   4 C     6.0000    0    12.011    1.165927   -3.029719    3.170594
   5 C     6.0000    0    12.011   -0.616780   -2.206216    1.205388
   6 H     1.0000    0     1.008   -1.897325    0.291974   -1.586735
   7 H     1.0000    0     1.008    0.286477    1.655410    0.674974
   8 H     1.0000    0     1.008    4.009782    1.801359    2.830866
   9 H     1.0000    0     1.008    6.639069   -0.002385    1.947455
  10 H     1.0000    0     1.008    4.758003   -3.108333    4.747041
  11 H     1.0000    0     1.008    0.573651   -4.609998    4.307253
  12 H     1.0000    0     1.008   -1.845004   -3.681716    0.534947

--------------------------------
INTERNAL COORDINATES (ANGSTROEM)
--------------------------------
 C      0   0   0     0.000000000000     0.00000000     0.00000000
 H      1   0   0     2.460419747359     0.00000000     0.00000000
 C      2   1   0     1.082877777102   110.03637216     0.00000000
 C      3   2   1     1.500466844638   110.34060233    55.64597598
 C      4   3   2     1.333358998022   124.45405731   322.95647904
 C      1   2   3     1.331216718577    86.78295783   296.82684442
 H      1   2   3     1.072127511645   124.72185754   170.82026445
 H      1   2   3     1.069945010872    59.38649627    69.13308850
 H      3   2   1     1.086871568144   106.73986164   295.53206336
 H      3   2   1     1.079928530464   108.59604481   179.54524845
 H      4   3   2     1.076092611893   116.89375296   141.26300989
 H      5   4   3     1.076725229156   118.56469898   180.10636118
 H      6   1   2     1.076082186373   117.62065750   224.76255048

---------------------------
INTERNAL COORDINATES (A.U.)
---------------------------
 C      0   0   0     0.000000000000     0.00000000     0.00000000
 H      1   0   0     4.649519497001     0.00000000     0.00000000
 C      2   1   0     2.046342435232   110.03637216     0.00000000
 C      3   2   1     2.835471409395   110.34060233    55.64597598
 C      4   3   2     2.519683344461   124.45405731   322.95647904
 C      1   2   3     2.515635023007    86.78295783   296.82684442
 H      1   2   3     2.026027377651   124.72185754   170.82026445
 H      1   2   3     2.021903048904    59.38649627    69.13308850
 H      3   2   1     2.053889606538   106.73986164   295.53206336
 H      3   2   1     2.040769166785   108.59604481   179.54524845
 H      4   3   2     2.033520331213   116.89375296   141.26300989
 H      5   4   3     2.034715804588   118.56469898   180.10636118
 H      6   1   2     2.033500629836   117.62065750   224.76255048

---------------------
BASIS SET INFORMATION
---------------------
There are 2 groups of distinct atoms

 Group   1 Type C   : 10s4p contracted to 3s2p pattern {631/31}
 Group   2 Type H   : 4s contracted to 2s pattern {31}

Atom   0C    basis set group =>   1
Atom   1H    basis set group =>   2
Atom   2C    basis set group =>   1
Atom   3C    basis set group =>   1
Atom   4C    basis set group =>   1
Atom   5C    basis set group =>   1
Atom   6H    basis set group =>   2
Atom   7H    basis set group =>   2
Atom   8H    basis set group =>   2
Atom   9H    basis set group =>   2
Atom  10H    basis set group =>   2
Atom  11H    basis set group =>   2
Atom  12H    basis set group =>   2


           ************************************************************
           *        Program running with 8 parallel MPI-processes     *
           *              working on a common directory               *
           ************************************************************
------------------------------------------------------------------------------
                             ORCA STARTUP CALCULATIONS
------------------------------------------------------------------------------
------------------------------------------------------------------------------
                   ___                                                        
                  /   \      - P O W E R E D   B Y -                         
                 /     \                                                     
                 |  |  |   _    _      __       _____    __    __             
                 |  |  |  | |  | |    /  \     |  _  \  |  |  /  |          
                  \  \/   | |  | |   /    \    | | | |  |  | /  /          
                 / \  \   | |__| |  /  /\  \   | |_| |  |  |/  /          
                |  |  |   |  __  | /  /__\  \  |    /   |      \           
                |  |  |   | |  | | |   __   |  |    \   |  |\   \          
                \     /   | |  | | |  |  |  |  | |\  \  |  | \   \       
                 \___/    |_|  |_| |__|  |__|  |_| \__\ |__|  \__/        
                                                                              
                      - O R C A' S   B I G   F R I E N D -                    
                                      &                                       
                       - I N T E G R A L  F E E D E R -                       
                                                                              
 v1 FN, 2020, v2 2021, v3 2022-2024                                           
------------------------------------------------------------------------------


----------------------
SHARK INTEGRAL PACKAGE
----------------------

Number of atoms                             ...     13
Number of basis functions                   ...     61
Number of shells                            ...     41
Maximum angular momentum                    ...      1
Integral batch strategy                     ... SHARK/LIBINT Hybrid
RI-J (if used) integral strategy            ... SPLIT-RIJ (Revised 2003 algorithm where possible)
Printlevel                                  ...      1
Contraction scheme used                     ... SEGMENTED contraction
Prescreening option                         ... SCHWARTZ
   Thresh                                   ... 1.000e-10
   Tcut                                     ... 1.000e-11
   Tpresel                                  ... 1.000e-11 
Coulomb Range Separation                    ... NOT USED
Exchange Range Separation                   ... NOT USED
Multipole approximations                    ... NOT USED
Finite Nucleus Model                        ... NOT USED
CABS basis                                  ... NOT available
Auxiliary Coulomb fitting basis             ... NOT available
Auxiliary J/K fitting basis                 ... NOT available
Auxiliary Correlation fitting basis         ... NOT available
Auxiliary 'external' fitting basis          ... NOT available

Checking pre-screening integrals            ... done (  0.0 sec) Dimension = 41
   => SHARK Basis and OBASIS are compatible. Storing Pre-screening
Shell pair information
Shell pair cut-off parameter TPreSel        ...   1.0e-11
Total number of shell pairs                 ...       861
Shell pairs after pre-screening             ...       846
Total number of primitive shell pairs       ...      5382
Primitive shell pairs kept                  ...      3734
          la=0 lb=0:    481 shell pairs
          la=1 lb=0:    310 shell pairs
          la=1 lb=1:     55 shell pairs

Checking whether 4 symmetric matrices of dimension 61 fit in memory
:Max Core in MB      =   1200.00
 MB in use           =      2.04
 MB left             =   1197.96
 MB needed           =      0.06
 Data fit in memory  = YES
Calculating Nuclear repulsion               ... done (  0.0 sec) ENN=    161.257098663397 Eh

Diagonalization of the overlap matrix:
Smallest eigenvalue                        ... 3.390e-03
Time for diagonalization                   ...    0.001 sec
Threshold for overlap eigenvalues          ... 1.000e-07
Number of eigenvalues below threshold      ... 0
Time for construction of square roots      ...    0.000 sec
Total time needed                          ...    0.002 sec

-------------------
DFT GRID GENERATION
-------------------

General Integration Accuracy     IntAcc      ... 4.388
Radial Grid Type                 RadialGrid  ... OptM3 with GC (2021)
Angular Grid (max. ang.)         AngularGrid ... 4 (Lebedev-302)
Angular grid pruning method      GridPruning ... 4 (adaptive)
Weight generation scheme         WeightScheme... mBecke (2022)
Basis function cutoff            BFCut       ... 1.0000e-10
Integration weight cutoff        WCut        ... 1.0000e-14
Partially contracted basis set               ... off
Rotationally invariant grid construction     ... off
Angular grids for H and He will be reduced by one unit

Total number of grid points                  ...    56046
Total number of batches                      ...      884
Average number of points per batch           ...       63
Average number of grid points per atom       ...     4311
Grids setup in   0.2 sec
Initializing property integral containers    ... done (  0.0 sec)

SHARK setup successfully completed in   0.3 seconds

Maximum memory used throughout the entire STARTUP-calculation: 11.8 MB


           ************************************************************
           *        Program running with 8 parallel MPI-processes     *
           *              working on a common directory               *
           ************************************************************
-------------------------------------------------------------------------------
                                 ORCA GUESS
                   Start orbitals & Density for SCF / CASSCF
-------------------------------------------------------------------------------

------------
SCF SETTINGS
------------
Hamiltonian:
 Ab initio Hamiltonian  Method          .... Hartree-Fock(GTOs)


General Settings:
 Integral files         IntName         .... h-shift_069
 Hartree-Fock type      HFTyp           .... RHF
 Total Charge           Charge          ....    0
 Multiplicity           Mult            ....    1
 Number of Electrons    NEL             ....   38
 Basis Dimension        Dim             ....   61
 Nuclear Repulsion      ENuc            ....    161.2570986634 Eh

Convergence Acceleration:
 AO-DIIS                CNVDIIS         .... on
   Start iteration      DIISMaxIt       ....    12
   Startup error        DIISStart       ....  0.200000
   # of expansion vecs  DIISMaxEq       ....     5
   Bias factor          DIISBfac        ....   1.050
   Max. coefficient     DIISMaxC        ....  10.000
 MO-DIIS                CNVKDIIS        .... off
 Trust-Rad. Augm. Hess. CNVTRAH         .... auto
   Auto Start mean grad. ratio tolernc. ....  1.125000
   Auto Start start iteration           ....    50
   Auto Start num. interpolation iter.  ....    10
   Max. Number of Micro iterations      ....    24
   Max. Number of Macro iterations      .... Maxiter - #DIIS iter
   Number of Davidson start vectors     ....     2
   Converg. threshold    (grad. norm)   ....   5.000e-05
   Grad. Scal. Fac. for Micro threshold ....   0.100
   Minimum threshold for Micro iter.    ....   1.000e-02
   NR start threshold (gradient norm)   ....   1.000e-04
   Initial trust radius                 ....   0.400
   Minimum AH scaling param. (alpha)    ....   1.000
   Maximum AH scaling param. (alpha)    .... 1000.000
   Quad. conv. algorithm                .... NR
   White noise on init. David. guess    .... on
   Maximum white noise                  ....   0.010
   Pseudo random numbers                .... off
   Inactive MOs                         .... canonical
   Orbital update algorithm             .... Taylor
   Preconditioner                       .... Diag
   Full preconditioner red. dimension   ....   250
 SOSCF                 CNVSOSCF           .... on
   Start iteration     SOSCFMaxIt         ....   150
   Startup grad/error  SOSCFStart         ....  0.003300
   Hessian update      SOSCFHessUp        .... L-BFGS
   Autom. constraints  SOSCFAutoConstrain .... off
 Level Shifting         CNVShift        .... on
   Level shift para.    LevelShift      ....    0.2500
   Turn off err/grad.   ShiftErr        ....    0.0010
 Zerner damping         CNVZerner       .... off
 Static damping         CNVDamp         .... on
   Fraction old density DampFac         ....    0.7000
   Max. Damping (<1)    DampMax         ....    0.9800
   Min. Damping (>=0)   DampMin         ....    0.0000
   Turn off err/grad.   DampErr         ....    0.1000

SCF Procedure:
 Maximum # iterations   MaxIter         ....   125
 SCF integral mode      SCFMode         .... Direct
   Integral package                     .... SHARK and LIBINT hybrid scheme
 Reset frequency        DirectResetFreq ....    20
 Integral Threshold     Thresh          ....  1.000e-10 Eh
 Primitive CutOff       TCut            ....  1.000e-11 Eh

Convergence Tolerance:
 Convergence Check Mode ConvCheckMode   .... Total+1el-Energy
 Convergence forced     ConvForced      .... 0
 Energy Change          TolE            ....  1.000e-06 Eh
 1-El. energy change                    ....  1.000e-03 Eh
 Orbital Gradient       TolG            ....  5.000e-05
 Orbital Rotation angle TolX            ....  5.000e-05
 DIIS Error             TolErr          ....  1.000e-06

------------------------------
INITIAL GUESS: MODEL POTENTIAL
------------------------------
Loading Hartree-Fock densities                     ... done
Calculating cut-offs                               ... done
Initializing the effective Hamiltonian             ... done
Setting up the integral package (SHARK)            ... done
Starting the Coulomb interaction                   ... done (   0.0 sec)
Making the grid                                    ... done (   0.1 sec)
Mapping shells                                     ... done
Starting the XC term evaluation                    ... done (   0.0 sec)
Transforming the Hamiltonian                       ... done (   0.0 sec)
Diagonalizing the Hamiltonian                      ... done (   0.0 sec)
Back transforming the eigenvectors                 ... done (   0.0 sec)
Now organizing SCF variables                       ... done
                      ------------------
                      INITIAL GUESS DONE (   0.1 sec)
                      ------------------
             **** ENERGY FILE WAS UPDATED (h-shift_069.en.tmp) ****
Finished Guess after   0.3 sec
Maximum memory used throughout the entire GUESS-calculation: 4.2 MB


           ************************************************************
           *        Program running with 8 parallel MPI-processes     *
           *              working on a common directory               *
           ************************************************************

-------------------------------------------------------------------------------------------
                                      ORCA LEAN-SCF
                              memory conserving SCF solver
-------------------------------------------------------------------------------------------

----------------------------------------D-I-I-S--------------------------------------------
Iteration    Energy (Eh)           Delta-E    RMSDP     MaxDP     DIISErr   Damp  Time(sec)
-------------------------------------------------------------------------------------------
               ***  Starting incremental Fock matrix formation  ***
    1    -193.6435702885998751     0.00e+00  1.57e-02  5.27e-02  1.83e-01  0.700   0.0
    2    -193.7244582073182357    -8.09e-02  1.25e-02  3.99e-02  1.20e-01  0.700   0.0
                               ***Turning on AO-DIIS***
    3    -193.7744549733546648    -5.00e-02  7.69e-03  2.01e-02  7.21e-02  0.700   0.0
    4    -193.8060463072130517    -3.16e-02  1.83e-02  4.39e-02  4.89e-02  0.000   0.0
                              *** Initializing SOSCF ***
---------------------------------------S-O-S-C-F--------------------------------------
Iteration    Energy (Eh)           Delta-E    RMSDP     MaxDP     MaxGrad    Time(sec)
--------------------------------------------------------------------------------------
    5    -193.8743891608017691    -6.83e-02  1.70e-03  2.75e-03  2.19e-03     0.0
               *** Restarting incremental Fock matrix formation ***
    6    -193.8745107977345867    -1.22e-04  8.75e-04  1.47e-03  1.36e-03     0.0
    7    -193.8745470182695669    -3.62e-05  5.51e-04  1.13e-03  5.62e-04     0.0
    8    -193.8745541572419313    -7.14e-06  7.31e-05  2.18e-04  1.35e-04     0.0
    9    -193.8745543809164644    -2.24e-07  3.28e-05  9.85e-05  2.75e-05     0.0
                 **** Energy Check signals convergence ****

               *****************************************************
               *                     SUCCESS                       *
               *           SCF CONVERGED AFTER   9 CYCLES          *
               *****************************************************

             **** ENERGY FILE WAS UPDATED (h-shift_069.en.tmp) ****

----------------
TOTAL SCF ENERGY
----------------

Total Energy       :       -193.87455443949634 Eh           -5275.59483 eV

Components:
Nuclear Repulsion  :        161.25709866339687 Eh            4388.02874 eV
Electronic Energy  :       -355.13165310289321 Eh           -9663.62357 eV
One Electron Energy:       -579.47018243912078 Eh          -15768.18530 eV
Two Electron Energy:        224.33852933622757 Eh            6104.56173 eV

Virial components:
Potential Energy   :       -388.05196757398119 Eh          -10559.43087 eV
Kinetic Energy     :        194.17741313448488 Eh            5283.83604 eV
Virial Ratio       :          1.99844029905384

---------------
SCF CONVERGENCE
---------------

  Last Energy change         ...    2.2367e-07  Tolerance :   1.0000e-06
  Last MAX-Density change    ...    9.8464e-05  Tolerance :   1.0000e-05
  Last RMS-Density change    ...    3.2846e-05  Tolerance :   1.0000e-06
  Last DIIS Error            ...    2.1875e-03  Tolerance :   1.0000e-06
  Last Orbital Gradient      ...    2.7513e-05  Tolerance :   5.0000e-05
  Last Orbital Rotation      ...    3.1224e-05  Tolerance :   5.0000e-05


----------------
ORBITAL ENERGIES
----------------

  NO   OCC          E(Eh)            E(eV) 
   0   2.0000     -11.236003      -305.7472 
   1   2.0000     -11.235875      -305.7437 
   2   2.0000     -11.227614      -305.5189 
   3   2.0000     -11.221091      -305.3414 
   4   2.0000     -11.214286      -305.1562 
   5   2.0000      -1.101618       -29.9765 
   6   2.0000      -1.020130       -27.7592 
   7   2.0000      -0.941423       -25.6174 
   8   2.0000      -0.813230       -22.1291 
   9   2.0000      -0.718458       -19.5502 
  10   2.0000      -0.667985       -18.1768 
  11   2.0000      -0.602401       -16.3922 
  12   2.0000      -0.584550       -15.9064 
  13   2.0000      -0.567541       -15.4436 
  14   2.0000      -0.542601       -14.7649 
  15   2.0000      -0.507497       -13.8097 
  16   2.0000      -0.469404       -12.7731 
  17   2.0000      -0.409632       -11.1466 
  18   2.0000      -0.315224        -8.5777 
  19   0.0000       0.133024         3.6198 
  20   0.0000       0.230218         6.2645 
  21   0.0000       0.252135         6.8609 
  22   0.0000       0.267481         7.2785 
  23   0.0000       0.291662         7.9365 
  24   0.0000       0.321753         8.7553 
  25   0.0000       0.335937         9.1413 
  26   0.0000       0.347807         9.4643 
  27   0.0000       0.360978         9.8227 
  28   0.0000       0.368644        10.0313 
  29   0.0000       0.430982        11.7276 
*Only the first 10 virtual orbitals were printed.

                    ********************************
                    * MULLIKEN POPULATION ANALYSIS *
                    ********************************

-----------------------
MULLIKEN ATOMIC CHARGES
-----------------------
   0 C :   -0.364297
   1 H :    0.183431
   2 C :   -0.511963
   3 C :   -0.147082
   4 C :   -0.197388
   5 C :   -0.152585
   6 H :    0.161825
   7 H :    0.172835
   8 H :    0.171288
   9 H :    0.158855
  10 H :    0.176141
  11 H :    0.175922
  12 H :    0.173017
Sum of atomic charges:   -0.0000000

--------------------------------
MULLIKEN REDUCED ORBITAL CHARGES
--------------------------------
  0 C s       :     3.267483  s :     3.267483
      pz      :     1.046725  p :     3.096813
      px      :     1.052729
      py      :     0.997360

  1 H s       :     0.816569  s :     0.816569

  2 C s       :     3.366907  s :     3.366907
      pz      :     1.063028  p :     3.145056
      px      :     1.086731
      py      :     0.995297

  3 C s       :     3.211241  s :     3.211241
      pz      :     0.988768  p :     2.935841
      px      :     0.983991
      py      :     0.963081

  4 C s       :     3.195117  s :     3.195117
      pz      :     1.003676  p :     3.002271
      px      :     0.934899
      py      :     1.063697

  5 C s       :     3.195421  s :     3.195421
      pz      :     0.937803  p :     2.957164
      px      :     1.023278
      py      :     0.996084

  6 H s       :     0.838175  s :     0.838175

  7 H s       :     0.827165  s :     0.827165

  8 H s       :     0.828712  s :     0.828712

  9 H s       :     0.841145  s :     0.841145

 10 H s       :     0.823859  s :     0.823859

 11 H s       :     0.824078  s :     0.824078

 12 H s       :     0.826983  s :     0.826983



                     *******************************
                     * LOEWDIN POPULATION ANALYSIS *
                     *******************************

----------------------
LOEWDIN ATOMIC CHARGES
----------------------
   0 C :   -0.248358
   1 H :    0.126096
   2 C :   -0.320212
   3 C :   -0.105989
   4 C :   -0.150181
   5 C :   -0.113892
   6 H :    0.116104
   7 H :    0.117889
   8 H :    0.117135
   9 H :    0.110338
  10 H :    0.117022
  11 H :    0.117414
  12 H :    0.116635

-------------------------------
LOEWDIN REDUCED ORBITAL CHARGES
-------------------------------
  0 C s       :     2.988568  s :     2.988568
      pz      :     1.081373  p :     3.259790
      px      :     1.071530
      py      :     1.106887

  1 H s       :     0.873904  s :     0.873904

  2 C s       :     2.976333  s :     2.976333
      pz      :     1.127721  p :     3.343879
      px      :     1.124454
      py      :     1.091704

  3 C s       :     2.952289  s :     2.952289
      pz      :     1.026471  p :     3.153699
      px      :     1.093282
      py      :     1.033947

  4 C s       :     2.941143  s :     2.941143
      pz      :     1.053910  p :     3.209039
      px      :     1.084613
      py      :     1.070516

  5 C s       :     2.945021  s :     2.945021
      pz      :     1.026355  p :     3.168870
      px      :     1.033295
      py      :     1.109220

  6 H s       :     0.883896  s :     0.883896

  7 H s       :     0.882111  s :     0.882111

  8 H s       :     0.882865  s :     0.882865

  9 H s       :     0.889662  s :     0.889662

 10 H s       :     0.882978  s :     0.882978

 11 H s       :     0.882586  s :     0.882586

 12 H s       :     0.883365  s :     0.883365



                      *****************************
                      * MAYER POPULATION ANALYSIS *
                      *****************************

  NA   - Mulliken gross atomic population
  ZA   - Total nuclear charge
  QA   - Mulliken gross atomic charge
  VA   - Mayer's total valence
  BVA  - Mayer's bonded valence
  FA   - Mayer's free valence

  ATOM       NA         ZA         QA         VA         BVA        FA
  0 C      6.3643     6.0000    -0.3643     3.8438     3.8438    -0.0000
  1 H      0.8166     1.0000     0.1834     0.9296     0.9296    -0.0000
  2 C      6.5120     6.0000    -0.5120     3.7709     3.7709    -0.0000
  3 C      6.1471     6.0000    -0.1471     3.7638     3.7638    -0.0000
  4 C      6.1974     6.0000    -0.1974     3.8212     3.8212     0.0000
  5 C      6.1526     6.0000    -0.1526     3.8078     3.8078    -0.0000
  6 H      0.8382     1.0000     0.1618     0.9437     0.9437    -0.0000
  7 H      0.8272     1.0000     0.1728     0.9383     0.9383     0.0000
  8 H      0.8287     1.0000     0.1713     0.9219     0.9219    -0.0000
  9 H      0.8411     1.0000     0.1589     0.9331     0.9331     0.0000
 10 H      0.8239     1.0000     0.1761     0.9385     0.9385     0.0000
 11 H      0.8241     1.0000     0.1759     0.9386     0.9386     0.0000
 12 H      0.8270     1.0000     0.1730     0.9371     0.9371     0.0000

  Mayer bond orders larger than 0.100000
B(  0-C ,  5-C ) :   1.8753 B(  0-C ,  6-H ) :   0.9627 B(  0-C ,  7-H ) :   0.9612 
B(  1-H ,  2-C ) :   0.9399 B(  2-C ,  3-C ) :   0.9606 B(  2-C ,  8-H ) :   0.9454 
B(  2-C ,  9-H ) :   0.9600 B(  3-C ,  4-C ) :   1.8766 B(  3-C , 10-H ) :   0.9570 
B(  4-C ,  5-C ) :   1.0491 B(  4-C , 11-H ) :   0.9563 B(  5-C , 12-H ) :   0.9576 


-------
TIMINGS
-------

Total SCF time: 0 days 0 hours 0 min 0 sec 

Total time                  ....       0.665 sec
Sum of individual times     ....       0.619 sec  ( 93.1%)

SCF preparation             ....       0.254 sec  ( 38.2%)
Fock matrix formation       ....       0.307 sec  ( 46.3%)
  Startup                   ....       0.001 sec  (  0.5% of F)
  Coulomb+Exchange Fock     ....       0.328 sec  (106.8% of F)
Diagonalization             ....       0.000 sec  (  0.0%)
Density matrix formation    ....       0.008 sec  (  1.2%)
Total Energy calculation    ....       0.005 sec  (  0.7%)
Population analysis         ....       0.004 sec  (  0.7%)
Orbital Transformation      ....       0.005 sec  (  0.7%)
Orbital Orthonormalization  ....       0.000 sec  (  0.0%)
DIIS solution               ....       0.022 sec  (  3.3%)
SOSCF solution              ....       0.013 sec  (  2.0%)
Finished LeanSCF after   0.7 sec

Maximum memory used throughout the entire LEANSCF-calculation: 6.4 MB

-------------------------   --------------------
FINAL SINGLE POINT ENERGY      -193.874554439496
-------------------------   --------------------



           ************************************************************
           *        Program running with 8 parallel MPI-processes     *
           *              working on a common directory               *
           ************************************************************

------------------------------------------------------------------------------
                              ORCA PROPERTY CALCULATIONS
------------------------------------------------------------------------------

GBWName                                 ... h-shift_069.gbw
Number of atoms                         ...     13
Number of basis functions               ...     61
Max core memory                         ...   1200 MB

Electric properties:
Dipole moment                           ... YES
Quadrupole moment                       ...  NO
Static polarizability (Dipole/Dipole)   ...  NO
Static polarizability (Dipole/Quad.)    ...  NO
Static polarizability (Quad./Quad.)     ...  NO
Static polarizability (Velocity)        ...  NO
Static hyperpolarizability              ...  NO

Atomic electric properties:
Dipole moment                           ...  NO
Quadrupole moment                       ...  NO
Static polarizability                   ...  NO

Choice of electric origin               ... Center of mass
Position of electric origin             ...     1.639005    -1.408867     1.941166

General magnetic properties:
Magnetizability                         ...  NO

EPR properties:
g-Tensor (aka g-matrix)                 ...  NO
Zero-Field splitting spin-orbit         ...  NO
Zero-field splitting spin-spin          ...  NO
Hyperfine couplings                     ...  NO (   0 nuclei)
Quadrupole couplings                    ...  NO (   0 nuclei)
Contact density                         ...  NO (   0 nuclei)

NMR properties:
Chemical shifts                         ...  NO (   0 nuclei)
Spin-rotation constants                 ...  NO (   0 nuclei)
Spin-spin couplings                     ...  NO (   0 nuclei,    0 pairs)

Choice of magnetic origin               ... GIAO
Position of magnetic origin             ...     0.000000     0.000000     0.000000

Properties with geometric perturbations:
SCF Hessian                             ...  NO
IR spectrum                             ...  NO
VCD spectrum                            ...  NO
X-ray spectroscopy properties:
SCF XES/XAS/RIXS spectra                ...  NO

SCF SOC stabilization energy            ...  NO
Diagonal Born-Oppenheimer correction    ...  NO

-------------
DIPOLE MOMENT
-------------

Method             : SCF
Type of density    : Electron Density
Multiplicity       :   1
Irrep              :   0
Energy             :  -193.8745544394963360 Eh
Basis              : AO
                                X                 Y                 Z
Electronic contribution:     -1.506111818      -1.805466270       0.951407257
Nuclear contribution   :      1.645489554       1.802609966      -0.994427691
                        -----------------------------------------
Total Dipole Moment    :      0.139377735      -0.002856304      -0.043020433
                        -----------------------------------------
Magnitude (a.u.)       :      0.145894034
Magnitude (Debye)      :      0.370833165



--------------------
Rotational spectrum 
--------------------
 
Rotational constants in cm-1:             0.283176             0.143140             0.098408 
Rotational constants in MHz :          8489.391744          4291.243142          2950.190768 

Dipole components along the rotational axes: 
x,y,z [a.u.] :    -0.109719     0.051709    -0.081075 
x,y,z [Debye]:    -0.278883     0.131433    -0.206075 

 

Dipole moment calculation done in   0.0 sec 

Maximum memory used throughout the entire PROP-calculation: 2.2 MB

--------------------------------
SUGGESTED CITATIONS FOR THIS RUN
--------------------------------

Below you find a list of papers that are relevant to this ORCA run
We neither can nor want to force you to cite these papers, but we appreciate if you do
You receive ORCA, which is the product of decades of hard work by many enthusiastic individuals, for free
The only thing we kindly ask in return is that you cite our papers,
We deeply appreciate it, if you show your appreciation for ORCA by not just citing the generic ORCA reference.

Please note that relegating all ORCA citations to the supporting information does *not* help us.
SI sections are not indexed - citations you put there will not count into any citation statistics
But we need these citations in order to attract the funding resources that allow us to do what we are doing

Therefore, if you are a happy ORCA user, please consider citing a few of the papers listed below in the main body of your paper

In addition to the list printed below, the program has created the file h-shift_069.bibtex that contains the list in bibtex format
You can import this file easily into all common literature databanks and citation aid programs


List of essential papers. We consider these as the minimum necessary citations

  1. Neese, F.
     Software update: the ORCA program system, version 6.0
     WIRES Comput. Molec. Sci. 2025 15(1), e70019
     doi.org/10.1002/wcms.7019

List of papers to cite with high priority. The work reported in these papers was absolutely
necessary for this run to complete.
Our perspective: the developers of density functionals and basis sets usually get cited in chemistry papers
Good! But without the algorithms to do something with them, the functionals or basis sets would not do anything.
Hence, in our opinion, the algorithm design and method developments papers are equally worthy of getting cited

  1. Neese, F.
     The SHARK Integral Generation and Digestion System
     J. Comp. Chem. 2022 44(3), 381
     doi.org/10.1002/jcc.26942

List of suggested additional citations. These are papers that are important in the 'surrounding' of 
of this run, or papers that preceded the highly important papers. If you like your results we are grateful for a citation.

  1. Neese, F.
     The ORCA program system
     WIRES Comput. Molec. Sci. 2012 2(1), 73-78
     doi.org/10.1002/wcms.81
  2. Neese, F.
     Software update: the ORCA program system, version 4.0
     WIRES Comput. Molec. Sci. 2018 8(1), 1-6
     doi.org/10.1002/wcms.1327
  3. Neese, F.; Wennmohs, F.; Becker, U.; Riplinger, C.
     The ORCA quantum chemistry program package
     J. Chem. Phys. 2020 152(22), 224108
     doi.org/10.1063/5.0004608
  4. Neese, F.
     Software update: The ORCA program system—Version 5.0
     WIRES Comput. Molec. Sci. 2022 12(1), e1606
     doi.org/10.1002/wcms.1606

List of optional additional citations

  1. Neese, F.
     Approximate second-order SCF convergence for spin unrestricted wavefunctions
     Chem. Phys. Lett. 2000 325(1-3), 93-98
     doi.org/10.1016/s0009-2614(00)00662-x

Timings for individual modules:

Sum of individual times          ...        2.289 sec (=   0.038 min)
Startup calculation              ...        0.644 sec (=   0.011 min)  28.1 %
SCF iterations                   ...        1.259 sec (=   0.021 min)  55.0 %
Property calculations            ...        0.386 sec (=   0.006 min)  16.9 %
                             ****ORCA TERMINATED NORMALLY****
TOTAL RUN TIME: 0 days 0 hours 0 minutes 2 seconds 767 msec
