
                                 *****************
                                 * O   R   C   A *
                                 *****************

                                            #,                                       
                                            ###                                      
                                            ####                                     
                                            #####                                    
                                            ######                                   
                                           ########,                                 
                                     ,,################,,,,,                         
                               ,,#################################,,                 
                          ,,##########################################,,             
                       ,#########################################, ''#####,          
                    ,#############################################,,   '####,        
                  ,##################################################,,,,####,       
                ,###########''''           ''''###############################       
              ,#####''   ,,,,##########,,,,          '''####'''          '####       
            ,##' ,,,,###########################,,,                        '##       
           ' ,,###''''                  '''############,,,                           
         ,,##''                                '''############,,,,        ,,,,,,###''
      ,#''                                            '''#######################'''  
     '                                                          ''''####''''         
             ,#######,   #######,   ,#######,      ##                                
            ,#'     '#,  ##    ##  ,#'     '#,    #''#        ,####,    ,#,          
            ##       ##  ##   ,#'  ##            #'  '#       #'       ,# #          
            ##       ##  #######   ##           ,######,      #####,      #          
            '#,     ,#'  ##    ##  '#,     ,#' ,#      #,     #,   #      #          
             '#######'   ##     ##  '#######'  #'      '#     '####' #    #          



                #########################################################
                #                        -***-                          #
                #          Department of theory and spectroscopy        #
                #                                                       #
                #                      Frank Neese                      #
                #                                                       #
                #     Directorship, Architecture, Infrastructure        #
                #                    SHARK, DRIVERS                     #
                #        Core code/Algorithms in most modules           #
                #                                                       #
                #        Max Planck Institute fuer Kohlenforschung      #
                #                Kaiser Wilhelm Platz 1                 #
                #                 D-45470 Muelheim/Ruhr                 #
                #                      Germany                          #
                #                                                       #
                #                  All rights reserved                  #
                #                        -***-                          #
                #########################################################


                         Program Version 6.1.0  -  RELEASE   -
                                (GIT: $679e74b$)
                          ($2025-06-10 18:02:51 +0200$)


 With contributions from (in alphabetic order):
[Max-Planck-Institut fuer Kohlenforschung]                               
  Daniel Aravena         : Magnetic Suceptibility                        
  Michael Atanasov       : Ab Initio Ligand Field Theory (pilot matlab implementation)
  Alexander A. Auer      : GIAO ZORA, VPT2 properties, NMR spectrum      
  Ute Becker             : All parallelization in ORCA, NUMFREQ, NUMCALC 
  Giovanni Bistoni       : ED, misc. LED, open-shell LED, HFLD           
  Dmytro Bykov           : pre 5.0 version of the SCF Hessian            
  Marcos Casanova-Páez   : Triplet and SCS-CIS(D). UHF-(DLPNO)-IP/EA/STEOM-CCSD. UHF-CVS-IP/STEOM-CCSD   
  Vijay G. Chilkuri      : MRCI spin determinant printing, contributions to CSF-ICE 
  Pauline Colinet        : FMM embedding                                 
  Dipayan Datta          : RHF DLPNO-CCSD density                        
  Achintya Kumar Dutta   : EOM-CC, STEOM-CC                              
  Nicolas Foglia         : Exact transition moments, OPA infrastructure, MCD improvements    
  Dmitry Ganyushin       : Spin-Orbit,Spin-Spin,Magnetic field MRCI      
  Miquel Garcia-Rates    : C-PCM and meta-GGA Hessian, CCSD/C-PCM, Gaussian charge scheme 
  Tiago L. C. Gouveia    : GS-ROHF, GS-ROCIS                             
  Yang Guo               : DLPNO-NEVPT2, F12-NEVPT2, CIM, IAO-localization        
  Andreas Hansen         : Spin unrestricted coupled pair/coupled cluster methods 
  Ingolf Harden          : AUTO-CI MPn and infrastructure                
  Benjamin Helmich-Paris : MC-RPA, TRAH-(SCF,CASSCF), AVAS, COSX integrals, SCF dyn. polar., MC-PDFT, srDFT 
  Lee Huntington         : MR-EOM, pCC                                   
  Robert Izsak           : Overlap fitted RIJCOSX, COSX-SCS-MP3, EOM     
  Riya Kayal             : Wick's Theorem for AUTO-CI, AUTO-CI UHF-CCSDT 
  Emily Kempfer          : AUTO-CI RHF CISDT and CCSDT, approximate NEVPT4
  Christian Kollmar      : KDIIS, OOCD, Brueckner-CCSD(T), CCSD density, CASPT2, CASPT2-K, improved NEVPT2 
  Axel Koslowski         : Symmetry handling                             
  Simone Kossmann        : meta-GGA functionals, TD-DFT gradient, OOMP2, (MP2 Hessian; deprecated post 5.0) 
  Lucas Lang             : DCDCAS, Hyperfine gauge corrections, ICE-SOC+SSC
  Marvin Lechner         : AUTO-CI (C++ implementation), FIC-MRCC        
  Spencer Leger          : CASSCF response                               
  Dagmar Lenk            : GEPOL surface, SMD, ORCA-2-JSON               
  Dimitrios Liakos       : Extrapolation schemes; Compound Job, Property file
  Dimitrios Manganas     : Further ROCIS development; embedding schemes. LFT, Crystal Embedding 
  Dimitrios Pantazis     : SARC Basis sets                               
  Anastasios Papadopoulos: AUTO-CI, single reference methods and gradients 
  Taras Petrenko         : pre 6.0 DFT Hessian and TD-DFT gradient,  ECA, NRVS 
  Petra Pikulova         : Analytic Raman intensities                    
  Peter Pinski           : DLPNO-MP2, DLPNO-MP2 Gradient                 
  Shashank Vittal Rao    : ES-AILFT, MagRelax                            
  Christoph Reimann      : Effective Core Potentials                     
  Marius Retegan         : Local ZFS, SOC                                
  Christoph Riplinger    : Optimizer, TS searches, QM/MM, DLPNO-CCSD(T), (RO)-DLPNO pert. Triples 
  Michael Roemelt        : Original ROCIS implementation, recursive CI coupling coefficients
  Masaaki Saitow         : Open-shell DLPNO-CCSD energy and density      
  Barbara Sandhoefer     : DKH picture change effects                    
  Yorick L. A. Schmerwitz: GMF and freeze-and-release deltaSCF, NEB S-IDPP initial path                    
  Kantharuban Sivalingam : CASSCF convergence/infrastructure, NEVPT2, NEVPT3, NEVPT4(SD), FIC-MRCI and CEPA variants
  Bernardo de Souza      : ESD, SOC TD-DFT                               
  Georgi L. Stoychev     : AutoAux, RI-MP2 NMR, DLPNO-MP2 response, X2C  
  Van Anh Tran           : RI-MP2 g-tensors                              
  Willem Van den Heuvel  : Paramagnetic NMR                              
  Zikuan Wang            : NOTCH, Electric field optimization            
  Frank Wennmohs         : Technical directorship and infrastructure     
  Hang Xu                : AUTO-CI-Response properties                   
                                                                         
[FACCTs GmbH]                                                            
  Markus Bursch, Nicolas Foglia, Miquel Garcia-Rates, Ingolf Harden, Hagen Neugebauer, Anastasios Papadopoulos, 
  Christoph Riplinger, Bernardo de Souza, Georgi L. Stoychev                                                    
                                                                 
  APM, various basis sets, CI-OPT, improved COSX, DLPNO-Multilevel,           
  DOCKER, DRACO, updates on ESD, Fragmentator, GOAT, IRC, LR-CPCM, L-BFGS, MBIS, meta-GGA TD-DFT gradient, ML-optimized integration grids, 
  MM, NACMEs, nearIR, NEB, NEB-TS, NL-DFT gradient (VV10), 2- and 3-layer-ONIOM, interface openCOSMO-RS, QMMM,   
  Crystal-QMMM, RESP, rigid body optimization, SF, symmetry and pop. for TD-DFT, various functionals, SOLVATOR                                   
                                                                         
[Other institutions]                                                     
  V. Asgeirsson          : NEB                                           
  Christoph Bannwarth    : sTDA-DFT, sTD-DFT, PBEh-3c, B97-3c, D3        
  Giovanni Bistoni       : ETS/NOCV, ADLD/ADEX, COVALED                  
  Martin Brehm           : Molecular dynamics                            
  Ronald Cardenas        : ETS/NOCV                                      
  Martina Colucci        : COVALED                                       
  Sebastian Ehlert       : rSCAN, r2SCAN, r2SCAN-3c, D4, dhf basis sets  
  Marvin Friede          : D4 for Fr, Ra, Ac-Lr                          
  Lars Goerigk           : TD-DFT with DH, B97 family of functionals     
  Stefan Grimme          : VdW corrections, initial TS optimization, DFT functionals, gCP, sTDA/sTD-DF 
  Waldemar Hujo          : DFT-NL                                        
  H. Jonsson             : NEB                                           
  Holger Kruse           : gCP                                           
  Marcel Mueller         : wB97X-3c, vDZP basis set                      
  Hagen Neugebauer       : wr2SCAN, Native XTB                           
  Gianluca Regni         : ADLD/ADEX                                     
  Tobias Risthaus        : pre 6.0 range-separated hybrid DFT and stability analysis
  Lukas Wittmann         : regularized MP2, r2SCAN double-hybrids, wr2SCAN        
                                                                         
We gratefully acknowledge several colleagues who have allowed us to      
interface, adapt or use parts of their codes:                            
  Ed Valeev, F. Pavosevic, A. Kumar             : LibInt (2-el integral package), F12 methods 
  Garnet Chan, S. Sharma, J. Yang, R. Olivares  : DMRG                   
  Ulf Ekstrom                                   : XCFun DFT Library      
  Mihaly Kallay                                 : mrcc  (arbitrary order and MRCC methods)
  Frank Weinhold                                : gennbo (NPA and NBO analysis)           
  Simon Mueller                                 : openCOSMO-RS                            
  Christopher J. Cramer and Donald G. Truhlar   : smd solvation model                     
  S Lehtola, MJT Oliveira, MAL Marques          : LibXC Library                           
  Liviu Ungur et al                             : ANISO software                          


 Your calculation uses the libint2 library for the computation of 2-el integrals
 For citations please refer to: http://libint.valeyev.net

 Your ORCA version has been built with support for libXC version: 7.0.0
 For citations please refer to: https://libxc.gitlab.io

 This ORCA versions uses:
   CBLAS   interface :  Fast vector & matrix operations
   LAPACKE interface :  Fast linear algebra routines
   SCALAPACK package :  Parallel linear algebra routines
   Shared memory     :  Shared parallel matrices
   BLAS/LAPACK       :  OpenBLAS 0.3.29  USE64BITINT DYNAMIC_ARCH NO_AFFINITY Zen SINGLE_THREADED
        Core in use  :  Zen
   Copyright (c) 2011-2014, The OpenBLAS Project


  ***********************************
  * Starting time: Sun Apr  5 13:01:38 2026
  * Host name:     QC1
  * Process ID:    9197
  * Working dir.:  /home/user/QC/h-shift/split_2
  ***********************************

NOTE: MaxCore=1200 MB was set to SCF,MP2,MDCI,CIPSI,MRCI,RASCI and CIS
      => If you want to overwrite this, your respective input block should be placed after the MaxCore statement
================================================================================

----- Orbital basis set information -----
Your calculation utilizes the basis: 6-31G
   H-He, Li-Ne : W. J. Hehre, R. Ditchfield and J.A. Pople, J. Chem. Phys. 56, 2257 (1972).
                 Note: He and Ne are unpublished basis sets taken from the Gaussian program.
                 Note: Li and B from J. D. Dill and J. A. Pople, J. Chem. Phys. 62, 2921 (1975).
   Na - Ar     : M. M. Francl, W. J. Pietro, W. J. Hehre, J. S. Binkley, M. S. Gordon, 
                 D. J. DeFrees and J. A. Pople, J. Chem. Phys. 77, 3654 (1982).
   K - Zn      : V. A. Rassolov, J. A. Pople, M. A. Ratner, and T. L. Windus, J. Chem. Phys. 109, 1223 (1998).

================================================================================
                                        WARNINGS
                       Please study these warnings very carefully!
================================================================================


================================================================================
                                       INPUT FILE
================================================================================
NAME = h-shift_047.inp
|  1> ! HF 6-31G
|  2> %maxcore 1200
|  3> %pal nprocs 8 end
|  4> * xyz 0 1
|  5> C   -0.00458000   0.00666600  -0.01662400
|  6> H    1.44310600  -0.05015100   0.02647800
|  7> C    2.35261900   0.00764500   1.15260400
|  8> C    1.88605100  -1.12893700   1.84006400
|  9> C    0.57474400  -1.58248600   1.77020200
| 10> C   -0.27026000  -1.13503800   0.76221800
| 11> H   -0.49863700   0.07001500  -0.97270200
| 12> H    0.06412400   0.96735900   0.46349100
| 13> H    1.93594500   0.97387000   1.37780500
| 14> H    3.41423000   0.06222200   0.97239400
| 15> H    2.60897900  -1.81181600   2.25196000
| 16> H    0.31991600  -2.48851300   2.28650300
| 17> H   -1.02737800  -1.82279700   0.42723900
| 18> *
| 19> 
| 20>                          ****END OF INPUT****
================================================================================

                       ****************************
                       * Single Point Calculation *
                       ****************************

---------------------------------
CARTESIAN COORDINATES (ANGSTROEM)
---------------------------------
  C     -0.004580    0.006666   -0.016624
  H      1.443106   -0.050151    0.026478
  C      2.352619    0.007645    1.152604
  C      1.886051   -1.128937    1.840064
  C      0.574744   -1.582486    1.770202
  C     -0.270260   -1.135038    0.762218
  H     -0.498637    0.070015   -0.972702
  H      0.064124    0.967359    0.463491
  H      1.935945    0.973870    1.377805
  H      3.414230    0.062222    0.972394
  H      2.608979   -1.811816    2.251960
  H      0.319916   -2.488513    2.286503
  H     -1.027378   -1.822797    0.427239

----------------------------
CARTESIAN COORDINATES (A.U.)
----------------------------
  NO LB      ZA    FRAG     MASS         X           Y           Z
   0 C     6.0000    0    12.011   -0.008655    0.012597   -0.031415
   1 H     1.0000    0     1.008    2.727075   -0.094772    0.050036
   2 C     6.0000    0    12.011    4.445806    0.014447    2.178106
   3 C     6.0000    0    12.011    3.564120   -2.133382    3.477217
   4 C     6.0000    0    12.011    1.086109   -2.990465    3.345197
   5 C     6.0000    0    12.011   -0.510717   -2.144911    1.440383
   6 H     1.0000    0     1.008   -0.942287    0.132309   -1.838140
   7 H     1.0000    0     1.008    0.121177    1.828044    0.875871
   8 H     1.0000    0     1.008    3.658406    1.840348    2.603674
   9 H     1.0000    0     1.008    6.451960    0.117583    1.837558
  10 H     1.0000    0     1.008    4.930256   -3.423836    4.255588
  11 H     1.0000    0     1.008    0.604554   -4.702608    4.320864
  12 H     1.0000    0     1.008   -1.941463   -3.444587    0.807365

--------------------------------
INTERNAL COORDINATES (ANGSTROEM)
--------------------------------
 C      0   0   0     0.000000000000     0.00000000     0.00000000
 H      1   0   0     1.449441516064     0.00000000     0.00000000
 C      2   1   0     1.448693909237   130.43668036     0.00000000
 C      3   2   1     1.407872719015    98.00773947    60.14593189
 C      4   3   2     1.389285227264   123.49045744   330.89422202
 C      5   4   3     1.389342728406   120.35860160    16.04486660
 H      1   2   3     1.078049422399   119.10481350   172.46699323
 H      1   2   3     1.076179210490    87.59073798    58.68645169
 H      3   2   1     1.076068521657    87.44394021   300.57730033
 H      3   2   1     1.078180044496   119.35772089   186.95258005
 H      4   3   2     1.076386053719   118.45361504   136.10964493
 H      5   4   3     1.073493808512   118.38579833   176.78656155
 H      6   5   4     1.076313633866   116.60514126   149.07996248

---------------------------
INTERNAL COORDINATES (A.U.)
---------------------------
 C      0   0   0     0.000000000000     0.00000000     0.00000000
 H      1   0   0     2.739047512496     0.00000000     0.00000000
 C      2   1   0     2.737634740338   130.43668036     0.00000000
 C      3   2   1     2.660493870358    98.00773947    60.14593189
 C      4   3   2     2.625368601432   123.49045744   330.89422202
 C      5   4   3     2.625477262843   120.35860160    16.04486660
 H      1   2   3     2.037218167165   119.10481350   172.46699323
 H      1   2   3     2.033683978845    87.59073798    58.68645169
 H      3   2   1     2.033474807266    87.44394021   300.57730033
 H      3   2   1     2.037465007157   119.35772089   186.95258005
 H      4   3   2     2.034074855901   118.45361504   136.10964493
 H      5   4   3     2.028609304548   118.38579833   176.78656155
 H      6   5   4     2.033938002212   116.60514126   149.07996248

---------------------
BASIS SET INFORMATION
---------------------
There are 2 groups of distinct atoms

 Group   1 Type C   : 10s4p contracted to 3s2p pattern {631/31}
 Group   2 Type H   : 4s contracted to 2s pattern {31}

Atom   0C    basis set group =>   1
Atom   1H    basis set group =>   2
Atom   2C    basis set group =>   1
Atom   3C    basis set group =>   1
Atom   4C    basis set group =>   1
Atom   5C    basis set group =>   1
Atom   6H    basis set group =>   2
Atom   7H    basis set group =>   2
Atom   8H    basis set group =>   2
Atom   9H    basis set group =>   2
Atom  10H    basis set group =>   2
Atom  11H    basis set group =>   2
Atom  12H    basis set group =>   2


           ************************************************************
           *        Program running with 8 parallel MPI-processes     *
           *              working on a common directory               *
           ************************************************************
------------------------------------------------------------------------------
                             ORCA STARTUP CALCULATIONS
------------------------------------------------------------------------------
------------------------------------------------------------------------------
                   ___                                                        
                  /   \      - P O W E R E D   B Y -                         
                 /     \                                                     
                 |  |  |   _    _      __       _____    __    __             
                 |  |  |  | |  | |    /  \     |  _  \  |  |  /  |          
                  \  \/   | |  | |   /    \    | | | |  |  | /  /          
                 / \  \   | |__| |  /  /\  \   | |_| |  |  |/  /          
                |  |  |   |  __  | /  /__\  \  |    /   |      \           
                |  |  |   | |  | | |   __   |  |    \   |  |\   \          
                \     /   | |  | | |  |  |  |  | |\  \  |  | \   \       
                 \___/    |_|  |_| |__|  |__|  |_| \__\ |__|  \__/        
                                                                              
                      - O R C A' S   B I G   F R I E N D -                    
                                      &                                       
                       - I N T E G R A L  F E E D E R -                       
                                                                              
 v1 FN, 2020, v2 2021, v3 2022-2024                                           
------------------------------------------------------------------------------


----------------------
SHARK INTEGRAL PACKAGE
----------------------

Number of atoms                             ...     13
Number of basis functions                   ...     61
Number of shells                            ...     41
Maximum angular momentum                    ...      1
Integral batch strategy                     ... SHARK/LIBINT Hybrid
RI-J (if used) integral strategy            ... SPLIT-RIJ (Revised 2003 algorithm where possible)
Printlevel                                  ...      1
Contraction scheme used                     ... SEGMENTED contraction
Prescreening option                         ... SCHWARTZ
   Thresh                                   ... 1.000e-10
   Tcut                                     ... 1.000e-11
   Tpresel                                  ... 1.000e-11 
Coulomb Range Separation                    ... NOT USED
Exchange Range Separation                   ... NOT USED
Multipole approximations                    ... NOT USED
Finite Nucleus Model                        ... NOT USED
CABS basis                                  ... NOT available
Auxiliary Coulomb fitting basis             ... NOT available
Auxiliary J/K fitting basis                 ... NOT available
Auxiliary Correlation fitting basis         ... NOT available
Auxiliary 'external' fitting basis          ... NOT available

Checking pre-screening integrals            ... done (  0.0 sec) Dimension = 41
   => SHARK Basis and OBASIS are compatible. Storing Pre-screening
Shell pair information
Shell pair cut-off parameter TPreSel        ...   1.0e-11
Total number of shell pairs                 ...       861
Shell pairs after pre-screening             ...       847
Total number of primitive shell pairs       ...      5382
Primitive shell pairs kept                  ...      3786
          la=0 lb=0:    482 shell pairs
          la=1 lb=0:    310 shell pairs
          la=1 lb=1:     55 shell pairs

Checking whether 4 symmetric matrices of dimension 61 fit in memory
:Max Core in MB      =   1200.00
 MB in use           =      2.05
 MB left             =   1197.95
 MB needed           =      0.06
 Data fit in memory  = YES
Calculating Nuclear repulsion               ... done (  0.0 sec) ENN=    165.084005710766 Eh

Diagonalization of the overlap matrix:
Smallest eigenvalue                        ... 3.411e-03
Time for diagonalization                   ...    0.000 sec
Threshold for overlap eigenvalues          ... 1.000e-07
Number of eigenvalues below threshold      ... 0
Time for construction of square roots      ...    0.000 sec
Total time needed                          ...    0.001 sec

-------------------
DFT GRID GENERATION
-------------------

General Integration Accuracy     IntAcc      ... 4.388
Radial Grid Type                 RadialGrid  ... OptM3 with GC (2021)
Angular Grid (max. ang.)         AngularGrid ... 4 (Lebedev-302)
Angular grid pruning method      GridPruning ... 4 (adaptive)
Weight generation scheme         WeightScheme... mBecke (2022)
Basis function cutoff            BFCut       ... 1.0000e-10
Integration weight cutoff        WCut        ... 1.0000e-14
Partially contracted basis set               ... off
Rotationally invariant grid construction     ... off
Angular grids for H and He will be reduced by one unit

Total number of grid points                  ...    55951
Total number of batches                      ...      882
Average number of points per batch           ...       63
Average number of grid points per atom       ...     4304
Grids setup in   0.2 sec
Initializing property integral containers    ... done (  0.0 sec)

SHARK setup successfully completed in   0.3 seconds

Maximum memory used throughout the entire STARTUP-calculation: 11.8 MB


           ************************************************************
           *        Program running with 8 parallel MPI-processes     *
           *              working on a common directory               *
           ************************************************************
-------------------------------------------------------------------------------
                                 ORCA GUESS
                   Start orbitals & Density for SCF / CASSCF
-------------------------------------------------------------------------------

------------
SCF SETTINGS
------------
Hamiltonian:
 Ab initio Hamiltonian  Method          .... Hartree-Fock(GTOs)


General Settings:
 Integral files         IntName         .... h-shift_047
 Hartree-Fock type      HFTyp           .... RHF
 Total Charge           Charge          ....    0
 Multiplicity           Mult            ....    1
 Number of Electrons    NEL             ....   38
 Basis Dimension        Dim             ....   61
 Nuclear Repulsion      ENuc            ....    165.0840057108 Eh

Convergence Acceleration:
 AO-DIIS                CNVDIIS         .... on
   Start iteration      DIISMaxIt       ....    12
   Startup error        DIISStart       ....  0.200000
   # of expansion vecs  DIISMaxEq       ....     5
   Bias factor          DIISBfac        ....   1.050
   Max. coefficient     DIISMaxC        ....  10.000
 MO-DIIS                CNVKDIIS        .... off
 Trust-Rad. Augm. Hess. CNVTRAH         .... auto
   Auto Start mean grad. ratio tolernc. ....  1.125000
   Auto Start start iteration           ....    50
   Auto Start num. interpolation iter.  ....    10
   Max. Number of Micro iterations      ....    24
   Max. Number of Macro iterations      .... Maxiter - #DIIS iter
   Number of Davidson start vectors     ....     2
   Converg. threshold    (grad. norm)   ....   5.000e-05
   Grad. Scal. Fac. for Micro threshold ....   0.100
   Minimum threshold for Micro iter.    ....   1.000e-02
   NR start threshold (gradient norm)   ....   1.000e-04
   Initial trust radius                 ....   0.400
   Minimum AH scaling param. (alpha)    ....   1.000
   Maximum AH scaling param. (alpha)    .... 1000.000
   Quad. conv. algorithm                .... NR
   White noise on init. David. guess    .... on
   Maximum white noise                  ....   0.010
   Pseudo random numbers                .... off
   Inactive MOs                         .... canonical
   Orbital update algorithm             .... Taylor
   Preconditioner                       .... Diag
   Full preconditioner red. dimension   ....   250
 SOSCF                 CNVSOSCF           .... on
   Start iteration     SOSCFMaxIt         ....   150
   Startup grad/error  SOSCFStart         ....  0.003300
   Hessian update      SOSCFHessUp        .... L-BFGS
   Autom. constraints  SOSCFAutoConstrain .... off
 Level Shifting         CNVShift        .... on
   Level shift para.    LevelShift      ....    0.2500
   Turn off err/grad.   ShiftErr        ....    0.0010
 Zerner damping         CNVZerner       .... off
 Static damping         CNVDamp         .... on
   Fraction old density DampFac         ....    0.7000
   Max. Damping (<1)    DampMax         ....    0.9800
   Min. Damping (>=0)   DampMin         ....    0.0000
   Turn off err/grad.   DampErr         ....    0.1000

SCF Procedure:
 Maximum # iterations   MaxIter         ....   125
 SCF integral mode      SCFMode         .... Direct
   Integral package                     .... SHARK and LIBINT hybrid scheme
 Reset frequency        DirectResetFreq ....    20
 Integral Threshold     Thresh          ....  1.000e-10 Eh
 Primitive CutOff       TCut            ....  1.000e-11 Eh

Convergence Tolerance:
 Convergence Check Mode ConvCheckMode   .... Total+1el-Energy
 Convergence forced     ConvForced      .... 0
 Energy Change          TolE            ....  1.000e-06 Eh
 1-El. energy change                    ....  1.000e-03 Eh
 Orbital Gradient       TolG            ....  5.000e-05
 Orbital Rotation angle TolX            ....  5.000e-05
 DIIS Error             TolErr          ....  1.000e-06

------------------------------
INITIAL GUESS: MODEL POTENTIAL
------------------------------
Loading Hartree-Fock densities                     ... done
Calculating cut-offs                               ... done
Initializing the effective Hamiltonian             ... done
Setting up the integral package (SHARK)            ... done
Starting the Coulomb interaction                   ... done (   0.0 sec)
Making the grid                                    ... done (   0.1 sec)
Mapping shells                                     ... done
Starting the XC term evaluation                    ... done (   0.0 sec)
Transforming the Hamiltonian                       ... done (   0.0 sec)
Diagonalizing the Hamiltonian                      ... done (   0.0 sec)
Back transforming the eigenvectors                 ... done (   0.0 sec)
Now organizing SCF variables                       ... done
                      ------------------
                      INITIAL GUESS DONE (   0.1 sec)
                      ------------------
             **** ENERGY FILE WAS UPDATED (h-shift_047.en.tmp) ****
Finished Guess after   0.3 sec
Maximum memory used throughout the entire GUESS-calculation: 4.2 MB


           ************************************************************
           *        Program running with 8 parallel MPI-processes     *
           *              working on a common directory               *
           ************************************************************

-------------------------------------------------------------------------------------------
                                      ORCA LEAN-SCF
                              memory conserving SCF solver
-------------------------------------------------------------------------------------------

----------------------------------------D-I-I-S--------------------------------------------
Iteration    Energy (Eh)           Delta-E    RMSDP     MaxDP     DIISErr   Damp  Time(sec)
-------------------------------------------------------------------------------------------
               ***  Starting incremental Fock matrix formation  ***
    1    -193.5757833996606792     0.00e+00  1.59e-02  4.79e-02  1.61e-01  0.700   0.1
    2    -193.6530630713178880    -7.73e-02  1.26e-02  3.65e-02  1.08e-01  0.700   0.1
                               ***Turning on AO-DIIS***
    3    -193.7006382815042684    -4.76e-02  7.61e-03  1.99e-02  6.70e-02  0.700   0.1
    4    -193.7306116551645800    -3.00e-02  1.81e-02  4.41e-02  4.59e-02  0.000   0.0
                              *** Initializing SOSCF ***
---------------------------------------S-O-S-C-F--------------------------------------
Iteration    Energy (Eh)           Delta-E    RMSDP     MaxDP     MaxGrad    Time(sec)
--------------------------------------------------------------------------------------
    5    -193.7953331172033131    -6.47e-02  1.63e-03  3.62e-03  1.77e-03     0.0
               *** Restarting incremental Fock matrix formation ***
    6    -193.7954206243536532    -8.75e-05  8.45e-04  2.84e-03  6.92e-04     0.0
    7    -193.7954408623983795    -2.02e-05  4.64e-04  1.79e-03  2.89e-04     0.0
    8    -193.7954446216946280    -3.76e-06  6.37e-05  1.74e-04  1.02e-04     0.0
    9    -193.7954448206021425    -1.99e-07  6.64e-05  1.40e-04  3.49e-05     0.0
                 **** Energy Check signals convergence ****

               *****************************************************
               *                     SUCCESS                       *
               *           SCF CONVERGED AFTER   9 CYCLES          *
               *****************************************************

             **** ENERGY FILE WAS UPDATED (h-shift_047.en.tmp) ****

----------------
TOTAL SCF ENERGY
----------------

Total Energy       :       -193.79544490290976 Eh           -5273.44215 eV

Components:
Nuclear Repulsion  :        165.08400571076618 Eh            4492.16417 eV
Electronic Energy  :       -358.87945061367594 Eh           -9765.60633 eV
One Electron Energy:       -586.95586620826657 Eh          -15971.88111 eV
Two Electron Energy:        228.07641559459063 Eh            6206.27479 eV

Virial components:
Potential Energy   :       -387.85300563489676 Eh          -10554.01684 eV
Kinetic Energy     :        194.05756073198700 Eh            5280.57469 eV
Virial Ratio       :          1.99864928824165

---------------
SCF CONVERGENCE
---------------

  Last Energy change         ...    1.9891e-07  Tolerance :   1.0000e-06
  Last MAX-Density change    ...    1.4018e-04  Tolerance :   1.0000e-05
  Last RMS-Density change    ...    6.6384e-05  Tolerance :   1.0000e-06
  Last DIIS Error            ...    1.7661e-03  Tolerance :   1.0000e-06
  Last Orbital Gradient      ...    3.4895e-05  Tolerance :   5.0000e-05
  Last Orbital Rotation      ...    2.3633e-04  Tolerance :   5.0000e-05


----------------
ORBITAL ENERGIES
----------------

  NO   OCC          E(Eh)            E(eV) 
   0   2.0000     -11.243798      -305.9593 
   1   2.0000     -11.243681      -305.9561 
   2   2.0000     -11.227887      -305.5263 
   3   2.0000     -11.225590      -305.4638 
   4   2.0000     -11.225551      -305.4628 
   5   2.0000      -1.121188       -30.5091 
   6   2.0000      -1.012681       -27.5564 
   7   2.0000      -0.944380       -25.6979 
   8   2.0000      -0.811096       -22.0711 
   9   2.0000      -0.728281       -19.8175 
  10   2.0000      -0.680434       -18.5156 
  11   2.0000      -0.594527       -16.1779 
  12   2.0000      -0.581088       -15.8122 
  13   2.0000      -0.568426       -15.4677 
  14   2.0000      -0.528272       -14.3750 
  15   2.0000      -0.515973       -14.0403 
  16   2.0000      -0.495670       -13.4879 
  17   2.0000      -0.348962        -9.4957 
  18   2.0000      -0.304031        -8.2731 
  19   0.0000       0.116969         3.1829 
  20   0.0000       0.180943         4.9237 
  21   0.0000       0.240442         6.5428 
  22   0.0000       0.273706         7.4479 
  23   0.0000       0.290978         7.9179 
  24   0.0000       0.325822         8.8661 
  25   0.0000       0.339191         9.2299 
  26   0.0000       0.346089         9.4176 
  27   0.0000       0.382073        10.3967 
  28   0.0000       0.397296        10.8110 
  29   0.0000       0.448169        12.1953 
*Only the first 10 virtual orbitals were printed.

                    ********************************
                    * MULLIKEN POPULATION ANALYSIS *
                    ********************************

-----------------------
MULLIKEN ATOMIC CHARGES
-----------------------
   0 C :   -0.506291
   1 H :    0.176345
   2 C :   -0.505311
   3 C :   -0.111799
   4 C :   -0.218370
   5 C :   -0.110786
   6 H :    0.162685
   7 H :    0.200628
   8 H :    0.200624
   9 H :    0.162326
  10 H :    0.185675
  11 H :    0.178301
  12 H :    0.185973
Sum of atomic charges:   -0.0000000

--------------------------------
MULLIKEN REDUCED ORBITAL CHARGES
--------------------------------
  0 C s       :     3.374547  s :     3.374547
      pz      :     1.064597  p :     3.131744
      px      :     1.072446
      py      :     0.994701

  1 H s       :     0.823655  s :     0.823655

  2 C s       :     3.373700  s :     3.373700
      pz      :     1.019249  p :     3.131611
      px      :     1.116481
      py      :     0.995881

  3 C s       :     3.199363  s :     3.199363
      pz      :     0.923909  p :     2.912436
      px      :     0.989534
      py      :     0.998994

  4 C s       :     3.199801  s :     3.199801
      pz      :     1.015604  p :     3.018569
      px      :     0.930453
      py      :     1.072511

  5 C s       :     3.199103  s :     3.199103
      pz      :     0.911697  p :     2.911682
      px      :     1.000890
      py      :     0.999095

  6 H s       :     0.837315  s :     0.837315

  7 H s       :     0.799372  s :     0.799372

  8 H s       :     0.799376  s :     0.799376

  9 H s       :     0.837674  s :     0.837674

 10 H s       :     0.814325  s :     0.814325

 11 H s       :     0.821699  s :     0.821699

 12 H s       :     0.814027  s :     0.814027



                     *******************************
                     * LOEWDIN POPULATION ANALYSIS *
                     *******************************

----------------------
LOEWDIN ATOMIC CHARGES
----------------------
   0 C :   -0.330928
   1 H :    0.181683
   2 C :   -0.331438
   3 C :   -0.097512
   4 C :   -0.166544
   5 C :   -0.097481
   6 H :    0.114529
   7 H :    0.125260
   8 H :    0.125309
   9 H :    0.114302
  10 H :    0.121965
  11 H :    0.118854
  12 H :    0.122000

-------------------------------
LOEWDIN REDUCED ORBITAL CHARGES
-------------------------------
  0 C s       :     3.008314  s :     3.008314
      pz      :     1.119094  p :     3.322613
      px      :     1.103787
      py      :     1.099733

  1 H s       :     0.818317  s :     0.818317

  2 C s       :     3.008194  s :     3.008194
      pz      :     1.099788  p :     3.323244
      px      :     1.123309
      py      :     1.100147

  3 C s       :     2.949021  s :     2.949021
      pz      :     0.973646  p :     3.148491
      px      :     1.091105
      py      :     1.083741

  4 C s       :     2.939188  s :     2.939188
      pz      :     1.077329  p :     3.227356
      px      :     1.073040
      py      :     1.076987

  5 C s       :     2.949020  s :     2.949020
      pz      :     1.024322  p :     3.148461
      px      :     1.039640
      py      :     1.084499

  6 H s       :     0.885471  s :     0.885471

  7 H s       :     0.874740  s :     0.874740

  8 H s       :     0.874691  s :     0.874691

  9 H s       :     0.885698  s :     0.885698

 10 H s       :     0.878035  s :     0.878035

 11 H s       :     0.881146  s :     0.881146

 12 H s       :     0.878000  s :     0.878000



                      *****************************
                      * MAYER POPULATION ANALYSIS *
                      *****************************

  NA   - Mulliken gross atomic population
  ZA   - Total nuclear charge
  QA   - Mulliken gross atomic charge
  VA   - Mayer's total valence
  BVA  - Mayer's bonded valence
  FA   - Mayer's free valence

  ATOM       NA         ZA         QA         VA         BVA        FA
  0 C      6.5063     6.0000    -0.5063     3.7288     3.7288    -0.0000
  1 H      0.8237     1.0000     0.1763     0.9150     0.9150    -0.0000
  2 C      6.5053     6.0000    -0.5053     3.7293     3.7293    -0.0000
  3 C      6.1118     6.0000    -0.1118     3.7341     3.7341     0.0000
  4 C      6.2184     6.0000    -0.2184     3.8236     3.8236    -0.0000
  5 C      6.1108     6.0000    -0.1108     3.7332     3.7332    -0.0000
  6 H      0.8373     1.0000     0.1627     0.9440     0.9440     0.0000
  7 H      0.7994     1.0000     0.2006     0.9114     0.9114    -0.0000
  8 H      0.7994     1.0000     0.2006     0.9114     0.9114    -0.0000
  9 H      0.8377     1.0000     0.1623     0.9439     0.9439    -0.0000
 10 H      0.8143     1.0000     0.1857     0.9356     0.9356    -0.0000
 11 H      0.8217     1.0000     0.1783     0.9388     0.9388    -0.0000
 12 H      0.8140     1.0000     0.1860     0.9355     0.9355    -0.0000

  Mayer bond orders larger than 0.100000
B(  0-C ,  1-H ) :   0.4701 B(  0-C ,  3-C ) :   0.1185 B(  0-C ,  5-C ) :   1.2993 
B(  0-C ,  6-H ) :   0.9590 B(  0-C ,  7-H ) :   0.9320 B(  1-H ,  2-C ) :   0.4732 
B(  2-C ,  3-C ) :   1.2968 B(  2-C ,  5-C ) :   0.1189 B(  2-C ,  8-H ) :   0.9318 
B(  2-C ,  9-H ) :   0.9591 B(  3-C ,  4-C ) :   1.4413 B(  3-C , 10-H ) :   0.9548 
B(  4-C ,  5-C ) :   1.4379 B(  4-C , 11-H ) :   0.9586 B(  5-C , 12-H ) :   0.9545 


-------
TIMINGS
-------

Total SCF time: 0 days 0 hours 0 min 0 sec 

Total time                  ....       0.679 sec
Sum of individual times     ....       0.634 sec  ( 93.3%)

SCF preparation             ....       0.254 sec  ( 37.4%)
Fock matrix formation       ....       0.325 sec  ( 47.9%)
  Startup                   ....       0.001 sec  (  0.5% of F)
  Coulomb+Exchange Fock     ....       0.346 sec  (106.4% of F)
Diagonalization             ....       0.000 sec  (  0.0%)
Density matrix formation    ....       0.008 sec  (  1.1%)
Total Energy calculation    ....       0.005 sec  (  0.7%)
Population analysis         ....       0.004 sec  (  0.6%)
Orbital Transformation      ....       0.005 sec  (  0.7%)
Orbital Orthonormalization  ....       0.000 sec  (  0.0%)
DIIS solution               ....       0.020 sec  (  3.0%)
SOSCF solution              ....       0.013 sec  (  1.9%)
Finished LeanSCF after   0.7 sec

Maximum memory used throughout the entire LEANSCF-calculation: 6.5 MB

-------------------------   --------------------
FINAL SINGLE POINT ENERGY      -193.795444902910
-------------------------   --------------------



           ************************************************************
           *        Program running with 8 parallel MPI-processes     *
           *              working on a common directory               *
           ************************************************************

------------------------------------------------------------------------------
                              ORCA PROPERTY CALCULATIONS
------------------------------------------------------------------------------

GBWName                                 ... h-shift_047.gbw
Number of atoms                         ...     13
Number of basis functions               ...     61
Max core memory                         ...   1200 MB

Electric properties:
Dipole moment                           ... YES
Quadrupole moment                       ...  NO
Static polarizability (Dipole/Dipole)   ...  NO
Static polarizability (Dipole/Quad.)    ...  NO
Static polarizability (Quad./Quad.)     ...  NO
Static polarizability (Velocity)        ...  NO
Static hyperpolarizability              ...  NO

Atomic electric properties:
Dipole moment                           ...  NO
Quadrupole moment                       ...  NO
Static polarizability                   ...  NO

Choice of electric origin               ... Center of mass
Position of electric origin             ...     1.743256    -1.391531     2.026520

General magnetic properties:
Magnetizability                         ...  NO

EPR properties:
g-Tensor (aka g-matrix)                 ...  NO
Zero-Field splitting spin-orbit         ...  NO
Zero-field splitting spin-spin          ...  NO
Hyperfine couplings                     ...  NO (   0 nuclei)
Quadrupole couplings                    ...  NO (   0 nuclei)
Contact density                         ...  NO (   0 nuclei)

NMR properties:
Chemical shifts                         ...  NO (   0 nuclei)
Spin-rotation constants                 ...  NO (   0 nuclei)
Spin-spin couplings                     ...  NO (   0 nuclei,    0 pairs)

Choice of magnetic origin               ... GIAO
Position of magnetic origin             ...     0.000000     0.000000     0.000000

Properties with geometric perturbations:
SCF Hessian                             ...  NO
IR spectrum                             ...  NO
VCD spectrum                            ...  NO
X-ray spectroscopy properties:
SCF XES/XAS/RIXS spectra                ...  NO

SCF SOC stabilization energy            ...  NO
Diagonal Born-Oppenheimer correction    ...  NO

-------------
DIPOLE MOMENT
-------------

Method             : SCF
Type of density    : Electron Density
Multiplicity       :   1
Irrep              :   0
Energy             :  -193.7954449029097646 Eh
Basis              : AO
                                X                 Y                 Z
Electronic contribution:     -0.822373082      -1.743750722       1.629975951
Nuclear contribution   :      0.825928504       1.680388971      -1.637995569
                        -----------------------------------------
Total Dipole Moment    :      0.003555422      -0.063361751      -0.008019618
                        -----------------------------------------
Magnitude (a.u.)       :      0.063966138
Magnitude (Debye)      :      0.162589001



--------------------
Rotational spectrum 
--------------------
 
Rotational constants in cm-1:             0.273648             0.169448             0.108491 
Rotational constants in MHz :          8203.770267          5079.912410          3252.477809 

Dipole components along the rotational axes: 
x,y,z [a.u.] :    -0.000563    -0.045521    -0.044935 
x,y,z [Debye]:    -0.001432    -0.115705    -0.114217 

 

Dipole moment calculation done in   0.0 sec 

Maximum memory used throughout the entire PROP-calculation: 2.2 MB

--------------------------------
SUGGESTED CITATIONS FOR THIS RUN
--------------------------------

Below you find a list of papers that are relevant to this ORCA run
We neither can nor want to force you to cite these papers, but we appreciate if you do
You receive ORCA, which is the product of decades of hard work by many enthusiastic individuals, for free
The only thing we kindly ask in return is that you cite our papers,
We deeply appreciate it, if you show your appreciation for ORCA by not just citing the generic ORCA reference.

Please note that relegating all ORCA citations to the supporting information does *not* help us.
SI sections are not indexed - citations you put there will not count into any citation statistics
But we need these citations in order to attract the funding resources that allow us to do what we are doing

Therefore, if you are a happy ORCA user, please consider citing a few of the papers listed below in the main body of your paper

In addition to the list printed below, the program has created the file h-shift_047.bibtex that contains the list in bibtex format
You can import this file easily into all common literature databanks and citation aid programs


List of essential papers. We consider these as the minimum necessary citations

  1. Neese, F.
     Software update: the ORCA program system, version 6.0
     WIRES Comput. Molec. Sci. 2025 15(1), e70019
     doi.org/10.1002/wcms.7019

List of papers to cite with high priority. The work reported in these papers was absolutely
necessary for this run to complete.
Our perspective: the developers of density functionals and basis sets usually get cited in chemistry papers
Good! But without the algorithms to do something with them, the functionals or basis sets would not do anything.
Hence, in our opinion, the algorithm design and method developments papers are equally worthy of getting cited

  1. Neese, F.
     The SHARK Integral Generation and Digestion System
     J. Comp. Chem. 2022 44(3), 381
     doi.org/10.1002/jcc.26942

List of suggested additional citations. These are papers that are important in the 'surrounding' of 
of this run, or papers that preceded the highly important papers. If you like your results we are grateful for a citation.

  1. Neese, F.
     The ORCA program system
     WIRES Comput. Molec. Sci. 2012 2(1), 73-78
     doi.org/10.1002/wcms.81
  2. Neese, F.
     Software update: the ORCA program system, version 4.0
     WIRES Comput. Molec. Sci. 2018 8(1), 1-6
     doi.org/10.1002/wcms.1327
  3. Neese, F.; Wennmohs, F.; Becker, U.; Riplinger, C.
     The ORCA quantum chemistry program package
     J. Chem. Phys. 2020 152(22), 224108
     doi.org/10.1063/5.0004608
  4. Neese, F.
     Software update: The ORCA program system—Version 5.0
     WIRES Comput. Molec. Sci. 2022 12(1), e1606
     doi.org/10.1002/wcms.1606

List of optional additional citations

  1. Neese, F.
     Approximate second-order SCF convergence for spin unrestricted wavefunctions
     Chem. Phys. Lett. 2000 325(1-3), 93-98
     doi.org/10.1016/s0009-2614(00)00662-x

Timings for individual modules:

Sum of individual times          ...        2.320 sec (=   0.039 min)
Startup calculation              ...        0.701 sec (=   0.012 min)  30.2 %
SCF iterations                   ...        1.244 sec (=   0.021 min)  53.6 %
Property calculations            ...        0.375 sec (=   0.006 min)  16.2 %
                             ****ORCA TERMINATED NORMALLY****
TOTAL RUN TIME: 0 days 0 hours 0 minutes 2 seconds 775 msec
