
                                 *****************
                                 * O   R   C   A *
                                 *****************

                                            #,                                       
                                            ###                                      
                                            ####                                     
                                            #####                                    
                                            ######                                   
                                           ########,                                 
                                     ,,################,,,,,                         
                               ,,#################################,,                 
                          ,,##########################################,,             
                       ,#########################################, ''#####,          
                    ,#############################################,,   '####,        
                  ,##################################################,,,,####,       
                ,###########''''           ''''###############################       
              ,#####''   ,,,,##########,,,,          '''####'''          '####       
            ,##' ,,,,###########################,,,                        '##       
           ' ,,###''''                  '''############,,,                           
         ,,##''                                '''############,,,,        ,,,,,,###''
      ,#''                                            '''#######################'''  
     '                                                          ''''####''''         
             ,#######,   #######,   ,#######,      ##                                
            ,#'     '#,  ##    ##  ,#'     '#,    #''#        ,####,    ,#,          
            ##       ##  ##   ,#'  ##            #'  '#       #'       ,# #          
            ##       ##  #######   ##           ,######,      #####,      #          
            '#,     ,#'  ##    ##  '#,     ,#' ,#      #,     #,   #      #          
             '#######'   ##     ##  '#######'  #'      '#     '####' #    #          



                #########################################################
                #                        -***-                          #
                #          Department of theory and spectroscopy        #
                #                                                       #
                #                      Frank Neese                      #
                #                                                       #
                #     Directorship, Architecture, Infrastructure        #
                #                    SHARK, DRIVERS                     #
                #        Core code/Algorithms in most modules           #
                #                                                       #
                #        Max Planck Institute fuer Kohlenforschung      #
                #                Kaiser Wilhelm Platz 1                 #
                #                 D-45470 Muelheim/Ruhr                 #
                #                      Germany                          #
                #                                                       #
                #                  All rights reserved                  #
                #                        -***-                          #
                #########################################################


                         Program Version 6.1.0  -  RELEASE   -
                                (GIT: $679e74b$)
                          ($2025-06-10 18:02:51 +0200$)


 With contributions from (in alphabetic order):
[Max-Planck-Institut fuer Kohlenforschung]                               
  Daniel Aravena         : Magnetic Suceptibility                        
  Michael Atanasov       : Ab Initio Ligand Field Theory (pilot matlab implementation)
  Alexander A. Auer      : GIAO ZORA, VPT2 properties, NMR spectrum      
  Ute Becker             : All parallelization in ORCA, NUMFREQ, NUMCALC 
  Giovanni Bistoni       : ED, misc. LED, open-shell LED, HFLD           
  Dmytro Bykov           : pre 5.0 version of the SCF Hessian            
  Marcos Casanova-Páez   : Triplet and SCS-CIS(D). UHF-(DLPNO)-IP/EA/STEOM-CCSD. UHF-CVS-IP/STEOM-CCSD   
  Vijay G. Chilkuri      : MRCI spin determinant printing, contributions to CSF-ICE 
  Pauline Colinet        : FMM embedding                                 
  Dipayan Datta          : RHF DLPNO-CCSD density                        
  Achintya Kumar Dutta   : EOM-CC, STEOM-CC                              
  Nicolas Foglia         : Exact transition moments, OPA infrastructure, MCD improvements    
  Dmitry Ganyushin       : Spin-Orbit,Spin-Spin,Magnetic field MRCI      
  Miquel Garcia-Rates    : C-PCM and meta-GGA Hessian, CCSD/C-PCM, Gaussian charge scheme 
  Tiago L. C. Gouveia    : GS-ROHF, GS-ROCIS                             
  Yang Guo               : DLPNO-NEVPT2, F12-NEVPT2, CIM, IAO-localization        
  Andreas Hansen         : Spin unrestricted coupled pair/coupled cluster methods 
  Ingolf Harden          : AUTO-CI MPn and infrastructure                
  Benjamin Helmich-Paris : MC-RPA, TRAH-(SCF,CASSCF), AVAS, COSX integrals, SCF dyn. polar., MC-PDFT, srDFT 
  Lee Huntington         : MR-EOM, pCC                                   
  Robert Izsak           : Overlap fitted RIJCOSX, COSX-SCS-MP3, EOM     
  Riya Kayal             : Wick's Theorem for AUTO-CI, AUTO-CI UHF-CCSDT 
  Emily Kempfer          : AUTO-CI RHF CISDT and CCSDT, approximate NEVPT4
  Christian Kollmar      : KDIIS, OOCD, Brueckner-CCSD(T), CCSD density, CASPT2, CASPT2-K, improved NEVPT2 
  Axel Koslowski         : Symmetry handling                             
  Simone Kossmann        : meta-GGA functionals, TD-DFT gradient, OOMP2, (MP2 Hessian; deprecated post 5.0) 
  Lucas Lang             : DCDCAS, Hyperfine gauge corrections, ICE-SOC+SSC
  Marvin Lechner         : AUTO-CI (C++ implementation), FIC-MRCC        
  Spencer Leger          : CASSCF response                               
  Dagmar Lenk            : GEPOL surface, SMD, ORCA-2-JSON               
  Dimitrios Liakos       : Extrapolation schemes; Compound Job, Property file
  Dimitrios Manganas     : Further ROCIS development; embedding schemes. LFT, Crystal Embedding 
  Dimitrios Pantazis     : SARC Basis sets                               
  Anastasios Papadopoulos: AUTO-CI, single reference methods and gradients 
  Taras Petrenko         : pre 6.0 DFT Hessian and TD-DFT gradient,  ECA, NRVS 
  Petra Pikulova         : Analytic Raman intensities                    
  Peter Pinski           : DLPNO-MP2, DLPNO-MP2 Gradient                 
  Shashank Vittal Rao    : ES-AILFT, MagRelax                            
  Christoph Reimann      : Effective Core Potentials                     
  Marius Retegan         : Local ZFS, SOC                                
  Christoph Riplinger    : Optimizer, TS searches, QM/MM, DLPNO-CCSD(T), (RO)-DLPNO pert. Triples 
  Michael Roemelt        : Original ROCIS implementation, recursive CI coupling coefficients
  Masaaki Saitow         : Open-shell DLPNO-CCSD energy and density      
  Barbara Sandhoefer     : DKH picture change effects                    
  Yorick L. A. Schmerwitz: GMF and freeze-and-release deltaSCF, NEB S-IDPP initial path                    
  Kantharuban Sivalingam : CASSCF convergence/infrastructure, NEVPT2, NEVPT3, NEVPT4(SD), FIC-MRCI and CEPA variants
  Bernardo de Souza      : ESD, SOC TD-DFT                               
  Georgi L. Stoychev     : AutoAux, RI-MP2 NMR, DLPNO-MP2 response, X2C  
  Van Anh Tran           : RI-MP2 g-tensors                              
  Willem Van den Heuvel  : Paramagnetic NMR                              
  Zikuan Wang            : NOTCH, Electric field optimization            
  Frank Wennmohs         : Technical directorship and infrastructure     
  Hang Xu                : AUTO-CI-Response properties                   
                                                                         
[FACCTs GmbH]                                                            
  Markus Bursch, Nicolas Foglia, Miquel Garcia-Rates, Ingolf Harden, Hagen Neugebauer, Anastasios Papadopoulos, 
  Christoph Riplinger, Bernardo de Souza, Georgi L. Stoychev                                                    
                                                                 
  APM, various basis sets, CI-OPT, improved COSX, DLPNO-Multilevel,           
  DOCKER, DRACO, updates on ESD, Fragmentator, GOAT, IRC, LR-CPCM, L-BFGS, MBIS, meta-GGA TD-DFT gradient, ML-optimized integration grids, 
  MM, NACMEs, nearIR, NEB, NEB-TS, NL-DFT gradient (VV10), 2- and 3-layer-ONIOM, interface openCOSMO-RS, QMMM,   
  Crystal-QMMM, RESP, rigid body optimization, SF, symmetry and pop. for TD-DFT, various functionals, SOLVATOR                                   
                                                                         
[Other institutions]                                                     
  V. Asgeirsson          : NEB                                           
  Christoph Bannwarth    : sTDA-DFT, sTD-DFT, PBEh-3c, B97-3c, D3        
  Giovanni Bistoni       : ETS/NOCV, ADLD/ADEX, COVALED                  
  Martin Brehm           : Molecular dynamics                            
  Ronald Cardenas        : ETS/NOCV                                      
  Martina Colucci        : COVALED                                       
  Sebastian Ehlert       : rSCAN, r2SCAN, r2SCAN-3c, D4, dhf basis sets  
  Marvin Friede          : D4 for Fr, Ra, Ac-Lr                          
  Lars Goerigk           : TD-DFT with DH, B97 family of functionals     
  Stefan Grimme          : VdW corrections, initial TS optimization, DFT functionals, gCP, sTDA/sTD-DF 
  Waldemar Hujo          : DFT-NL                                        
  H. Jonsson             : NEB                                           
  Holger Kruse           : gCP                                           
  Marcel Mueller         : wB97X-3c, vDZP basis set                      
  Hagen Neugebauer       : wr2SCAN, Native XTB                           
  Gianluca Regni         : ADLD/ADEX                                     
  Tobias Risthaus        : pre 6.0 range-separated hybrid DFT and stability analysis
  Lukas Wittmann         : regularized MP2, r2SCAN double-hybrids, wr2SCAN        
                                                                         
We gratefully acknowledge several colleagues who have allowed us to      
interface, adapt or use parts of their codes:                            
  Ed Valeev, F. Pavosevic, A. Kumar             : LibInt (2-el integral package), F12 methods 
  Garnet Chan, S. Sharma, J. Yang, R. Olivares  : DMRG                   
  Ulf Ekstrom                                   : XCFun DFT Library      
  Mihaly Kallay                                 : mrcc  (arbitrary order and MRCC methods)
  Frank Weinhold                                : gennbo (NPA and NBO analysis)           
  Simon Mueller                                 : openCOSMO-RS                            
  Christopher J. Cramer and Donald G. Truhlar   : smd solvation model                     
  S Lehtola, MJT Oliveira, MAL Marques          : LibXC Library                           
  Liviu Ungur et al                             : ANISO software                          


 Your calculation uses the libint2 library for the computation of 2-el integrals
 For citations please refer to: http://libint.valeyev.net

 Your ORCA version has been built with support for libXC version: 7.0.0
 For citations please refer to: https://libxc.gitlab.io

 This ORCA versions uses:
   CBLAS   interface :  Fast vector & matrix operations
   LAPACKE interface :  Fast linear algebra routines
   SCALAPACK package :  Parallel linear algebra routines
   Shared memory     :  Shared parallel matrices
   BLAS/LAPACK       :  OpenBLAS 0.3.29  USE64BITINT DYNAMIC_ARCH NO_AFFINITY Zen SINGLE_THREADED
        Core in use  :  Zen
   Copyright (c) 2011-2014, The OpenBLAS Project


  ***********************************
  * Starting time: Sun Apr  5 13:01:01 2026
  * Host name:     QC1
  * Process ID:    7216
  * Working dir.:  /home/user/QC/h-shift/split_2
  ***********************************

NOTE: MaxCore=1200 MB was set to SCF,MP2,MDCI,CIPSI,MRCI,RASCI and CIS
      => If you want to overwrite this, your respective input block should be placed after the MaxCore statement
================================================================================

----- Orbital basis set information -----
Your calculation utilizes the basis: 6-31G
   H-He, Li-Ne : W. J. Hehre, R. Ditchfield and J.A. Pople, J. Chem. Phys. 56, 2257 (1972).
                 Note: He and Ne are unpublished basis sets taken from the Gaussian program.
                 Note: Li and B from J. D. Dill and J. A. Pople, J. Chem. Phys. 62, 2921 (1975).
   Na - Ar     : M. M. Francl, W. J. Pietro, W. J. Hehre, J. S. Binkley, M. S. Gordon, 
                 D. J. DeFrees and J. A. Pople, J. Chem. Phys. 77, 3654 (1982).
   K - Zn      : V. A. Rassolov, J. A. Pople, M. A. Ratner, and T. L. Windus, J. Chem. Phys. 109, 1223 (1998).

================================================================================
                                        WARNINGS
                       Please study these warnings very carefully!
================================================================================


================================================================================
                                       INPUT FILE
================================================================================
NAME = h-shift_034.inp
|  1> ! HF 6-31G
|  2> %maxcore 1200
|  3> %pal nprocs 8 end
|  4> * xyz 0 1
|  5> C    0.05066600   0.01391100  -0.10936100
|  6> H    1.09555900  -0.00297000  -0.38877400
|  7> C    2.52020500   0.02573400   1.46154600
|  8> C    1.99150500  -1.14067700   1.83271300
|  9> C    0.59831900  -1.59754900   1.71487700
| 10> C   -0.24339500  -1.16173100   0.77575100
| 11> H   -0.54695500   0.03425800  -1.00670800
| 12> H   -0.10922400   0.94680000   0.42555700
| 13> H    1.94029900   0.89827100   1.24752300
| 14> H    3.57659300   0.12754900   1.31675200
| 15> H    2.67135200  -1.91907100   2.13117900
| 16> H    0.32421100  -2.45338200   2.30393400
| 17> H   -1.15336100  -1.70318800   0.59540200
| 18> *
| 19> 
| 20>                          ****END OF INPUT****
================================================================================

                       ****************************
                       * Single Point Calculation *
                       ****************************

---------------------------------
CARTESIAN COORDINATES (ANGSTROEM)
---------------------------------
  C      0.050666    0.013911   -0.109361
  H      1.095559   -0.002970   -0.388774
  C      2.520205    0.025734    1.461546
  C      1.991505   -1.140677    1.832713
  C      0.598319   -1.597549    1.714877
  C     -0.243395   -1.161731    0.775751
  H     -0.546955    0.034258   -1.006708
  H     -0.109224    0.946800    0.425557
  H      1.940299    0.898271    1.247523
  H      3.576593    0.127549    1.316752
  H      2.671352   -1.919071    2.131179
  H      0.324211   -2.453382    2.303934
  H     -1.153361   -1.703188    0.595402

----------------------------
CARTESIAN COORDINATES (A.U.)
----------------------------
  NO LB      ZA    FRAG     MASS         X           Y           Z
   0 C     6.0000    0    12.011    0.095745    0.026288   -0.206662
   1 H     1.0000    0     1.008    2.070306   -0.005612   -0.734676
   2 C     6.0000    0    12.011    4.762497    0.048630    2.761922
   3 C     6.0000    0    12.011    3.763399   -2.155567    3.463326
   4 C     6.0000    0    12.011    1.130659   -3.018930    3.240648
   5 C     6.0000    0    12.011   -0.459950   -2.195353    1.465957
   6 H     1.0000    0     1.008   -1.033595    0.064738   -1.902402
   7 H     1.0000    0     1.008   -0.206403    1.789193    0.804186
   8 H     1.0000    0     1.008    3.666634    1.697486    2.357477
   9 H     1.0000    0     1.008    6.758781    0.241033    2.488301
  10 H     1.0000    0     1.008    5.048124   -3.626519    4.027345
  11 H     1.0000    0     1.008    0.612670   -4.636220    4.353804
  12 H     1.0000    0     1.008   -2.179536   -3.218559    1.125147

--------------------------------
INTERNAL COORDINATES (ANGSTROEM)
--------------------------------
 C      0   0   0     0.000000000000     0.00000000     0.00000000
 H      1   0   0     1.081738403765     0.00000000     0.00000000
 C      2   1   0     2.335406655667   112.60662573     0.00000000
 C      3   2   1     1.333342886436    88.16127819    62.29797220
 C      4   3   2     1.470912838300   128.68112645   323.23218775
 C      5   4   3     1.334307847086   123.53342369    27.57745499
 H      1   2   3     1.078330421744   108.70400163   178.02584599
 H      1   2   3     1.087190859576   106.41166512    61.74176557
 H      3   2   1     1.069307079250    61.35543087   291.77979633
 H      3   2   1     1.071114934638   119.71587044   187.14171680
 H      4   3   2     1.075718883259   117.36434391   133.51745739
 H      5   4   3     1.074510804414   116.42939960   195.88582477
 H      6   5   4     1.074122695881   119.20546561   165.02212815

---------------------------
INTERNAL COORDINATES (A.U.)
---------------------------
 C      0   0   0     0.000000000000     0.00000000     0.00000000
 H      1   0   0     2.044189331660     0.00000000     0.00000000
 C      2   1   0     4.413278990547   112.60662573     0.00000000
 C      3   2   1     2.519652897976    88.16127819    62.29797220
 C      4   3   2     2.779622431256   128.68112645   323.23218775
 C      5   4   3     2.521476409335   123.53342369    27.57745499
 H      1   2   3     2.037749178972   108.70400163   178.02584599
 H      1   2   3     2.054492979901   106.41166512    61.74176557
 H      3   2   1     2.020697532846    61.35543087   291.77979633
 H      3   2   1     2.024113884419   119.71587044   187.14171680
 H      4   3   2     2.032814086448   117.36434391   133.51745739
 H      5   4   3     2.030531148282   116.42939960   195.88582477
 H      6   5   4     2.029797729444   119.20546561   165.02212815

---------------------
BASIS SET INFORMATION
---------------------
There are 2 groups of distinct atoms

 Group   1 Type C   : 10s4p contracted to 3s2p pattern {631/31}
 Group   2 Type H   : 4s contracted to 2s pattern {31}

Atom   0C    basis set group =>   1
Atom   1H    basis set group =>   2
Atom   2C    basis set group =>   1
Atom   3C    basis set group =>   1
Atom   4C    basis set group =>   1
Atom   5C    basis set group =>   1
Atom   6H    basis set group =>   2
Atom   7H    basis set group =>   2
Atom   8H    basis set group =>   2
Atom   9H    basis set group =>   2
Atom  10H    basis set group =>   2
Atom  11H    basis set group =>   2
Atom  12H    basis set group =>   2


           ************************************************************
           *        Program running with 8 parallel MPI-processes     *
           *              working on a common directory               *
           ************************************************************
------------------------------------------------------------------------------
                             ORCA STARTUP CALCULATIONS
------------------------------------------------------------------------------
------------------------------------------------------------------------------
                   ___                                                        
                  /   \      - P O W E R E D   B Y -                         
                 /     \                                                     
                 |  |  |   _    _      __       _____    __    __             
                 |  |  |  | |  | |    /  \     |  _  \  |  |  /  |          
                  \  \/   | |  | |   /    \    | | | |  |  | /  /          
                 / \  \   | |__| |  /  /\  \   | |_| |  |  |/  /          
                |  |  |   |  __  | /  /__\  \  |    /   |      \           
                |  |  |   | |  | | |   __   |  |    \   |  |\   \          
                \     /   | |  | | |  |  |  |  | |\  \  |  | \   \       
                 \___/    |_|  |_| |__|  |__|  |_| \__\ |__|  \__/        
                                                                              
                      - O R C A' S   B I G   F R I E N D -                    
                                      &                                       
                       - I N T E G R A L  F E E D E R -                       
                                                                              
 v1 FN, 2020, v2 2021, v3 2022-2024                                           
------------------------------------------------------------------------------


----------------------
SHARK INTEGRAL PACKAGE
----------------------

Number of atoms                             ...     13
Number of basis functions                   ...     61
Number of shells                            ...     41
Maximum angular momentum                    ...      1
Integral batch strategy                     ... SHARK/LIBINT Hybrid
RI-J (if used) integral strategy            ... SPLIT-RIJ (Revised 2003 algorithm where possible)
Printlevel                                  ...      1
Contraction scheme used                     ... SEGMENTED contraction
Prescreening option                         ... SCHWARTZ
   Thresh                                   ... 1.000e-10
   Tcut                                     ... 1.000e-11
   Tpresel                                  ... 1.000e-11 
Coulomb Range Separation                    ... NOT USED
Exchange Range Separation                   ... NOT USED
Multipole approximations                    ... NOT USED
Finite Nucleus Model                        ... NOT USED
CABS basis                                  ... NOT available
Auxiliary Coulomb fitting basis             ... NOT available
Auxiliary J/K fitting basis                 ... NOT available
Auxiliary Correlation fitting basis         ... NOT available
Auxiliary 'external' fitting basis          ... NOT available

Checking pre-screening integrals            ... done (  0.0 sec) Dimension = 41
   => SHARK Basis and OBASIS are compatible. Storing Pre-screening
Shell pair information
Shell pair cut-off parameter TPreSel        ...   1.0e-11
Total number of shell pairs                 ...       861
Shell pairs after pre-screening             ...       846
Total number of primitive shell pairs       ...      5382
Primitive shell pairs kept                  ...      3749
          la=0 lb=0:    481 shell pairs
          la=1 lb=0:    310 shell pairs
          la=1 lb=1:     55 shell pairs

Checking whether 4 symmetric matrices of dimension 61 fit in memory
:Max Core in MB      =   1200.00
 MB in use           =      2.05
 MB left             =   1197.95
 MB needed           =      0.06
 Data fit in memory  = YES
Calculating Nuclear repulsion               ... done (  0.0 sec) ENN=    161.946726030634 Eh

Diagonalization of the overlap matrix:
Smallest eigenvalue                        ... 3.447e-03
Time for diagonalization                   ...    0.000 sec
Threshold for overlap eigenvalues          ... 1.000e-07
Number of eigenvalues below threshold      ... 0
Time for construction of square roots      ...    0.000 sec
Total time needed                          ...    0.001 sec

-------------------
DFT GRID GENERATION
-------------------

General Integration Accuracy     IntAcc      ... 4.388
Radial Grid Type                 RadialGrid  ... OptM3 with GC (2021)
Angular Grid (max. ang.)         AngularGrid ... 4 (Lebedev-302)
Angular grid pruning method      GridPruning ... 4 (adaptive)
Weight generation scheme         WeightScheme... mBecke (2022)
Basis function cutoff            BFCut       ... 1.0000e-10
Integration weight cutoff        WCut        ... 1.0000e-14
Partially contracted basis set               ... off
Rotationally invariant grid construction     ... off
Angular grids for H and He will be reduced by one unit

Total number of grid points                  ...    56012
Total number of batches                      ...      883
Average number of points per batch           ...       63
Average number of grid points per atom       ...     4309
Grids setup in   0.2 sec
Initializing property integral containers    ... done (  0.0 sec)

SHARK setup successfully completed in   0.3 seconds

Maximum memory used throughout the entire STARTUP-calculation: 11.8 MB


           ************************************************************
           *        Program running with 8 parallel MPI-processes     *
           *              working on a common directory               *
           ************************************************************
-------------------------------------------------------------------------------
                                 ORCA GUESS
                   Start orbitals & Density for SCF / CASSCF
-------------------------------------------------------------------------------

------------
SCF SETTINGS
------------
Hamiltonian:
 Ab initio Hamiltonian  Method          .... Hartree-Fock(GTOs)


General Settings:
 Integral files         IntName         .... h-shift_034
 Hartree-Fock type      HFTyp           .... RHF
 Total Charge           Charge          ....    0
 Multiplicity           Mult            ....    1
 Number of Electrons    NEL             ....   38
 Basis Dimension        Dim             ....   61
 Nuclear Repulsion      ENuc            ....    161.9467260306 Eh

Convergence Acceleration:
 AO-DIIS                CNVDIIS         .... on
   Start iteration      DIISMaxIt       ....    12
   Startup error        DIISStart       ....  0.200000
   # of expansion vecs  DIISMaxEq       ....     5
   Bias factor          DIISBfac        ....   1.050
   Max. coefficient     DIISMaxC        ....  10.000
 MO-DIIS                CNVKDIIS        .... off
 Trust-Rad. Augm. Hess. CNVTRAH         .... auto
   Auto Start mean grad. ratio tolernc. ....  1.125000
   Auto Start start iteration           ....    50
   Auto Start num. interpolation iter.  ....    10
   Max. Number of Micro iterations      ....    24
   Max. Number of Macro iterations      .... Maxiter - #DIIS iter
   Number of Davidson start vectors     ....     2
   Converg. threshold    (grad. norm)   ....   5.000e-05
   Grad. Scal. Fac. for Micro threshold ....   0.100
   Minimum threshold for Micro iter.    ....   1.000e-02
   NR start threshold (gradient norm)   ....   1.000e-04
   Initial trust radius                 ....   0.400
   Minimum AH scaling param. (alpha)    ....   1.000
   Maximum AH scaling param. (alpha)    .... 1000.000
   Quad. conv. algorithm                .... NR
   White noise on init. David. guess    .... on
   Maximum white noise                  ....   0.010
   Pseudo random numbers                .... off
   Inactive MOs                         .... canonical
   Orbital update algorithm             .... Taylor
   Preconditioner                       .... Diag
   Full preconditioner red. dimension   ....   250
 SOSCF                 CNVSOSCF           .... on
   Start iteration     SOSCFMaxIt         ....   150
   Startup grad/error  SOSCFStart         ....  0.003300
   Hessian update      SOSCFHessUp        .... L-BFGS
   Autom. constraints  SOSCFAutoConstrain .... off
 Level Shifting         CNVShift        .... on
   Level shift para.    LevelShift      ....    0.2500
   Turn off err/grad.   ShiftErr        ....    0.0010
 Zerner damping         CNVZerner       .... off
 Static damping         CNVDamp         .... on
   Fraction old density DampFac         ....    0.7000
   Max. Damping (<1)    DampMax         ....    0.9800
   Min. Damping (>=0)   DampMin         ....    0.0000
   Turn off err/grad.   DampErr         ....    0.1000

SCF Procedure:
 Maximum # iterations   MaxIter         ....   125
 SCF integral mode      SCFMode         .... Direct
   Integral package                     .... SHARK and LIBINT hybrid scheme
 Reset frequency        DirectResetFreq ....    20
 Integral Threshold     Thresh          ....  1.000e-10 Eh
 Primitive CutOff       TCut            ....  1.000e-11 Eh

Convergence Tolerance:
 Convergence Check Mode ConvCheckMode   .... Total+1el-Energy
 Convergence forced     ConvForced      .... 0
 Energy Change          TolE            ....  1.000e-06 Eh
 1-El. energy change                    ....  1.000e-03 Eh
 Orbital Gradient       TolG            ....  5.000e-05
 Orbital Rotation angle TolX            ....  5.000e-05
 DIIS Error             TolErr          ....  1.000e-06

------------------------------
INITIAL GUESS: MODEL POTENTIAL
------------------------------
Loading Hartree-Fock densities                     ... done
Calculating cut-offs                               ... done
Initializing the effective Hamiltonian             ... done
Setting up the integral package (SHARK)            ... done
Starting the Coulomb interaction                   ... done (   0.0 sec)
Making the grid                                    ... done (   0.1 sec)
Mapping shells                                     ... done
Starting the XC term evaluation                    ... done (   0.0 sec)
Transforming the Hamiltonian                       ... done (   0.0 sec)
Diagonalizing the Hamiltonian                      ... done (   0.0 sec)
Back transforming the eigenvectors                 ... done (   0.0 sec)
Now organizing SCF variables                       ... done
                      ------------------
                      INITIAL GUESS DONE (   0.1 sec)
                      ------------------
             **** ENERGY FILE WAS UPDATED (h-shift_034.en.tmp) ****
Finished Guess after   0.4 sec
Maximum memory used throughout the entire GUESS-calculation: 4.2 MB


           ************************************************************
           *        Program running with 8 parallel MPI-processes     *
           *              working on a common directory               *
           ************************************************************

-------------------------------------------------------------------------------------------
                                      ORCA LEAN-SCF
                              memory conserving SCF solver
-------------------------------------------------------------------------------------------

----------------------------------------D-I-I-S--------------------------------------------
Iteration    Energy (Eh)           Delta-E    RMSDP     MaxDP     DIISErr   Damp  Time(sec)
-------------------------------------------------------------------------------------------
               ***  Starting incremental Fock matrix formation  ***
    1    -193.6383436701564733     0.00e+00  1.57e-02  5.28e-02  1.85e-01  0.700   0.1
    2    -193.7188663607996659    -8.05e-02  1.25e-02  4.00e-02  1.21e-01  0.700   0.0
                               ***Turning on AO-DIIS***
    3    -193.7686366136094307    -4.98e-02  7.66e-03  2.00e-02  7.20e-02  0.700   0.0
    4    -193.8000919561752653    -3.15e-02  1.82e-02  4.24e-02  4.86e-02  0.000   0.0
                              *** Initializing SOSCF ***
---------------------------------------S-O-S-C-F--------------------------------------
Iteration    Energy (Eh)           Delta-E    RMSDP     MaxDP     MaxGrad    Time(sec)
--------------------------------------------------------------------------------------
    5    -193.8681757322083854    -6.81e-02  1.71e-03  2.85e-03  2.77e-03     0.0
               *** Restarting incremental Fock matrix formation ***
    6    -193.8683024042055649    -1.27e-04  8.99e-04  1.90e-03  1.43e-03     0.0
    7    -193.8683414893017130    -3.91e-05  5.84e-04  1.30e-03  6.04e-04     0.0
    8    -193.8683495975636788    -8.11e-06  7.86e-05  1.81e-04  1.39e-04     0.0
    9    -193.8683498430678469    -2.46e-07  3.47e-05  8.10e-05  3.65e-05     0.0
                 **** Energy Check signals convergence ****

               *****************************************************
               *                     SUCCESS                       *
               *           SCF CONVERGED AFTER   9 CYCLES          *
               *****************************************************

             **** ENERGY FILE WAS UPDATED (h-shift_034.en.tmp) ****

----------------
TOTAL SCF ENERGY
----------------

Total Energy       :       -193.86834990844523 Eh           -5275.42600 eV

Components:
Nuclear Repulsion  :        161.94672603063384 Eh            4406.79445 eV
Electronic Energy  :       -355.81507593907907 Eh           -9682.22045 eV
One Electron Energy:       -580.83648782369733 Eh          -15805.36436 eV
Two Electron Energy:        225.02141188461826 Eh            6123.14391 eV

Virial components:
Potential Energy   :       -388.06442029324478 Eh          -10559.76972 eV
Kinetic Energy     :        194.19607038479955 Eh            5284.34373 eV
Virial Ratio       :          1.99831242477922

---------------
SCF CONVERGENCE
---------------

  Last Energy change         ...    2.4550e-07  Tolerance :   1.0000e-06
  Last MAX-Density change    ...    8.0965e-05  Tolerance :   1.0000e-05
  Last RMS-Density change    ...    3.4749e-05  Tolerance :   1.0000e-06
  Last DIIS Error            ...    2.7719e-03  Tolerance :   1.0000e-06
  Last Orbital Gradient      ...    3.6542e-05  Tolerance :   5.0000e-05
  Last Orbital Rotation      ...    3.1018e-05  Tolerance :   5.0000e-05


----------------
ORBITAL ENERGIES
----------------

  NO   OCC          E(Eh)            E(eV) 
   0   2.0000     -11.236384      -305.7576 
   1   2.0000     -11.236307      -305.7555 
   2   2.0000     -11.228002      -305.5295 
   3   2.0000     -11.220657      -305.3296 
   4   2.0000     -11.212926      -305.1192 
   5   2.0000      -1.103473       -30.0270 
   6   2.0000      -1.018526       -27.7155 
   7   2.0000      -0.942314       -25.6417 
   8   2.0000      -0.812437       -22.1075 
   9   2.0000      -0.720387       -19.6027 
  10   2.0000      -0.669332       -18.2134 
  11   2.0000      -0.600710       -16.3462 
  12   2.0000      -0.583984       -15.8910 
  13   2.0000      -0.567802       -15.4507 
  14   2.0000      -0.544457       -14.8154 
  15   2.0000      -0.507844       -13.8191 
  16   2.0000      -0.470816       -12.8116 
  17   2.0000      -0.406557       -11.0630 
  18   2.0000      -0.313916        -8.5421 
  19   0.0000       0.132596         3.6081 
  20   0.0000       0.226561         6.1650 
  21   0.0000       0.250103         6.8056 
  22   0.0000       0.270517         7.3612 
  23   0.0000       0.291301         7.9267 
  24   0.0000       0.324224         8.8226 
  25   0.0000       0.335174         9.1205 
  26   0.0000       0.348039         9.4706 
  27   0.0000       0.365090         9.9346 
  28   0.0000       0.369154        10.0452 
  29   0.0000       0.433528        11.7969 
*Only the first 10 virtual orbitals were printed.

                    ********************************
                    * MULLIKEN POPULATION ANALYSIS *
                    ********************************

-----------------------
MULLIKEN ATOMIC CHARGES
-----------------------
   0 C :   -0.515605
   1 H :    0.186197
   2 C :   -0.367360
   3 C :   -0.154725
   4 C :   -0.197108
   5 C :   -0.145222
   6 H :    0.158276
   7 H :    0.172055
   8 H :    0.174659
   9 H :    0.162096
  10 H :    0.171803
  11 H :    0.176274
  12 H :    0.178660
Sum of atomic charges:    0.0000000

--------------------------------
MULLIKEN REDUCED ORBITAL CHARGES
--------------------------------
  0 C s       :     3.367489  s :     3.367489
      pz      :     1.045401  p :     3.148116
      px      :     1.110372
      py      :     0.992343

  1 H s       :     0.813803  s :     0.813803

  2 C s       :     3.269523  s :     3.269523
      pz      :     1.013820  p :     3.097837
      px      :     1.082471
      py      :     1.001547

  3 C s       :     3.197377  s :     3.197377
      pz      :     0.993168  p :     2.957348
      px      :     0.966308
      py      :     0.997871

  4 C s       :     3.197488  s :     3.197488
      pz      :     1.010515  p :     2.999620
      px      :     0.927287
      py      :     1.061818

  5 C s       :     3.212040  s :     3.212040
      pz      :     0.936855  p :     2.933181
      px      :     1.027639
      py      :     0.968687

  6 H s       :     0.841724  s :     0.841724

  7 H s       :     0.827945  s :     0.827945

  8 H s       :     0.825341  s :     0.825341

  9 H s       :     0.837904  s :     0.837904

 10 H s       :     0.828197  s :     0.828197

 11 H s       :     0.823726  s :     0.823726

 12 H s       :     0.821340  s :     0.821340



                     *******************************
                     * LOEWDIN POPULATION ANALYSIS *
                     *******************************

----------------------
LOEWDIN ATOMIC CHARGES
----------------------
   0 C :   -0.321584
   1 H :    0.128581
   2 C :   -0.251611
   3 C :   -0.114097
   4 C :   -0.150612
   5 C :   -0.103965
   6 H :    0.109567
   7 H :    0.117062
   8 H :    0.118493
   9 H :    0.116280
  10 H :    0.116570
  11 H :    0.117482
  12 H :    0.117834

-------------------------------
LOEWDIN REDUCED ORBITAL CHARGES
-------------------------------
  0 C s       :     2.976940  s :     2.976940
      pz      :     1.109289  p :     3.344645
      px      :     1.145262
      py      :     1.090093

  1 H s       :     0.871419  s :     0.871419

  2 C s       :     2.989107  s :     2.989107
      pz      :     1.038718  p :     3.262505
      px      :     1.117027
      py      :     1.106759

  3 C s       :     2.945559  s :     2.945559
      pz      :     0.988864  p :     3.168538
      px      :     1.072240
      py      :     1.107434

  4 C s       :     2.942019  s :     2.942019
      pz      :     1.076699  p :     3.208593
      px      :     1.061056
      py      :     1.070837

  5 C s       :     2.953130  s :     2.953130
      pz      :     1.033900  p :     3.150835
      px      :     1.079436
      py      :     1.037499

  6 H s       :     0.890433  s :     0.890433

  7 H s       :     0.882938  s :     0.882938

  8 H s       :     0.881507  s :     0.881507

  9 H s       :     0.883720  s :     0.883720

 10 H s       :     0.883430  s :     0.883430

 11 H s       :     0.882518  s :     0.882518

 12 H s       :     0.882166  s :     0.882166



                      *****************************
                      * MAYER POPULATION ANALYSIS *
                      *****************************

  NA   - Mulliken gross atomic population
  ZA   - Total nuclear charge
  QA   - Mulliken gross atomic charge
  VA   - Mayer's total valence
  BVA  - Mayer's bonded valence
  FA   - Mayer's free valence

  ATOM       NA         ZA         QA         VA         BVA        FA
  0 C      6.5156     6.0000    -0.5156     3.7700     3.7700    -0.0000
  1 H      0.8138     1.0000     0.1862     0.9268     0.9268     0.0000
  2 C      6.3674     6.0000    -0.3674     3.8398     3.8398     0.0000
  3 C      6.1547     6.0000    -0.1547     3.8077     3.8077     0.0000
  4 C      6.1971     6.0000    -0.1971     3.8173     3.8173    -0.0000
  5 C      6.1452     6.0000    -0.1452     3.7592     3.7592     0.0000
  6 H      0.8417     1.0000     0.1583     0.9340     0.9340    -0.0000
  7 H      0.8279     1.0000     0.1721     0.9217     0.9217    -0.0000
  8 H      0.8253     1.0000     0.1747     0.9370     0.9370    -0.0000
  9 H      0.8379     1.0000     0.1621     0.9432     0.9432     0.0000
 10 H      0.8282     1.0000     0.1718     0.9370     0.9370     0.0000
 11 H      0.8237     1.0000     0.1763     0.9386     0.9386     0.0000
 12 H      0.8213     1.0000     0.1787     0.9382     0.9382     0.0000

  Mayer bond orders larger than 0.100000
B(  0-C ,  1-H ) :   0.9337 B(  0-C ,  5-C ) :   0.9640 B(  0-C ,  6-H ) :   0.9606 
B(  0-C ,  7-H ) :   0.9460 B(  2-C ,  3-C ) :   1.8664 B(  2-C ,  8-H ) :   0.9608 
B(  2-C ,  9-H ) :   0.9623 B(  3-C ,  4-C ) :   1.0556 B(  3-C , 10-H ) :   0.9581 
B(  4-C ,  5-C ) :   1.8664 B(  4-C , 11-H ) :   0.9564 B(  5-C , 12-H ) :   0.9559 


-------
TIMINGS
-------

Total SCF time: 0 days 0 hours 0 min 0 sec 

Total time                  ....       0.656 sec
Sum of individual times     ....       0.612 sec  ( 93.4%)

SCF preparation             ....       0.275 sec  ( 41.9%)
Fock matrix formation       ....       0.283 sec  ( 43.2%)
  Startup                   ....       0.001 sec  (  0.5% of F)
  Coulomb+Exchange Fock     ....       0.302 sec  (106.7% of F)
Diagonalization             ....       0.000 sec  (  0.0%)
Density matrix formation    ....       0.008 sec  (  1.2%)
Total Energy calculation    ....       0.005 sec  (  0.7%)
Population analysis         ....       0.005 sec  (  0.7%)
Orbital Transformation      ....       0.005 sec  (  0.7%)
Orbital Orthonormalization  ....       0.000 sec  (  0.0%)
DIIS solution               ....       0.020 sec  (  3.0%)
SOSCF solution              ....       0.013 sec  (  2.0%)
Finished LeanSCF after   0.7 sec

Maximum memory used throughout the entire LEANSCF-calculation: 6.5 MB

-------------------------   --------------------
FINAL SINGLE POINT ENERGY      -193.868349908445
-------------------------   --------------------



           ************************************************************
           *        Program running with 8 parallel MPI-processes     *
           *              working on a common directory               *
           ************************************************************

------------------------------------------------------------------------------
                              ORCA PROPERTY CALCULATIONS
------------------------------------------------------------------------------

GBWName                                 ... h-shift_034.gbw
Number of atoms                         ...     13
Number of basis functions               ...     61
Max core memory                         ...   1200 MB

Electric properties:
Dipole moment                           ... YES
Quadrupole moment                       ...  NO
Static polarizability (Dipole/Dipole)   ...  NO
Static polarizability (Dipole/Quad.)    ...  NO
Static polarizability (Quad./Quad.)     ...  NO
Static polarizability (Velocity)        ...  NO
Static hyperpolarizability              ...  NO

Atomic electric properties:
Dipole moment                           ...  NO
Quadrupole moment                       ...  NO
Static polarizability                   ...  NO

Choice of electric origin               ... Center of mass
Position of electric origin             ...     1.856535    -1.400130     2.076360

General magnetic properties:
Magnetizability                         ...  NO

EPR properties:
g-Tensor (aka g-matrix)                 ...  NO
Zero-Field splitting spin-orbit         ...  NO
Zero-field splitting spin-spin          ...  NO
Hyperfine couplings                     ...  NO (   0 nuclei)
Quadrupole couplings                    ...  NO (   0 nuclei)
Contact density                         ...  NO (   0 nuclei)

NMR properties:
Chemical shifts                         ...  NO (   0 nuclei)
Spin-rotation constants                 ...  NO (   0 nuclei)
Spin-spin couplings                     ...  NO (   0 nuclei,    0 pairs)

Choice of magnetic origin               ... GIAO
Position of magnetic origin             ...     0.000000     0.000000     0.000000

Properties with geometric perturbations:
SCF Hessian                             ...  NO
IR spectrum                             ...  NO
VCD spectrum                            ...  NO
X-ray spectroscopy properties:
SCF XES/XAS/RIXS spectra                ...  NO

SCF SOC stabilization energy            ...  NO
Diagonal Born-Oppenheimer correction    ...  NO

-------------
DIPOLE MOMENT
-------------

Method             : SCF
Type of density    : Electron Density
Multiplicity       :   1
Irrep              :   0
Energy             :  -193.8683499084452251 Eh
Basis              : AO
                                X                 Y                 Z
Electronic contribution:      0.017836581      -1.771548266       1.849531181
Nuclear contribution   :     -0.057241258       1.740881780      -2.031372850
                        -----------------------------------------
Total Dipole Moment    :     -0.039404676      -0.030666486      -0.181841669
                        -----------------------------------------
Magnitude (a.u.)       :      0.188572411
Magnitude (Debye)      :      0.479312978



--------------------
Rotational spectrum 
--------------------
 
Rotational constants in cm-1:             0.278690             0.148567             0.100279 
Rotational constants in MHz :          8354.924287          4453.928676          3006.295459 

Dipole components along the rotational axes: 
x,y,z [a.u.] :    -0.121358     0.057601     0.132340 
x,y,z [Debye]:    -0.308469     0.146410     0.336381 

 

Dipole moment calculation done in   0.0 sec 

Maximum memory used throughout the entire PROP-calculation: 2.2 MB

--------------------------------
SUGGESTED CITATIONS FOR THIS RUN
--------------------------------

Below you find a list of papers that are relevant to this ORCA run
We neither can nor want to force you to cite these papers, but we appreciate if you do
You receive ORCA, which is the product of decades of hard work by many enthusiastic individuals, for free
The only thing we kindly ask in return is that you cite our papers,
We deeply appreciate it, if you show your appreciation for ORCA by not just citing the generic ORCA reference.

Please note that relegating all ORCA citations to the supporting information does *not* help us.
SI sections are not indexed - citations you put there will not count into any citation statistics
But we need these citations in order to attract the funding resources that allow us to do what we are doing

Therefore, if you are a happy ORCA user, please consider citing a few of the papers listed below in the main body of your paper

In addition to the list printed below, the program has created the file h-shift_034.bibtex that contains the list in bibtex format
You can import this file easily into all common literature databanks and citation aid programs


List of essential papers. We consider these as the minimum necessary citations

  1. Neese, F.
     Software update: the ORCA program system, version 6.0
     WIRES Comput. Molec. Sci. 2025 15(1), e70019
     doi.org/10.1002/wcms.7019

List of papers to cite with high priority. The work reported in these papers was absolutely
necessary for this run to complete.
Our perspective: the developers of density functionals and basis sets usually get cited in chemistry papers
Good! But without the algorithms to do something with them, the functionals or basis sets would not do anything.
Hence, in our opinion, the algorithm design and method developments papers are equally worthy of getting cited

  1. Neese, F.
     The SHARK Integral Generation and Digestion System
     J. Comp. Chem. 2022 44(3), 381
     doi.org/10.1002/jcc.26942

List of suggested additional citations. These are papers that are important in the 'surrounding' of 
of this run, or papers that preceded the highly important papers. If you like your results we are grateful for a citation.

  1. Neese, F.
     The ORCA program system
     WIRES Comput. Molec. Sci. 2012 2(1), 73-78
     doi.org/10.1002/wcms.81
  2. Neese, F.
     Software update: the ORCA program system, version 4.0
     WIRES Comput. Molec. Sci. 2018 8(1), 1-6
     doi.org/10.1002/wcms.1327
  3. Neese, F.; Wennmohs, F.; Becker, U.; Riplinger, C.
     The ORCA quantum chemistry program package
     J. Chem. Phys. 2020 152(22), 224108
     doi.org/10.1063/5.0004608
  4. Neese, F.
     Software update: The ORCA program system—Version 5.0
     WIRES Comput. Molec. Sci. 2022 12(1), e1606
     doi.org/10.1002/wcms.1606

List of optional additional citations

  1. Neese, F.
     Approximate second-order SCF convergence for spin unrestricted wavefunctions
     Chem. Phys. Lett. 2000 325(1-3), 93-98
     doi.org/10.1016/s0009-2614(00)00662-x

Timings for individual modules:

Sum of individual times          ...        2.251 sec (=   0.038 min)
Startup calculation              ...        0.635 sec (=   0.011 min)  28.2 %
SCF iterations                   ...        1.251 sec (=   0.021 min)  55.6 %
Property calculations            ...        0.364 sec (=   0.006 min)  16.2 %
                             ****ORCA TERMINATED NORMALLY****
TOTAL RUN TIME: 0 days 0 hours 0 minutes 2 seconds 676 msec
