[Molden Format]
[Title]
 Molden file created by orca_2mkl for BaseName=h-shift_079

[Atoms] AU
C    1   6         -0.8223634601         0.0163121160         0.0564669066 
H    2   1          4.0316853533         0.0255131925         0.0568146162 
C    3   6          4.6679277967         0.0191542641         2.0012634395 
C    4   6          3.5115439041        -2.1357420204         3.4404202816 
C    5   6          1.1845975038        -3.0369013911         3.1046310654 
C    6   6         -0.6219202090        -2.2387906762         1.1482996442 
H    7   1         -2.0949560612         0.3171602960        -1.4923696403 
H    8   1          0.2505550086         1.6278063123         0.6423368102 
H    9   1          4.1128075168         1.8184381052         2.8220357502 
H   10   1          6.7095104330        -0.0608378432         2.0163151082 
H   11   1          4.6917326768        -3.0247315548         4.8375609528 
H   12   1          0.5854711714        -4.6000393853         4.2608278751 
H   13   1         -1.8632397324        -3.7164110040         0.5056283525 
[GTO]
  1 0
s   6 1.0 
     3047.5249000000         0.5363343823
      457.3695100000         0.9894506076
      103.9486900000         1.5972822308
       29.2101550000         2.0791870615
        9.2866630000         1.7741742532
        3.1639270000         0.6125798260
s   3 1.0 
        7.8682724000        -0.3995563516
        1.8812885000        -0.1841552393
        0.5442493000         0.5163903794
p   3 1.0 
        7.8682724000         1.2960827175
        1.8812885000         0.9937536282
        0.5442493000         0.4959527138
s   1 1.0 
        0.1687144000         0.1876178721
p   1 1.0 
        0.1687144000         0.1541275509

  2 0
s   3 1.0 
       18.7311370000         0.2149354183
        2.8253937000         0.3645711272
        0.6401217000         0.4150514277
s   1 1.0 
        0.1612778000         0.1813806839

  3 0
s   6 1.0 
     3047.5249000000         0.5363343823
      457.3695100000         0.9894506076
      103.9486900000         1.5972822308
       29.2101550000         2.0791870615
        9.2866630000         1.7741742532
        3.1639270000         0.6125798260
s   3 1.0 
        7.8682724000        -0.3995563516
        1.8812885000        -0.1841552393
        0.5442493000         0.5163903794
p   3 1.0 
        7.8682724000         1.2960827175
        1.8812885000         0.9937536282
        0.5442493000         0.4959527138
s   1 1.0 
        0.1687144000         0.1876178721
p   1 1.0 
        0.1687144000         0.1541275509

  4 0
s   6 1.0 
     3047.5249000000         0.5363343823
      457.3695100000         0.9894506076
      103.9486900000         1.5972822308
       29.2101550000         2.0791870615
        9.2866630000         1.7741742532
        3.1639270000         0.6125798260
s   3 1.0 
        7.8682724000        -0.3995563516
        1.8812885000        -0.1841552393
        0.5442493000         0.5163903794
p   3 1.0 
        7.8682724000         1.2960827175
        1.8812885000         0.9937536282
        0.5442493000         0.4959527138
s   1 1.0 
        0.1687144000         0.1876178721
p   1 1.0 
        0.1687144000         0.1541275509

  5 0
s   6 1.0 
     3047.5249000000         0.5363343823
      457.3695100000         0.9894506076
      103.9486900000         1.5972822308
       29.2101550000         2.0791870615
        9.2866630000         1.7741742532
        3.1639270000         0.6125798260
s   3 1.0 
        7.8682724000        -0.3995563516
        1.8812885000        -0.1841552393
        0.5442493000         0.5163903794
p   3 1.0 
        7.8682724000         1.2960827175
        1.8812885000         0.9937536282
        0.5442493000         0.4959527138
s   1 1.0 
        0.1687144000         0.1876178721
p   1 1.0 
        0.1687144000         0.1541275509

  6 0
s   6 1.0 
     3047.5249000000         0.5363343823
      457.3695100000         0.9894506076
      103.9486900000         1.5972822308
       29.2101550000         2.0791870615
        9.2866630000         1.7741742532
        3.1639270000         0.6125798260
s   3 1.0 
        7.8682724000        -0.3995563516
        1.8812885000        -0.1841552393
        0.5442493000         0.5163903794
p   3 1.0 
        7.8682724000         1.2960827175
        1.8812885000         0.9937536282
        0.5442493000         0.4959527138
s   1 1.0 
        0.1687144000         0.1876178721
p   1 1.0 
        0.1687144000         0.1541275509

  7 0
s   3 1.0 
       18.7311370000         0.2149354183
        2.8253937000         0.3645711272
        0.6401217000         0.4150514277
s   1 1.0 
        0.1612778000         0.1813806839

  8 0
s   3 1.0 
       18.7311370000         0.2149354183
        2.8253937000         0.3645711272
        0.6401217000         0.4150514277
s   1 1.0 
        0.1612778000         0.1813806839

  9 0
s   3 1.0 
       18.7311370000         0.2149354183
        2.8253937000         0.3645711272
        0.6401217000         0.4150514277
s   1 1.0 
        0.1612778000         0.1813806839

 10 0
s   3 1.0 
       18.7311370000         0.2149354183
        2.8253937000         0.3645711272
        0.6401217000         0.4150514277
s   1 1.0 
        0.1612778000         0.1813806839

 11 0
s   3 1.0 
       18.7311370000         0.2149354183
        2.8253937000         0.3645711272
        0.6401217000         0.4150514277
s   1 1.0 
        0.1612778000         0.1813806839

 12 0
s   3 1.0 
       18.7311370000         0.2149354183
        2.8253937000         0.3645711272
        0.6401217000         0.4150514277
s   1 1.0 
        0.1612778000         0.1813806839

 13 0
s   3 1.0 
       18.7311370000         0.2149354183
        2.8253937000         0.3645711272
        0.6401217000         0.4150514277
s   1 1.0 
        0.1612778000         0.1813806839

[5D]
[7F]
[9G]
[MO]
 Sym=     1a
 Ene= -1.12360176059985E+01
 Spin= Alpha
 Occup= 2.000000
  1      -0.057379715424
  2      -0.000593459052
  3      -0.000008214551
  4      -0.000176174707
  5       0.000118343196
  6      -0.005492319077
  7      -0.000870479330
  8       0.001991826768
  9      -0.001792392244
 10       0.000106630006
 11      -0.000576844379
 12      -0.000493394140
 13       0.000020895821
 14      -0.000049401911
 15      -0.000052086504
 16       0.000027226352
 17      -0.000077813162
 18       0.000012082596
 19       0.000252001105
 20      -0.000457127770
 21      -0.044638118609
 22      -0.000850686690
 23      -0.000166693402
 24      -0.000039682750
 25      -0.000116279414
 26       0.000731365464
 27       0.000533809544
 28       0.000398775607
 29       0.000234593622
 30      -0.047927194511
 31      -0.000530322344
 32      -0.000127830740
 33       0.000068842467
 34      -0.000123731496
 35      -0.003885389247
 36       0.001457364759
 37      -0.001365663042
 38       0.001791781197
 39      -0.992314525031
 40      -0.024837684342
 41      -0.000112232005
 42      -0.000151405455
 43       0.000004787852
 44       0.017292609826
 45       0.001469754545
 46       0.001720661449
 47       0.000604106952
 48       0.000081229031
 49      -0.000494138401
 50       0.000273516826
 51       0.000297107107
 52      -0.000002948381
 53       0.000003336592
 54       0.000001735138
 55       0.000001012293
 56      -0.000039677969
 57      -0.000513679532
 58       0.000085948901
 59      -0.000431960845
 60       0.000264148480
 61      -0.002084376125
 Sym=     1a
 Ene= -1.12354148058980E+01
 Spin= Alpha
 Occup= 2.000000
  1       0.003361888826
  2       0.000070592901
  3       0.000022514731
  4       0.000031237235
  5       0.000028511806
  6      -0.000124886097
  7      -0.000150298963
  8      -0.000192118924
  9      -0.000136762079
 10       0.000198534060
 11      -0.000117464223
 12      -0.015850938746
 13       0.000010070596
 14      -0.000011082113
 15      -0.000158667615
 16       0.000041753154
 17      -0.003665887592
 18       0.001205231924
 19       0.002182499553
 20      -0.000776181507
 21      -0.989612736967
 22      -0.024718826752
 23       0.000153187258
 24      -0.000031120651
 25       0.000094525704
 26       0.017247748857
 27      -0.001474987219
 28       0.000911500803
 29      -0.001752090702
 30      -0.101238573799
 31      -0.001546252479
 32       0.000223406290
 33       0.000127163957
 34       0.000002327531
 35      -0.005204171543
 36      -0.002499274611
 37      -0.001977317881
 38       0.000622845291
 39       0.049280150015
 40       0.001402343054
 41       0.000149618513
 42      -0.000037675213
 43       0.000113445153
 44      -0.000181882537
 45       0.000283881363
 46       0.000216601572
 47       0.000087514429
 48      -0.000011143726
 49      -0.000084544014
 50      -0.000004536054
 51       0.000361851497
 52       0.000201037355
 53      -0.000905305346
 54       0.000090942262
 55      -0.000189494946
 56       0.000268292915
 57      -0.002053502915
 58       0.000047717889
 59      -0.000793981387
 60      -0.000006126166
 61       0.000113012439
 Sym=     1a
 Ene= -1.12274294025181E+01
 Spin= Alpha
 Occup= 2.000000
  1      -0.007671603783
  2      -0.000346963678
  3      -0.000054439929
  4       0.000127661143
  5      -0.000157975038
  6      -0.000784427446
  7      -0.000208524710
  8      -0.000114472687
  9       0.000161056097
 10       0.000062273631
 11       0.000176176605
 12      -0.003539314140
 13      -0.000073827345
 14       0.000104507275
 15       0.000111062854
 16      -0.000094606564
 17      -0.001779886231
 18       0.000500859882
 19       0.000657887398
 20      -0.000030417492
 21      -0.103967962039
 22      -0.003638726588
 23       0.000226910924
 24       0.000030983935
 25       0.000089486311
 26       0.009465388324
 27      -0.003235131292
 28       0.000196294315
 29      -0.001992268495
 30       0.989838771615
 31       0.025134783143
 32       0.000132421580
 33       0.000168250363
 34      -0.000203055066
 35      -0.019566033312
 36      -0.001433564807
 37      -0.002670924171
 38       0.002191027933
 39      -0.042934438500
 40      -0.001716943009
 41      -0.000123690993
 42       0.000036096440
 43      -0.000109311505
 44       0.006027929327
 45       0.002520487274
 46       0.000033395851
 47       0.001745643465
 48       0.000046782779
 49       0.000333558148
 50      -0.000040798411
 51       0.000310953040
 52       0.000032837591
 53      -0.000150730231
 54       0.000059521728
 55       0.000129407824
 56      -0.000000521335
 57       0.000345157733
 58      -0.000298252669
 59       0.001686876217
 60      -0.000070055154
 61       0.000349087521
 Sym=     1a
 Ene= -1.12215770852800E+01
 Spin= Alpha
 Occup= 2.000000
  1      -0.994446779632
  2      -0.024812844899
  3      -0.000073873924
  4       0.000201786073
  5      -0.000058440703
  6       0.016573003295
  7       0.000426935833
  8      -0.001674427540
  9       0.000833443061
 10       0.000161273466
 11      -0.001079162951
 12       0.000393891628
 13       0.000045645569
 14      -0.000095145768
 15       0.000011141707
 16       0.000063247169
 17      -0.000020518070
 18       0.000368348026
 19       0.000063848915
 20      -0.000749154734
 21       0.000016249694
 22      -0.000029075701
 23      -0.000037394547
 24       0.000018615988
 25      -0.000021099353
 26       0.000126659523
 27       0.000326317007
 28       0.000416514382
 29      -0.000153771130
 30      -0.005196757329
 31      -0.000023758732
 32      -0.000067120707
 33       0.000080565905
 34      -0.000085461728
 35       0.000467685622
 36       0.000339709407
 37       0.000004727409
 38       0.000247779437
 39       0.058336708047
 40       0.002293118676
 41      -0.000036587144
 42       0.000293568105
 43      -0.000124288671
 44      -0.006832761368
 45       0.000193992623
 46      -0.002826561194
 47       0.001325545655
 48       0.000211033971
 49      -0.002650021930
 50       0.000138356686
 51      -0.002739941320
 52      -0.000021302624
 53       0.000513416389
 54      -0.000018465780
 55      -0.000247275885
 56       0.000006687970
 57       0.000022620687
 58      -0.000036456785
 59      -0.000207874864
 60       0.000114612746
 61       0.000004145873
 Sym=     1a
 Ene= -1.12153491478006E+01
 Spin= Alpha
 Occup= 2.000000
  1       0.000389980323
  2      -0.000027358720
  3      -0.000091879447
  4      -0.000004709183
  5      -0.000104055657
  6       0.000270831807
  7       0.000419891597
  8      -0.000302439923
  9       0.000640857670
 10       0.000075315203
 11       0.003220370426
 12       0.996072481005
 13       0.026130264970
 14      -0.000069907800
 15       0.000009935011
 16       0.000070356854
 17      -0.019221131115
 18       0.000642561560
 19       0.000715735788
 20      -0.000618252612
 21      -0.016303954692
 22      -0.000839859693
 23      -0.000082792268
 24      -0.000111987228
 25       0.000079471472
 26       0.004066955455
 27       0.001573499140
 28       0.002243442797
 29      -0.001315330507
 30       0.001878955052
 31      -0.000146823569
 32      -0.000127642583
 33      -0.000095073592
 34       0.000029693432
 35       0.000612972896
 36       0.000794924005
 37       0.000391097068
 38       0.000066336810
 39       0.000126725739
 40       0.000019376661
 41      -0.000056487736
 42      -0.000040430734
 43      -0.000013799821
 44      -0.000475689025
 45      -0.000110841261
 46      -0.000429814338
 47       0.000146892936
 48       0.000054838049
 49       0.000481922655
 50      -0.000047837003
 51      -0.000036264689
 52       0.000072061969
 53       0.003317311114
 54       0.000039987669
 55       0.003111643678
 56      -0.000129952299
 57       0.000069481568
 58       0.000030327202
 59       0.000431680910
 60      -0.000027091872
 61      -0.000023639234
 Sym=     1a
 Ene= -1.10001967307938E+00
 Spin= Alpha
 Occup= 2.000000
  1       0.075466750728
  2      -0.147436733184
  3      -0.012922821486
  4       0.056804935330
  5      -0.032710080935
  6      -0.100269402535
  7      -0.000225726316
  8       0.003083758139
  9       0.001224197189
 10      -0.038368241296
 11      -0.001634010185
 12       0.068284988203
 13      -0.126818665985
 14       0.024893662876
 15       0.031655301514
 16      -0.016992143224
 17      -0.120353810372
 18       0.012233641578
 19       0.003643829289
 20      -0.000860545895
 21       0.113707468063
 22      -0.225798136910
 23       0.062810883481
 24       0.005601125683
 25       0.027605305347
 26      -0.137035864331
 27      -0.000530752790
 28       0.004355620023
 29      -0.004561208163
 30       0.125954816893
 31      -0.248501782028
 32      -0.037718916877
 33      -0.041691418202
 34       0.025945851881
 35      -0.163783617119
 36       0.000130899931
 37      -0.004048845748
 38       0.005095492916
 39       0.110573982566
 40      -0.219385319207
 41      -0.034496022300
 42      -0.030107732402
 43      -0.013730162361
 44      -0.139127114450
 45      -0.005593273614
 46       0.000079003311
 47      -0.003413415323
 48      -0.033113949421
 49      -0.001745513864
 50      -0.039733792366
 51      -0.007150264758
 52      -0.034708844350
 53      -0.000252305257
 54      -0.031832745770
 55      -0.004995819002
 56      -0.053081242497
 57      -0.004252336889
 58      -0.059123588592
 59      -0.008464727473
 60      -0.053180807318
 61      -0.008263210186
 Sym=     1a
 Ene= -1.02133884100266E+00
 Spin= Alpha
 Occup= 2.000000
  1       0.121469698872
  2      -0.238404585299
  3      -0.000300244273
  4       0.078786157672
  5      -0.032631423185
  6      -0.183860348888
  7      -0.001995083587
  8       0.003016990121
  9      -0.003896703696
 10       0.053945610910
 11       0.005450684501
 12      -0.100251880630
 13       0.190589098629
 14      -0.013538914434
 15      -0.030109613195
 16       0.022762016479
 17       0.178435330727
 18       0.000570155642
 19      -0.000864647207
 20       0.003447885164
 21      -0.101858866757
 22       0.202183279318
 23       0.003585761914
 24       0.020850079551
 25      -0.018453596116
 26       0.148254017255
 27       0.001345163210
 28       0.005959147692
 29      -0.004847641547
 30      -0.020951324616
 31       0.041708243238
 32       0.101099825137
 33       0.006839481622
 34       0.046968258818
 35       0.026124436600
 36       0.007995122291
 37      -0.011636456091
 38       0.012634113467
 39       0.115749385364
 40      -0.231166674152
 41       0.023653902766
 42      -0.077019087881
 43       0.050252913756
 44      -0.159838865270
 45       0.010905410251
 46       0.004370699396
 47       0.006665867700
 48      -0.069279174954
 49      -0.015865838661
 50      -0.061616416792
 51      -0.005964706774
 52       0.058136797113
 53       0.005550478200
 54       0.059510930100
 55       0.008733879231
 56       0.062730579972
 57       0.016576004494
 58       0.010265748377
 59      -0.003832180125
 60      -0.068448433044
 61      -0.011384312034
 Sym=     1a
 Ene= -9.41024518476490E-01
 Spin= Alpha
 Occup= 2.000000
  1       0.079188394687
  2      -0.155141213060
  3       0.000061033858
  4       0.013092259816
  5      -0.001971957374
  6      -0.135661950367
  7      -0.004681790283
  8      -0.001957922024
  9      -0.000065167960
 10      -0.098841863586
 11      -0.022615272921
 12       0.139079324546
 13      -0.261814881663
 14      -0.013599752856
 15      -0.020404171721
 16       0.009283658097
 17      -0.293816160863
 18       0.003724871048
 19      -0.002176382347
 20      -0.000640990018
 21      -0.029828388681
 22       0.056106937393
 23      -0.132181319460
 24      -0.114470605127
 25       0.038157651881
 26       0.074415800861
 27      -0.019239041032
 28      -0.009911155966
 29       0.000435382009
 30      -0.118529579845
 31       0.235807465470
 32       0.036139343347
 33      -0.011569191420
 34       0.021087900775
 35       0.183656056605
 36      -0.005428380445
 37      -0.015363172439
 38       0.007238955669
 39       0.004265081003
 40      -0.007363913839
 41       0.049795254798
 42      -0.088369807196
 43       0.082767857448
 44      -0.004058768138
 45       0.013794601626
 46      -0.005915399381
 47       0.014527998238
 48      -0.057706083190
 49      -0.018569706266
 50      -0.059009444841
 51      -0.016969092100
 52      -0.099882473039
 53      -0.024558803903
 54      -0.101511676692
 55      -0.028037021491
 56       0.020619174009
 57       0.007334996457
 58       0.091182464184
 59       0.025262532208
 60       0.000960850478
 61       0.004318868363
 Sym=     1a
 Ene= -8.14071389802387E-01
 Spin= Alpha
 Occup= 2.000000
  1       0.102258800294
  2      -0.203626663955
  3       0.010501503551
  4      -0.080706267518
  5       0.043118795672
  6      -0.190225210905
  7       0.003560197151
  8      -0.032120899705
  9       0.016435194673
 10       0.059321297634
 11       0.023202003491
 12      -0.059358198300
 13       0.112449509726
 14       0.033075787864
 15       0.063286959487
 16      -0.044201947711
 17       0.145130845354
 18       0.015570548036
 19       0.014601287489
 20      -0.008251954171
 21       0.091599870009
 22      -0.183288449394
 23       0.016316123829
 24       0.064974408873
 25      -0.059514339472
 26      -0.177802074151
 27      -0.013899829918
 28       0.009495355232
 29      -0.019358694009
 30      -0.030726275864
 31       0.064135937241
 32      -0.195133535420
 33      -0.030060475733
 34      -0.095357339223
 35       0.053366612627
 36      -0.046873402237
 37      -0.007919302937
 38      -0.022224247045
 39      -0.086287734479
 40       0.176261251808
 41       0.021752575278
 42      -0.151847918610
 43       0.083851309995
 44       0.162782195458
 45       0.001847806240
 46      -0.050486849224
 47       0.022860541113
 48      -0.113368912077
 49      -0.048459322665
 50      -0.109529295187
 51      -0.042855030460
 52       0.059271705053
 53       0.023788412243
 54       0.061255029216
 55       0.020714331842
 56      -0.107023627458
 57      -0.043721804402
 58       0.040670813858
 59       0.018351895540
 60       0.108854323625
 61       0.044854954326
 Sym=     1a
 Ene= -7.17044209613554E-01
 Spin= Alpha
 Occup= 2.000000
  1      -0.039426727341
  2       0.079077590290
  3       0.062146334986
  4       0.197788390247
  5      -0.014089862710
  6       0.080824065793
  7       0.019710898400
  8       0.065152966988
  9      -0.008032740726
 10       0.079918098925
 11       0.044094362840
 12      -0.021832433643
 13       0.038645538466
 14      -0.019950960022
 15       0.108996377291
 16      -0.102489950969
 17       0.063468600244
 18      -0.010592839433
 19       0.039214125169
 20      -0.036883840307
 21       0.073685112384
 22      -0.149973924877
 23      -0.171906801140
 24      -0.004062927683
 25      -0.072759185491
 26      -0.153873446535
 27      -0.073236669755
 28       0.004882916381
 29      -0.035361384536
 30      -0.077772876307
 31       0.159116026656
 32      -0.029944883276
 33      -0.029240143910
 34       0.027590178537
 35       0.153203823732
 36      -0.030677810054
 37      -0.034662632594
 38       0.018497268093
 39       0.069780010955
 40      -0.141946757937
 41       0.134274294582
 42       0.028229331500
 43       0.122945952776
 44      -0.140356619420
 45       0.053676402779
 46       0.040925105639
 47       0.034510366560
 48       0.041116841580
 49       0.019916395830
 50       0.142254366894
 51       0.087308675309
 52       0.053417651724
 53       0.029464071126
 54       0.004509706411
 55      -0.000446994844
 56      -0.152169544118
 57      -0.076793473170
 58       0.101337173285
 59       0.041189188251
 60      -0.142390473472
 61      -0.068348326852
 Sym=     1a
 Ene= -6.67054992423384E-01
 Spin= Alpha
 Occup= 2.000000
  1       0.021579819381
  2      -0.042862314810
  3       0.123841235283
  4      -0.088808002110
  5       0.147518100524
  6      -0.061178180703
  7       0.052916644603
  8      -0.022238245362
  9       0.053191417670
 10       0.016029541124
 11       0.010073185614
 12       0.016459221547
 13      -0.029989559326
 14      -0.138703622782
 15      -0.067232686266
 16      -0.006181910278
 17      -0.049967591265
 18      -0.063334635208
 19      -0.023314367935
 20      -0.009490728990
 21      -0.023860380003
 22       0.050076647772
 23      -0.109710232144
 24       0.087518221222
 25      -0.129196445986
 26       0.035841066202
 27      -0.026212870213
 28       0.037091137272
 29      -0.044001489154
 30       0.020540304470
 31      -0.039637058843
 32       0.093250456516
 33       0.231445207738
 34      -0.154961780386
 35      -0.051659301516
 36       0.040329049459
 37       0.097097761630
 38      -0.062074581033
 39      -0.025298663006
 40       0.054239803476
 41       0.124991049515
 42       0.141448391477
 43       0.028512363200
 44       0.046873935807
 45       0.041196479182
 46       0.044508354517
 47       0.007017387531
 48      -0.137939253935
 49      -0.086467453635
 50      -0.000130964682
 51      -0.005469916787
 52      -0.028645397187
 53      -0.016430326254
 54      -0.094186799501
 55      -0.056864298172
 56      -0.082270652894
 57      -0.058212941493
 58      -0.187884899518
 59      -0.114269554433
 60      -0.080600078535
 61      -0.059259107437
 Sym=     1a
 Ene= -6.03982003498665E-01
 Spin= Alpha
 Occup= 2.000000
  1      -0.007190365230
  2       0.015810954464
  3       0.175398610321
  4       0.100331879484
  5       0.187944802412
  6       0.029015662823
  7       0.077930969128
  8       0.046061679006
  9       0.088003220452
 10      -0.102624622781
 11      -0.069036643014
 12       0.010334743099
 13      -0.019636496235
 14       0.107179923988
 15      -0.028552920590
 16       0.133638354867
 17      -0.031344726855
 18       0.042274335383
 19      -0.013372580813
 20       0.062574526566
 21       0.003450947737
 22      -0.009643947166
 23       0.243384174931
 24       0.027848172009
 25       0.127460357982
 26      -0.000007147621
 27       0.097485532641
 28       0.004221861791
 29       0.060965764737
 30       0.009840075498
 31      -0.021953190059
 32      -0.227624079668
 33      -0.038542146576
 34      -0.042663016020
 35       0.009163656020
 36      -0.066558213919
 37       0.003744943307
 38      -0.013577805444
 39      -0.014481052319
 40       0.033461804866
 41       0.123341089233
 42       0.065386929245
 43       0.149931455773
 44       0.023884326914
 45       0.035782092513
 46       0.015140086007
 47       0.059637952239
 48      -0.138818349079
 49      -0.096518909683
 50       0.141353163230
 51       0.091337380971
 52      -0.006811592018
 53       0.000120169329
 54       0.059557009477
 55       0.049614464969
 56       0.133132799341
 57       0.093056996950
 58       0.034315421751
 59       0.032109150784
 60      -0.088367598881
 61      -0.070329721311
 Sym=     1a
 Ene= -5.84834158046760E-01
 Spin= Alpha
 Occup= 2.000000
  1       0.007268252516
  2      -0.019435793208
  3      -0.034363086944
  4       0.285497435099
  5      -0.162716535744
  6       0.016809261856
  7      -0.008005998009
  8       0.102256859939
  9      -0.057219618024
 10      -0.018978986322
 11      -0.011098082385
 12       0.006372051367
 13      -0.007198166217
 14      -0.114613900907
 15      -0.177649016085
 16       0.063225786785
 17      -0.036883598636
 18      -0.049207783278
 19      -0.074382717795
 20       0.023882600891
 21      -0.024580469675
 22       0.050117012570
 23       0.109884801753
 24       0.142036057293
 25      -0.117661100843
 26       0.085077795942
 27       0.040975398421
 28       0.055795904683
 29      -0.053002584552
 30       0.009900509596
 31      -0.019520715049
 32      -0.109727345222
 33       0.045801086158
 34      -0.167560710552
 35      -0.020175213846
 36      -0.040206000746
 37       0.018929785631
 38      -0.072696013120
 39       0.007969342348
 40      -0.018907691845
 41       0.035142316978
 42      -0.308803174839
 43       0.126797590120
 44       0.003779519710
 45       0.004835286606
 46      -0.111657782437
 47       0.033931443154
 48       0.113266808627
 49       0.089226004518
 50       0.094839382709
 51       0.069332727778
 52      -0.068129288524
 53      -0.051319498555
 54      -0.074981259620
 55      -0.055325614685
 56      -0.019415467248
 57      -0.017078263987
 58      -0.073855297281
 59      -0.051413961656
 60       0.096637326917
 61       0.072116657677
 Sym=     1a
 Ene= -5.67270381958944E-01
 Spin= Alpha
 Occup= 2.000000
  1       0.005093849877
  2      -0.010231910854
  3      -0.030635142859
  4       0.019115920052
  5      -0.007673913144
  6      -0.014190020373
  7      -0.016632443964
  8       0.003274996103
  9       0.005053065676
 10      -0.137260565915
 11      -0.107202200418
 12       0.000455272881
 13      -0.001934055995
 14      -0.188026695297
 15       0.249204838392
 16       0.274888043464
 17      -0.000412031287
 18      -0.093076158615
 19       0.127575764357
 20       0.139142618656
 21      -0.005392337398
 22       0.008780036816
 23      -0.056232711281
 24       0.100266722528
 25       0.068244352577
 26       0.029927456727
 27      -0.036120750574
 28       0.047499021109
 29       0.031805735186
 30       0.002992991425
 31      -0.003737638893
 32      -0.013960123581
 33       0.045969912264
 34       0.054012141347
 35      -0.022886879600
 36      -0.021568634192
 37       0.021683967252
 38       0.036467981645
 39      -0.000832850846
 40       0.002116408364
 41      -0.053471204479
 42      -0.032115594193
 43       0.006454353499
 44       0.002994223453
 45      -0.025852077148
 46      -0.015210047459
 47       0.004424972441
 48       0.012181839579
 49       0.011850457300
 50       0.000710235404
 51       0.010965030468
 52       0.254246411688
 53       0.198186812930
 54      -0.132607055406
 55      -0.103181727404
 56      -0.013643330440
 57      -0.011510121170
 58      -0.003215712634
 59      -0.006079107547
 60       0.037826080072
 61       0.028072141070
 Sym=     1a
 Ene= -5.41025731812565E-01
 Spin= Alpha
 Occup= 2.000000
  1      -0.011250979342
  2       0.024952982892
  3      -0.141552167753
  4      -0.074067575614
  5      -0.108435054941
  6       0.010692667378
  7      -0.089663730809
  8      -0.034372074828
  9      -0.065393143768
 10      -0.186614915371
 11      -0.145319764995
 12      -0.005825072354
 13       0.014942078057
 14       0.229518346755
 15      -0.062011368958
 16       0.213646232432
 17      -0.005886158587
 18       0.138867246806
 19      -0.027996642476
 20       0.114890776635
 21       0.007822589157
 22      -0.015492286534
 23      -0.066677999048
 24       0.095329829952
 25      -0.095063709935
 26      -0.016221576938
 27      -0.042932828085
 28       0.061689337104
 29      -0.062345809406
 30      -0.035286465898
 31       0.078808664808
 32      -0.015644618151
 33       0.101965644314
 34      -0.072969155320
 35       0.072122419285
 36      -0.013245169765
 37       0.023204215837
 38      -0.011764475549
 39       0.008029455424
 40      -0.014742421026
 41       0.109568310408
 42       0.086784925821
 43       0.080758430917
 44      -0.016130817524
 45       0.070680999931
 46       0.063761922449
 47       0.049504210192
 48       0.127133528628
 49       0.090986330894
 50      -0.115972191014
 51      -0.088922580045
 52      -0.017725941201
 53      -0.016204526931
 54       0.170841699172
 55       0.131644841601
 56      -0.110594918716
 57      -0.074962039542
 58      -0.033919906875
 59      -0.043512649927
 60      -0.119422842420
 61      -0.081345824623
 Sym=     1a
 Ene= -5.07072852297428E-01
 Spin= Alpha
 Occup= 2.000000
  1      -0.011716159987
  2       0.026477943095