[Molden Format]
[Title]
 Molden file created by orca_2mkl for BaseName=h-shift_040

[Atoms] AU
C    1   6          0.1667418752         0.0363394336        -0.0898300215 
H    2   1          2.1977269273        -0.0786390633        -0.3791111878 
C    3   6          4.6472163983         0.0576933389         2.5914192420 
C    4   6          3.6593904076        -2.0940074187         3.4974200910 
C    5   6          1.0558901465        -3.0021077535         3.3195061549 
C    6   6         -0.4878063453        -2.2045469489         1.4774842675 
H    7   1         -0.8570134784         0.1231817980        -1.8443651478 
H    8   1         -0.0561305354         1.8221627555         0.8927047359 
H    9   1          3.6145812216         1.7850542034         2.4283831198 
H   10   1          6.5752850754         0.1421735457         1.9809847884 
H   11   1          4.9640800072        -3.5112358788         4.1284242135 
H   12   1          0.5984082365        -4.6973697299         4.3375450870 
H   13   1         -2.0490394956        -3.3680910138         0.9038030975 
[GTO]
  1 0
s   6 1.0 
     3047.5249000000         0.5363343823
      457.3695100000         0.9894506076
      103.9486900000         1.5972822308
       29.2101550000         2.0791870615
        9.2866630000         1.7741742532
        3.1639270000         0.6125798260
s   3 1.0 
        7.8682724000        -0.3995563516
        1.8812885000        -0.1841552393
        0.5442493000         0.5163903794
p   3 1.0 
        7.8682724000         1.2960827175
        1.8812885000         0.9937536282
        0.5442493000         0.4959527138
s   1 1.0 
        0.1687144000         0.1876178721
p   1 1.0 
        0.1687144000         0.1541275509

  2 0
s   3 1.0 
       18.7311370000         0.2149354183
        2.8253937000         0.3645711272
        0.6401217000         0.4150514277
s   1 1.0 
        0.1612778000         0.1813806839

  3 0
s   6 1.0 
     3047.5249000000         0.5363343823
      457.3695100000         0.9894506076
      103.9486900000         1.5972822308
       29.2101550000         2.0791870615
        9.2866630000         1.7741742532
        3.1639270000         0.6125798260
s   3 1.0 
        7.8682724000        -0.3995563516
        1.8812885000        -0.1841552393
        0.5442493000         0.5163903794
p   3 1.0 
        7.8682724000         1.2960827175
        1.8812885000         0.9937536282
        0.5442493000         0.4959527138
s   1 1.0 
        0.1687144000         0.1876178721
p   1 1.0 
        0.1687144000         0.1541275509

  4 0
s   6 1.0 
     3047.5249000000         0.5363343823
      457.3695100000         0.9894506076
      103.9486900000         1.5972822308
       29.2101550000         2.0791870615
        9.2866630000         1.7741742532
        3.1639270000         0.6125798260
s   3 1.0 
        7.8682724000        -0.3995563516
        1.8812885000        -0.1841552393
        0.5442493000         0.5163903794
p   3 1.0 
        7.8682724000         1.2960827175
        1.8812885000         0.9937536282
        0.5442493000         0.4959527138
s   1 1.0 
        0.1687144000         0.1876178721
p   1 1.0 
        0.1687144000         0.1541275509

  5 0
s   6 1.0 
     3047.5249000000         0.5363343823
      457.3695100000         0.9894506076
      103.9486900000         1.5972822308
       29.2101550000         2.0791870615
        9.2866630000         1.7741742532
        3.1639270000         0.6125798260
s   3 1.0 
        7.8682724000        -0.3995563516
        1.8812885000        -0.1841552393
        0.5442493000         0.5163903794
p   3 1.0 
        7.8682724000         1.2960827175
        1.8812885000         0.9937536282
        0.5442493000         0.4959527138
s   1 1.0 
        0.1687144000         0.1876178721
p   1 1.0 
        0.1687144000         0.1541275509

  6 0
s   6 1.0 
     3047.5249000000         0.5363343823
      457.3695100000         0.9894506076
      103.9486900000         1.5972822308
       29.2101550000         2.0791870615
        9.2866630000         1.7741742532
        3.1639270000         0.6125798260
s   3 1.0 
        7.8682724000        -0.3995563516
        1.8812885000        -0.1841552393
        0.5442493000         0.5163903794
p   3 1.0 
        7.8682724000         1.2960827175
        1.8812885000         0.9937536282
        0.5442493000         0.4959527138
s   1 1.0 
        0.1687144000         0.1876178721
p   1 1.0 
        0.1687144000         0.1541275509

  7 0
s   3 1.0 
       18.7311370000         0.2149354183
        2.8253937000         0.3645711272
        0.6401217000         0.4150514277
s   1 1.0 
        0.1612778000         0.1813806839

  8 0
s   3 1.0 
       18.7311370000         0.2149354183
        2.8253937000         0.3645711272
        0.6401217000         0.4150514277
s   1 1.0 
        0.1612778000         0.1813806839

  9 0
s   3 1.0 
       18.7311370000         0.2149354183
        2.8253937000         0.3645711272
        0.6401217000         0.4150514277
s   1 1.0 
        0.1612778000         0.1813806839

 10 0
s   3 1.0 
       18.7311370000         0.2149354183
        2.8253937000         0.3645711272
        0.6401217000         0.4150514277
s   1 1.0 
        0.1612778000         0.1813806839

 11 0
s   3 1.0 
       18.7311370000         0.2149354183
        2.8253937000         0.3645711272
        0.6401217000         0.4150514277
s   1 1.0 
        0.1612778000         0.1813806839

 12 0
s   3 1.0 
       18.7311370000         0.2149354183
        2.8253937000         0.3645711272
        0.6401217000         0.4150514277
s   1 1.0 
        0.1612778000         0.1813806839

 13 0
s   3 1.0 
       18.7311370000         0.2149354183
        2.8253937000         0.3645711272
        0.6401217000         0.4150514277
s   1 1.0 
        0.1612778000         0.1813806839

[5D]
[7F]
[9G]
[MO]
 Sym=     1a
 Ene= -1.12372163067558E+01
 Spin= Alpha
 Occup= 2.000000
  1       0.000838002845
  2      -0.000010060557
  3       0.000022268458
  4       0.000076059691
  5      -0.000051492412
  6      -0.000010649104
  7      -0.000531088963
  8      -0.000364895384
  9       0.000223716470
 10      -0.000118974292
 11       0.000832471632
 12       0.050438536641
 13       0.000581707732
 14       0.000087620271
 15       0.000200655233
 16      -0.000153262722
 17       0.004828048762
 18      -0.001645587046
 19      -0.002098064575
 20       0.001047983112
 21       0.989675080920
 22       0.024740386813
 23      -0.000025336427
 24       0.000080581280
 25      -0.000216954542
 26      -0.017024775419
 27       0.000909436874
 28      -0.001278934697
 29       0.001157337997
 30       0.054795083194
 31       0.000674020845
 32      -0.000167740253
 33      -0.000078827868
 34      -0.000005811496
 35       0.003653796676
 36       0.002055080163
 37       0.001283481423
 38      -0.000039825906
 39       0.085248738804
 40       0.001790169714
 41      -0.000122572572
 42       0.000037685156
 43      -0.000080882444
 44      -0.001087387510
 45       0.000442187595
 46      -0.000343958237
 47       0.000406484008
 48       0.000000216408
 49      -0.000005273763
 50       0.000019606201
 51      -0.000008296974
 52      -0.000247820726
 53       0.000142541149
 54      -0.000084383840
 55       0.000550050140
 56      -0.000223248087
 57       0.002287184148
 58      -0.000078948269
 59       0.000351867910
 60       0.000022616215
 61       0.000501458440
 Sym=     1a
 Ene= -1.12368739556755E+01
 Spin= Alpha
 Occup= 2.000000
  1       0.012150289156
  2      -0.000071695964
  3       0.000049868204
  4       0.000159305206
  5      -0.000037699869
  6       0.003608940790
  7      -0.000349064495
  8      -0.002185353583
  9       0.001340079395
 10      -0.000162934888
 11       0.000458449869
 12      -0.005100172476
 13      -0.000022173543
 14       0.000016084378
 15      -0.000020453365
 16       0.000000647098
 17      -0.000457197402
 18       0.000155530949
 19       0.000365114146
 20       0.000070273213
 21      -0.090114185952
 22      -0.002542283863
 23       0.000155872285
 24       0.000073950589
 25       0.000060735042
 26       0.001689586187
 27      -0.000098335479
 28      -0.000129894281
 29      -0.000154528073
 30       0.094166272365
 31       0.001514381183
 32       0.000150135290
 33      -0.000108762943
 34       0.000145517778
 35       0.004551962952
 36      -0.001360045474
 37       0.001541837112
 38      -0.002261429458
 39       0.987490723929
 40       0.024720134928
 41       0.000263911525
 42       0.000001370020
 43       0.000038860047
 44      -0.017219863773
 45      -0.002277849312
 46      -0.000930447319
 47      -0.000399035964
 48      -0.000084797656
 49       0.000140716182
 50      -0.000208518534
 51       0.000804109552
 52       0.000059496787
 53      -0.000341024560
 54       0.000027197868
 55      -0.000015194122
 56       0.000008435992
 57      -0.000198454215
 58      -0.000071481405
 59       0.000621417721
 60      -0.000250972140
 61       0.002082522162
 Sym=     1a
 Ene= -1.12288195819113E+01
 Spin= Alpha
 Occup= 2.000000
  1       0.002133126894
  2       0.000071883415
  3      -0.000028408862
  4      -0.000080400941
  5       0.000138270437
  6       0.001553825122
  7       0.000106512876
  8      -0.000620045770
  9       0.000079207339
 10       0.000006565143
 11      -0.000245917742
 12       0.006413399956
 13       0.000253948101
 14      -0.000122814344
 15      -0.000096904777
 16       0.000080303819
 17       0.000946316849
 18      -0.000145162537
 19      -0.000199802074
 20      -0.000229704473
 21       0.046226240318
 22       0.001821974622
 23      -0.000175921061
 24      -0.000062869341
 25      -0.000046203806
 26      -0.006399164494
 27       0.002736665356
 28       0.000140664854
 29       0.000952705013
 30      -0.990191914262
 31      -0.025178984140
 32      -0.000159261597
 33      -0.000128429441
 34       0.000345521125
 35       0.019590854058
 36       0.000921581008
 37       0.002264613097
 38      -0.002839231652
 39       0.099190890269
 40       0.003425998425
 41       0.000171993922
 42      -0.000029878465
 43       0.000150804438
 44      -0.009190643672
 45      -0.003034745301
 46       0.000031712832
 47      -0.001830517978
 48      -0.000076343080
 49      -0.000285815659
 50       0.000025774489
 51       0.000132088129
 52       0.000020890664
 53      -0.000108436200
 54      -0.000057453234
 55      -0.000228845627
 56       0.000097508049
 57      -0.000278232893
 58       0.000254871175
 59      -0.001818780800
 60       0.000070788745
 61      -0.000181553964
 Sym=     1a
 Ene= -1.12218684868527E+01
 Spin= Alpha
 Occup= 2.000000
  1       0.000239172688
  2       0.000059682951
  3       0.000051939578
  4       0.000026876440
  5       0.000167372576
  6       0.000466229613
  7       0.000500279549
  8      -0.000050346536
  9      -0.001395052158
 10       0.000019904773
 11      -0.002282029630
 12      -0.994866828261
 13      -0.025320389010
 14       0.000177460608
 15       0.000190435726
 16       0.000128772816
 17       0.017850319252
 18      -0.001439206875
 19      -0.001592545631
 20      -0.000028483617
 21       0.051465412695
 22       0.002065702409
 23       0.000128025064
 24       0.000245860665
 25      -0.000060563981
 26      -0.007011427183
 27      -0.001059638776
 28      -0.002747546821
 29       0.001224106460
 30      -0.004083781158
 31      -0.000035648679
 32       0.000118089573
 33       0.000082020928
 34       0.000003654021
 35       0.000337725170
 36      -0.000227487126
 37      -0.000105796280
 38      -0.000094109508
 39      -0.000127215036
 40      -0.000079373110
 41       0.000048476501
 42       0.000016175462
 43       0.000000171280
 44       0.000532985153
 45       0.000165611214
 46       0.000553688039
 47      -0.000087783179
 48      -0.000126514303
 49      -0.000598925917
 50       0.000037761058
 51       0.000740551864
 52       0.000004502318
 53      -0.002949877753
 54       0.000151884852
 55      -0.002741976983
 56       0.000114872940
 57      -0.000039176770
 58      -0.000035059078
 59      -0.000268572237
 60       0.000023783864
 61       0.000115462707
 Sym=     1a
 Ene= -1.12087251204348E+01
 Spin= Alpha
 Occup= 2.000000
  1       0.996123354027
  2       0.026319701747
  3       0.000051228021
  4      -0.000049605847
  5       0.000168903645
  6      -0.019641731740
  7      -0.000338516306
  8       0.000819365630
  9      -0.001003693057
 10       0.000044009636
 11       0.003782629177
 12       0.000241626338
 13      -0.000076034474
 14       0.000148894441
 15      -0.000044047709
 16      -0.000041954994
 17       0.000326584536
 18      -0.001028178139
 19      -0.000005905302
 20       0.000500192211
 21       0.000167503212
 22       0.000015236227
 23       0.000053805886
 24      -0.000043977865
 25       0.000048841850
 26      -0.000782082255
 27       0.000151317765
 28      -0.000373890144
 29       0.000103810394
 30       0.000904987287
 31      -0.000193586309
 32       0.000052754945
 33      -0.000084437055
 34       0.000088837019
 35       0.000642917105
 36      -0.000213551370
 37       0.000542010886
 38      -0.000527433424
 39      -0.012499526401
 40      -0.000761284403
 41      -0.000011251256
 42      -0.000103663155
 43       0.000091875275
 44       0.004349544697
 45       0.000248845632
 46       0.002131489078
 47      -0.001731697933
 48       0.000014229703
 49       0.003001353736
 50       0.000069108067
 51       0.003398768772
 52      -0.000028386728
 53      -0.000446524224
 54       0.000141414589
 55       0.000540497673
 56      -0.000018983633
 57       0.000017566106
 58       0.000048360454
 59       0.000495542920
 60      -0.000157919728
 61      -0.000027362918
 Sym=     1a
 Ene= -1.11024429519913E+00
 Spin= Alpha
 Occup= 2.000000
  1      -0.074540842332
  2       0.136533513280
  3       0.004804230057
  4      -0.036110323164
  5       0.031729733391
  6       0.132810821182
  7       0.012410002423
  8      -0.004669157633
  9       0.014882844050
 10       0.048430774056
 11      -0.001555530975
 12      -0.073332750598
 13       0.141326653185
 14      -0.034664534130
 15      -0.050371204191
 16       0.015715359272
 17       0.100969568385
 18      -0.000894029025
 19      -0.002784549119
 20      -0.004285462430
 21      -0.107647574576
 22       0.212480087506
 23      -0.034494277456
 24       0.021486919514
 25      -0.029297240434
 26       0.135618297118
 27      -0.007219021469
 28       0.000949182656
 29      -0.004605473019
 30      -0.122718671077
 31       0.241764900145
 32       0.005882091196
 33       0.040217602818
 34      -0.058188198490
 35       0.158890277964
 36       0.003726665303
 37       0.002210280540
 38      -0.005289281851
 39      -0.113636484692
 40       0.225367560064
 41       0.063910774086
 42       0.002059622001
 43       0.034220583277
 44       0.132503952589
 45      -0.001496792070
 46      -0.004516393215
 47      -0.000937848166
 48       0.032948918051
 49       0.007154334591
 50       0.037128472947
 51      -0.000463486228
 52       0.039373526074
 53       0.005475954665
 54       0.031689432761
 55       0.000434575004
 56       0.051198577126
 57       0.008408303533
 58       0.055104623013
 59       0.006120929820
 60       0.051052789408
 61       0.003710016749
 Sym=     1a
 Ene= -1.01595946984814E+00
 Spin= Alpha
 Occup= 2.000000
  1      -0.096161506794
  2       0.183706966844
  3      -0.013839182226
  4      -0.035565404838
  5       0.023229628049
  6       0.169905576143
  7      -0.002373079787
  8      -0.002087411765
  9       0.003470057952
 10       0.044995742808
 11       0.004737779118
 12       0.124366057424
 13      -0.242644467367
 14       0.023941110642
 15       0.075358370028
 16      -0.031268809057
 17      -0.195329997311
 18       0.005647586161
 19       0.003899279794
 20      -0.001468566786
 21       0.118592445696
 22      -0.237015466062
 23      -0.056911508152
 24      -0.070291426266
 25       0.028845707252
 26      -0.167611700758
 27      -0.010093764843
 28       0.005387620691
 29      -0.001986316737
 30      -0.019250216482
 31       0.037597182468
 32      -0.095182428407
 33       0.001220380625
 34      -0.056642774916
 35       0.025784683295
 36      -0.010856588554
 37      -0.008978063150
 38      -0.000871232707
 39      -0.101576990528
 40       0.202428242115
 41       0.017660639319
 42       0.022507606945
 43      -0.014035401499
 44       0.149681770870
 45       0.003341324673
 46       0.002880480775
 47      -0.003303378377
 48       0.057333808399
 49       0.009805221848
 50       0.053863022971
 51       0.004859190116
 52      -0.063290396722
 53      -0.005980667072
 54      -0.072355578220
 55      -0.016476473003
 56      -0.072590541666
 57      -0.013295366274
 58       0.009454178989
 59      -0.002290375513
 60       0.062464537563
 61       0.015736839944
 Sym=     1a
 Ene= -9.44795787747540E-01
 Spin= Alpha
 Occup= 2.000000
  1       0.135756661093
  2      -0.253848701000
  3      -0.012533410352
  4      -0.019995297134
  5       0.010510412986
  6      -0.291017651428
  7      -0.010730940639
  8      -0.000588733035
  9      -0.008033390769
 10      -0.102369340753
 11      -0.018528842619
 12       0.079383547352
 13      -0.152927823465
 14       0.005367517583
 15      -0.000047676631
 16       0.004432254730
 17      -0.145908123498
 18       0.007761618303
 19      -0.002390732659
 20       0.007070482815
 21      -0.008619104107
 22       0.018179455359
 23      -0.093368389048
 24      -0.090580188806
 25       0.025441223677
 26       0.020180649575
 27      -0.019932335974
 28      -0.004645046129
 29      -0.000262687658
 30      -0.121500218296
 31       0.241801453361
 32      -0.020288307690
 33      -0.017521949721
 34      -0.022190394306
 35       0.188606856667
 36       0.000683842777
 37      -0.017677625199
 38       0.006445223483
 39      -0.028246386546
 40       0.053216256873
 41       0.037576192242
 42      -0.113630476481
 43       0.123559951119
 44       0.073206734261
 45       0.012338370253
 46      -0.006699327377
 47       0.016768867093
 48      -0.096140798822
 49      -0.028064955046
 50      -0.098057257319
 51      -0.023353643750
 52      -0.065802046216
 53      -0.019648858689
 54      -0.056989392058
 55      -0.018081949220
 56       0.011835552813
 57       0.008532653216
 58       0.092689618958
 59       0.024948972271
 60       0.020607500902
 61       0.008814686012
 Sym=     1a
 Ene= -8.11066683835504E-01
 Spin= Alpha
 Occup= 2.000000
  1      -0.066735832289
  2       0.127456426319
  3       0.015020713813
  4       0.067887030742
  5      -0.043663809100
  6       0.157342037378
  7      -0.002916815469
  8       0.015458262473
  9      -0.016385662243
 10       0.051284162533
 11       0.021425296670
 12       0.101287032598
 13      -0.200285731965
 14      -0.042570617292
 15      -0.077853089627
 16       0.029887333601
 17      -0.196293634577
 18      -0.014499358801
 19      -0.030085193290
 20       0.013815510574
 21      -0.085083675529
 22       0.173404175515
 23      -0.070058424915
 24      -0.145433413136
 25       0.048822890767
 26       0.164932484703
 27      -0.018417577107
 28      -0.047275410540
 29       0.015779081242
 30      -0.023505976402
 31       0.048472070245
 32       0.189132780217
 33      -0.014436108862
 34       0.104196294770
 35       0.039601181965
 36       0.043175555385
 37      -0.003700108459
 38       0.024371113150
 39       0.092215456302
 40      -0.185386018084
 41       0.035790608893
 42       0.083664137072
 43      -0.043665417780
 44      -0.183301318534
 45       0.022527395604
 46       0.018498966653
 47       0.001704147345
 48       0.069932287097
 49       0.024304913938
 50       0.068675774068
 51       0.027907363262
 52      -0.108184481825
 53      -0.041191441340
 54      -0.113443384176
 55      -0.047866623818
 56       0.108950838495
 57       0.045975215730
 58       0.032105270158
 59       0.015240922998
 60      -0.110511262248
 61      -0.044204164108
 Sym=     1a
 Ene= -7.25024628374118E-01
 Spin= Alpha
 Occup= 2.000000
  1       0.015668566784
  2      -0.023905876460
  3      -0.107241369634
  4      -0.115606134093
  5       0.007863380115
  6      -0.054018589684
  7      -0.046840717078
  8      -0.041009593656
  9      -0.005200991065
 10      -0.078274553437
 11      -0.039175752590
 12       0.033109514293
 13      -0.063642265762
 14       0.028659572267
 15      -0.191334615735
 16       0.071053317897
 17      -0.077819489363
 18       0.013427148334
 19      -0.060508739878
 20       0.030224655694
 21      -0.070348032284
 22       0.142162196769
 23       0.178130625660
 24      -0.016098277403
 25       0.018926526187
 26       0.146982045457
 27       0.056122088608
 28      -0.031247305338
 29       0.014308766938
 30       0.080022402221
 31      -0.163065394549
 32       0.008356649015
 33       0.034447831225
 34      -0.037605572972
 35      -0.167624474327
 36      -0.001116298401
 37       0.034009159873
 38      -0.028693355286
 39      -0.074482238750
 40       0.151082756116
 41      -0.138780917573
 42      -0.007997730635
 43      -0.130089916586
 44       0.162989864407
 45      -0.054530353551
 46      -0.011259474487
 47      -0.047286369994
 48       0.010119267238
 49       0.005540727230
 50      -0.061219177562
 51      -0.031790409604
 52      -0.135904419698
 53      -0.080565626457
 54      -0.033850798927
 55      -0.016387011278
 56       0.136392330228
 57       0.065531977604
 58      -0.104811015530
 59      -0.042622061816
 60       0.151760496694
 61       0.077344543510
 Sym=     1a
 Ene= -6.72931276301811E-01
 Spin= Alpha
 Occup= 2.000000
  1      -0.021321828921
  2       0.041242398008
  3      -0.083662481148
  4       0.075661740141
  5      -0.125042391826
  6       0.059005922172
  7      -0.042164116915
  8       0.026810666261
  9      -0.056930492344
 10      -0.022350973439
 11      -0.015268962386
 12      -0.023201655864
 13       0.046288885425
 14       0.174708350563
 15       0.078972468894
 16      -0.043334506275
 17       0.065152867012
 18       0.065606165061
 19       0.020242309976
 20      -0.010664591924
 21       0.023530479384
 22      -0.048519010954
 23       0.098114521415
 24      -0.132316445390
 25       0.082244177378
 26      -0.047405023622
 27       0.035862077959
 28      -0.044050086215
 29       0.031968455872
 30      -0.023110835280
 31       0.043961154545
 32      -0.051574630294
 33      -0.240586150540
 34       0.160599913806
 35       0.070549376067
 36      -0.018815965072
 37      -0.097180343382
 38       0.060988295216
 39       0.021687020000
 40      -0.044470899874
 41      -0.159878027220
 42      -0.099813102609
 43      -0.047232621458
 44      -0.033707219668
 45      -0.054114402885
 46      -0.037899622985
 47      -0.009937946142
 48       0.108267181446
 49       0.062733842304
 50       0.028997067681
 51       0.018816963420
 52       0.012824945216
 53       0.013275751624
 54       0.127322357332
 55       0.080096193524
 56       0.078483582292
 57       0.054459235239
 58       0.188361245180
 59       0.113223555276
 60       0.084848572758
 61       0.057469401603
 Sym=     1a
 Ene= -5.98904517342249E-01
 Spin= Alpha
 Occup= 2.000000
  1       0.012160624372
  2      -0.024761415619
  3      -0.115775150498
  4      -0.018767408648
  5      -0.064532744335
  6      -0.027896202970
  7      -0.046495432994
  8      -0.011734009904
  9      -0.017078855527
 10      -0.063197424571
 11      -0.045483177044
 12      -0.008724360584
 13       0.019281058346
 14      -0.284473113324
 15       0.115293559966
 16       0.069743235022
 17       0.034658689999
 18      -0.134713225646
 19       0.056418576559
 20       0.032819986500
 21      -0.019234556152
 22       0.044961510385
 23      -0.174065529074
 24       0.098811046097
 25       0.009784277470
 26       0.025465807508
 27      -0.055346303447
 28       0.024849803771
 29       0.020485662504
 30       0.008775260347
 31      -0.020969166032
 32       0.141704540264
 33      -0.029312516464
 34       0.142012781104
 35       0.022894069748
 36       0.045337278985
 37       0.015315244492
 38       0.035368587942
 39       0.003072089444
 40      -0.007619769889
 41      -0.213205578302
 42      -0.032000234123
 43      -0.142233733697
 44      -0.012237088920
 45      -0.104390181876
 46      -0.026612502527
 47      -0.059032569874
 48       0.059297714779
 49       0.052017389496
 50      -0.026139727712
 51      -0.011964835960
 52       0.152701827889
 53       0.098792725340
 54      -0.168573155971
 55      -0.117324901581
 56      -0.088971568125
 57      -0.074410558517
 58       0.030203823006
 59       0.033005619766
 60       0.137907479688
 61       0.092693301300
 Sym=     1a
 Ene= -5.83692735550282E-01
 Spin= Alpha
 Occup= 2.000000
  1      -0.008658957120
  2       0.012040467693
  3      -0.023763069469
  4       0.220270206885
  5      -0.069540966765
  6       0.041901455448
  7      -0.015176626591
  8       0.092877596914
  9      -0.023767129879
 10      -0.014129020625
 11      -0.012093099021
 12      -0.006199591140
 13       0.017761415633
 14      -0.124733363118
 15      -0.263545274064
 16       0.129532867119
 17      -0.017478754516
 18      -0.042776836024
 19      -0.097570622581
 20       0.051592536573
 21      -0.007154989073
 22       0.017971042098
 23       0.146870039476
 24       0.282363906078
 25      -0.078837289024
 26      -0.004577427295
 27       0.043278626820
 28       0.101330841320
 29      -0.023520850837
 30      -0.011543798928
 31       0.023711501033
 32      -0.220274475865
 33      -0.052984549232
 34      -0.016483072893
 35       0.026782649145
 36      -0.089034735225
 37      -0.022553708905
 38       0.001302457983
 39       0.020297016967
 40      -0.040664383139
 41      -0.018042125939
 42      -0.129112218842
 43       0.176098930322
 44      -0.074343946443
 45      -0.013674999065
 46      -0.048711504761
 47       0.071024552665
 48       0.061146106474
 49       0.044867841126
 50       0.109372229360
 51       0.082511134822
 52      -0.098543750760
 53      -0.069441956828
 54      -0.101203339672
 55      -0.077777782208
 56      -0.074314361787
 57      -0.056305197580
 58       0.068472456479
 59       0.046841419836
 60      -0.001936258319
 61       0.001767084743
 Sym=     1a
 Ene= -5.63303726265882E-01
 Spin= Alpha
 Occup= 2.000000
  1      -0.004063200590
  2       0.009894762484
  3       0.123152098174
  4      -0.199357758529
  5      -0.306818375510
  6       0.000805876302
  7       0.053937764682
  8      -0.103819549572
  9      -0.161232077955
 10       0.133216682266
 11       0.117809977017
 12      -0.006694527126
 13       0.014197357558
 14      -0.005191253279
 15      -0.108055420563
 16      -0.023329566140
 17       0.006021592936
 18       0.014995881180
 19      -0.043049919770
 20      -0.023494065730
 21       0.005424324040
 22      -0.013099450217
 23      -0.037168936333
 24       0.087711794893
 25      -0.100161926213
 26      -0.011418906097
 27      -0.034868055671
 28       0.048572365927
 29      -0.057565741688
 30      -0.011843536296
 31       0.024314540513
 32       0.025686216548
 33      -0.054434813116
 34      -0.043121918949
 35       0.019604597680
 36       0.012679940153
 37      -0.044127934405
 38      -0.025437316222
 39       0.018696227562
 40      -0.039487358304
 41       0.063999928973
 42      -0.095958372259
 43      -0.061748495323
 44      -0.048818434501
 45       0.043119914335
 46      -0.038766723540
 47      -0.030888517315
 48       0.136488218737
 49       0.100841371023
 50      -0.224999491560
 51      -0.178571051144
 52      -0.061771622308
 53      -0.056072640622
 54       0.006242673689
 55      -0.003874796266
 56      -0.085714987046
 57      -0.055990079882
 58       0.025885370290
 59       0.013298524839
 60      -0.010057750675
 61      -0.000431957083
 Sym=     1a
 Ene= -5.49698402839886E-01
 Spin= Alpha
 Occup= 2.000000
  1      -0.006878970528
  2       0.018784932724
  3      -0.326461387732
  4      -0.030992790487
  5      -0.068448483412
  6      -0.017462175821
  7      -0.178401013139
  8      -0.009899156193
  9      -0.056348085545
 10      -0.204674525460
 11      -0.159877562085
 12      -0.019468041687
 13       0.043272326454
 14       0.141848639415
 15      -0.044884523315
 16       0.007978640528
 17       0.030066414332
 18       0.093978883428
 19      -0.020746500291
 20       0.010486442161
 21       0.005315440619
 22      -0.009439392038
 23      -0.154269293265
 24       0.083772878141
 25      -0.028337767966
 26      -0.000517985954
 27      -0.092272325006
 28       0.063595357145
 29      -0.015137990351
 30      -0.033820946288
 31       0.075129066965
 32       0.069346134606
 33       0.124080033796
 34       0.002552036644
 35       0.067776105740
 36       0.011339369283
 37       0.033244680849
 38       0.016778859235
 39       0.005350888298
 40      -0.011316801000
 41       0.067501583040
 42       0.140135070087
 43       0.025981352529
 44      -0.001531365189
 45       0.052510717327
 46       0.093746081487
 47       0.018441721456
 48       0.161682640065
 49       0.119149780281
 50      -0.008201603258
 51       0.000357433368
 52      -0.071127465364
 53      -0.052222401977
 54       0.116363398150
 55       0.080547683044
 56      -0.121620923760
 57      -0.081788383637
 58      -0.036191810367
 59      -0.043127344267
 60      -0.101290240581
 61      -0.061538001109
 Sym=     1a
 Ene= -5.08451201517428E-01
 Spin= Alpha
 Occup= 2.000000
  1       0.016330531943
  2      -0.035703060340