
                                 *****************
                                 * O   R   C   A *
                                 *****************

                                            #,                                       
                                            ###                                      
                                            ####                                     
                                            #####                                    
                                            ######                                   
                                           ########,                                 
                                     ,,################,,,,,                         
                               ,,#################################,,                 
                          ,,##########################################,,             
                       ,#########################################, ''#####,          
                    ,#############################################,,   '####,        
                  ,##################################################,,,,####,       
                ,###########''''           ''''###############################       
              ,#####''   ,,,,##########,,,,          '''####'''          '####       
            ,##' ,,,,###########################,,,                        '##       
           ' ,,###''''                  '''############,,,                           
         ,,##''                                '''############,,,,        ,,,,,,###''
      ,#''                                            '''#######################'''  
     '                                                          ''''####''''         
             ,#######,   #######,   ,#######,      ##                                
            ,#'     '#,  ##    ##  ,#'     '#,    #''#        ,####,    ,#,          
            ##       ##  ##   ,#'  ##            #'  '#       #'       ,# #          
            ##       ##  #######   ##           ,######,      #####,      #          
            '#,     ,#'  ##    ##  '#,     ,#' ,#      #,     #,   #      #          
             '#######'   ##     ##  '#######'  #'      '#     '####' #    #          



                #########################################################
                #                        -***-                          #
                #          Department of theory and spectroscopy        #
                #                                                       #
                #                      Frank Neese                      #
                #                                                       #
                #     Directorship, Architecture, Infrastructure        #
                #                    SHARK, DRIVERS                     #
                #        Core code/Algorithms in most modules           #
                #                                                       #
                #        Max Planck Institute fuer Kohlenforschung      #
                #                Kaiser Wilhelm Platz 1                 #
                #                 D-45470 Muelheim/Ruhr                 #
                #                      Germany                          #
                #                                                       #
                #                  All rights reserved                  #
                #                        -***-                          #
                #########################################################


                         Program Version 6.1.0  -  RELEASE   -
                                (GIT: $679e74b$)
                          ($2025-06-10 18:02:51 +0200$)


 With contributions from (in alphabetic order):
[Max-Planck-Institut fuer Kohlenforschung]                               
  Daniel Aravena         : Magnetic Suceptibility                        
  Michael Atanasov       : Ab Initio Ligand Field Theory (pilot matlab implementation)
  Alexander A. Auer      : GIAO ZORA, VPT2 properties, NMR spectrum      
  Ute Becker             : All parallelization in ORCA, NUMFREQ, NUMCALC 
  Giovanni Bistoni       : ED, misc. LED, open-shell LED, HFLD           
  Dmytro Bykov           : pre 5.0 version of the SCF Hessian            
  Marcos Casanova-Páez   : Triplet and SCS-CIS(D). UHF-(DLPNO)-IP/EA/STEOM-CCSD. UHF-CVS-IP/STEOM-CCSD   
  Vijay G. Chilkuri      : MRCI spin determinant printing, contributions to CSF-ICE 
  Pauline Colinet        : FMM embedding                                 
  Dipayan Datta          : RHF DLPNO-CCSD density                        
  Achintya Kumar Dutta   : EOM-CC, STEOM-CC                              
  Nicolas Foglia         : Exact transition moments, OPA infrastructure, MCD improvements    
  Dmitry Ganyushin       : Spin-Orbit,Spin-Spin,Magnetic field MRCI      
  Miquel Garcia-Rates    : C-PCM and meta-GGA Hessian, CCSD/C-PCM, Gaussian charge scheme 
  Tiago L. C. Gouveia    : GS-ROHF, GS-ROCIS                             
  Yang Guo               : DLPNO-NEVPT2, F12-NEVPT2, CIM, IAO-localization        
  Andreas Hansen         : Spin unrestricted coupled pair/coupled cluster methods 
  Ingolf Harden          : AUTO-CI MPn and infrastructure                
  Benjamin Helmich-Paris : MC-RPA, TRAH-(SCF,CASSCF), AVAS, COSX integrals, SCF dyn. polar., MC-PDFT, srDFT 
  Lee Huntington         : MR-EOM, pCC                                   
  Robert Izsak           : Overlap fitted RIJCOSX, COSX-SCS-MP3, EOM     
  Riya Kayal             : Wick's Theorem for AUTO-CI, AUTO-CI UHF-CCSDT 
  Emily Kempfer          : AUTO-CI RHF CISDT and CCSDT, approximate NEVPT4
  Christian Kollmar      : KDIIS, OOCD, Brueckner-CCSD(T), CCSD density, CASPT2, CASPT2-K, improved NEVPT2 
  Axel Koslowski         : Symmetry handling                             
  Simone Kossmann        : meta-GGA functionals, TD-DFT gradient, OOMP2, (MP2 Hessian; deprecated post 5.0) 
  Lucas Lang             : DCDCAS, Hyperfine gauge corrections, ICE-SOC+SSC
  Marvin Lechner         : AUTO-CI (C++ implementation), FIC-MRCC        
  Spencer Leger          : CASSCF response                               
  Dagmar Lenk            : GEPOL surface, SMD, ORCA-2-JSON               
  Dimitrios Liakos       : Extrapolation schemes; Compound Job, Property file
  Dimitrios Manganas     : Further ROCIS development; embedding schemes. LFT, Crystal Embedding 
  Dimitrios Pantazis     : SARC Basis sets                               
  Anastasios Papadopoulos: AUTO-CI, single reference methods and gradients 
  Taras Petrenko         : pre 6.0 DFT Hessian and TD-DFT gradient,  ECA, NRVS 
  Petra Pikulova         : Analytic Raman intensities                    
  Peter Pinski           : DLPNO-MP2, DLPNO-MP2 Gradient                 
  Shashank Vittal Rao    : ES-AILFT, MagRelax                            
  Christoph Reimann      : Effective Core Potentials                     
  Marius Retegan         : Local ZFS, SOC                                
  Christoph Riplinger    : Optimizer, TS searches, QM/MM, DLPNO-CCSD(T), (RO)-DLPNO pert. Triples 
  Michael Roemelt        : Original ROCIS implementation, recursive CI coupling coefficients
  Masaaki Saitow         : Open-shell DLPNO-CCSD energy and density      
  Barbara Sandhoefer     : DKH picture change effects                    
  Yorick L. A. Schmerwitz: GMF and freeze-and-release deltaSCF, NEB S-IDPP initial path                    
  Kantharuban Sivalingam : CASSCF convergence/infrastructure, NEVPT2, NEVPT3, NEVPT4(SD), FIC-MRCI and CEPA variants
  Bernardo de Souza      : ESD, SOC TD-DFT                               
  Georgi L. Stoychev     : AutoAux, RI-MP2 NMR, DLPNO-MP2 response, X2C  
  Van Anh Tran           : RI-MP2 g-tensors                              
  Willem Van den Heuvel  : Paramagnetic NMR                              
  Zikuan Wang            : NOTCH, Electric field optimization            
  Frank Wennmohs         : Technical directorship and infrastructure     
  Hang Xu                : AUTO-CI-Response properties                   
                                                                         
[FACCTs GmbH]                                                            
  Markus Bursch, Nicolas Foglia, Miquel Garcia-Rates, Ingolf Harden, Hagen Neugebauer, Anastasios Papadopoulos, 
  Christoph Riplinger, Bernardo de Souza, Georgi L. Stoychev                                                    
                                                                 
  APM, various basis sets, CI-OPT, improved COSX, DLPNO-Multilevel,           
  DOCKER, DRACO, updates on ESD, Fragmentator, GOAT, IRC, LR-CPCM, L-BFGS, MBIS, meta-GGA TD-DFT gradient, ML-optimized integration grids, 
  MM, NACMEs, nearIR, NEB, NEB-TS, NL-DFT gradient (VV10), 2- and 3-layer-ONIOM, interface openCOSMO-RS, QMMM,   
  Crystal-QMMM, RESP, rigid body optimization, SF, symmetry and pop. for TD-DFT, various functionals, SOLVATOR                                   
                                                                         
[Other institutions]                                                     
  V. Asgeirsson          : NEB                                           
  Christoph Bannwarth    : sTDA-DFT, sTD-DFT, PBEh-3c, B97-3c, D3        
  Giovanni Bistoni       : ETS/NOCV, ADLD/ADEX, COVALED                  
  Martin Brehm           : Molecular dynamics                            
  Ronald Cardenas        : ETS/NOCV                                      
  Martina Colucci        : COVALED                                       
  Sebastian Ehlert       : rSCAN, r2SCAN, r2SCAN-3c, D4, dhf basis sets  
  Marvin Friede          : D4 for Fr, Ra, Ac-Lr                          
  Lars Goerigk           : TD-DFT with DH, B97 family of functionals     
  Stefan Grimme          : VdW corrections, initial TS optimization, DFT functionals, gCP, sTDA/sTD-DF 
  Waldemar Hujo          : DFT-NL                                        
  H. Jonsson             : NEB                                           
  Holger Kruse           : gCP                                           
  Marcel Mueller         : wB97X-3c, vDZP basis set                      
  Hagen Neugebauer       : wr2SCAN, Native XTB                           
  Gianluca Regni         : ADLD/ADEX                                     
  Tobias Risthaus        : pre 6.0 range-separated hybrid DFT and stability analysis
  Lukas Wittmann         : regularized MP2, r2SCAN double-hybrids, wr2SCAN        
                                                                         
We gratefully acknowledge several colleagues who have allowed us to      
interface, adapt or use parts of their codes:                            
  Ed Valeev, F. Pavosevic, A. Kumar             : LibInt (2-el integral package), F12 methods 
  Garnet Chan, S. Sharma, J. Yang, R. Olivares  : DMRG                   
  Ulf Ekstrom                                   : XCFun DFT Library      
  Mihaly Kallay                                 : mrcc  (arbitrary order and MRCC methods)
  Frank Weinhold                                : gennbo (NPA and NBO analysis)           
  Simon Mueller                                 : openCOSMO-RS                            
  Christopher J. Cramer and Donald G. Truhlar   : smd solvation model                     
  S Lehtola, MJT Oliveira, MAL Marques          : LibXC Library                           
  Liviu Ungur et al                             : ANISO software                          


 Your calculation uses the libint2 library for the computation of 2-el integrals
 For citations please refer to: http://libint.valeyev.net

 Your ORCA version has been built with support for libXC version: 7.0.0
 For citations please refer to: https://libxc.gitlab.io

 This ORCA versions uses:
   CBLAS   interface :  Fast vector & matrix operations
   LAPACKE interface :  Fast linear algebra routines
   SCALAPACK package :  Parallel linear algebra routines
   Shared memory     :  Shared parallel matrices
   BLAS/LAPACK       :  OpenBLAS 0.3.29  USE64BITINT DYNAMIC_ARCH NO_AFFINITY Zen SINGLE_THREADED
        Core in use  :  Zen
   Copyright (c) 2011-2014, The OpenBLAS Project


  ***********************************
  * Starting time: Sun Apr  5 13:00:56 2026
  * Host name:     QC1
  * Process ID:    6920
  * Working dir.:  /home/user/QC/h-shift/split_2
  ***********************************

NOTE: MaxCore=1200 MB was set to SCF,MP2,MDCI,CIPSI,MRCI,RASCI and CIS
      => If you want to overwrite this, your respective input block should be placed after the MaxCore statement
================================================================================

----- Orbital basis set information -----
Your calculation utilizes the basis: 6-31G
   H-He, Li-Ne : W. J. Hehre, R. Ditchfield and J.A. Pople, J. Chem. Phys. 56, 2257 (1972).
                 Note: He and Ne are unpublished basis sets taken from the Gaussian program.
                 Note: Li and B from J. D. Dill and J. A. Pople, J. Chem. Phys. 62, 2921 (1975).
   Na - Ar     : M. M. Francl, W. J. Pietro, W. J. Hehre, J. S. Binkley, M. S. Gordon, 
                 D. J. DeFrees and J. A. Pople, J. Chem. Phys. 77, 3654 (1982).
   K - Zn      : V. A. Rassolov, J. A. Pople, M. A. Ratner, and T. L. Windus, J. Chem. Phys. 109, 1223 (1998).

================================================================================
                                        WARNINGS
                       Please study these warnings very carefully!
================================================================================


================================================================================
                                       INPUT FILE
================================================================================
NAME = h-shift_032.inp
|  1> ! HF 6-31G
|  2> %maxcore 1200
|  3> %pal nprocs 8 end
|  4> * xyz 0 1
|  5> C    0.04003300   0.01239700  -0.12191200
|  6> H    1.08118900   0.00304200  -0.41944300
|  7> C    2.53240600   0.02345300   1.47446500
|  8> C    2.00299800  -1.15174600   1.82365100
|  9> C    0.61032000  -1.59970200   1.70195800
| 10> C   -0.24202000  -1.15636400   0.77325000
| 11> H   -0.57210700   0.02270000  -1.01063500
| 12> H   -0.12163300   0.94708300   0.40843800
| 13> H    1.94945100   0.88899700   1.24562400
| 14> H    3.59255900   0.13855200   1.37526700
| 15> H    2.68119000  -1.92842100   2.12710600
| 16> H    0.32779600  -2.44788100   2.30138500
| 17> H   -1.16641000  -1.68415600   0.62123600
| 18> *
| 19> 
| 20>                          ****END OF INPUT****
================================================================================

                       ****************************
                       * Single Point Calculation *
                       ****************************

---------------------------------
CARTESIAN COORDINATES (ANGSTROEM)
---------------------------------
  C      0.040033    0.012397   -0.121912
  H      1.081189    0.003042   -0.419443
  C      2.532406    0.023453    1.474465
  C      2.002998   -1.151746    1.823651
  C      0.610320   -1.599702    1.701958
  C     -0.242020   -1.156364    0.773250
  H     -0.572107    0.022700   -1.010635
  H     -0.121633    0.947083    0.408438
  H      1.949451    0.888997    1.245624
  H      3.592559    0.138552    1.375267
  H      2.681190   -1.928421    2.127106
  H      0.327796   -2.447881    2.301385
  H     -1.166410   -1.684156    0.621236

----------------------------
CARTESIAN COORDINATES (A.U.)
----------------------------
  NO LB      ZA    FRAG     MASS         X           Y           Z
   0 C     6.0000    0    12.011    0.075651    0.023427   -0.230380
   1 H     1.0000    0     1.008    2.043151    0.005749   -0.792632
   2 C     6.0000    0    12.011    4.785554    0.044320    2.786335
   3 C     6.0000    0    12.011    3.785118   -2.176485    3.446201
   4 C     6.0000    0    12.011    1.153338   -3.022999    3.216235
   5 C     6.0000    0    12.011   -0.457352   -2.185211    1.461231
   6 H     1.0000    0     1.008   -1.081126    0.042897   -1.909823
   7 H     1.0000    0     1.008   -0.229853    1.789727    0.771836
   8 H     1.0000    0     1.008    3.683929    1.679961    2.353888
   9 H     1.0000    0     1.008    6.788953    0.261825    2.598878
  10 H     1.0000    0     1.008    5.066715   -3.644188    4.019648
  11 H     1.0000    0     1.008    0.619445   -4.625825    4.348987
  12 H     1.0000    0     1.008   -2.204195   -3.182594    1.173966

--------------------------------
INTERNAL COORDINATES (ANGSTROEM)
--------------------------------
 C      0   0   0     0.000000000000     0.00000000     0.00000000
 H      1   0   0     1.082874890429     0.00000000     0.00000000
 C      2   1   0     2.386071017902   111.50677174     0.00000000
 C      3   2   1     1.335401206627    87.64470972    62.42296386
 C      4   3   2     1.468000604860   128.53286965   322.46715349
 C      5   4   3     1.336237481553   124.16028658    28.16621328
 H      1   2   3     1.079189558019   108.61357596   178.86760639
 H      1   2   3     1.086758913767   106.53163832    62.73809286
 H      3   2   1     1.068349732645    60.33288781   291.12257807
 H      3   2   1     1.070986650904   121.96846872   187.69513664
 H      4   3   2     1.074827140295   117.36103268   134.37270399
 H      5   4   3     1.076355032016   116.31510732   197.96697575
 H      6   5   4     1.075253236945   118.93206625   166.93267456

---------------------------
INTERNAL COORDINATES (A.U.)
---------------------------
 C      0   0   0     0.000000000000     0.00000000     0.00000000
 H      1   0   0     2.046336980211     0.00000000     0.00000000
 C      2   1   0     4.509020759922   111.50677174     0.00000000
 C      3   2   1     2.523542559433    87.64470972    62.42296386
 C      4   3   2     2.774119107616   128.53286965   322.46715349
 C      5   4   3     2.525122890016   124.16028658    28.16621328
 H      1   2   3     2.039372711244   108.61357596   178.86760639
 H      1   2   3     2.053676720617   106.53163832    62.73809286
 H      3   2   1     2.018888409946    60.33288781   291.12257807
 H      3   2   1     2.023871463294   121.96846872   187.69513664
 H      4   3   2     2.031128936463   117.36103268   134.37270399
 H      5   4   3     2.034016233378   116.31510732   197.96697575
 H      6   5   4     2.031934142438   118.93206625   166.93267456

---------------------
BASIS SET INFORMATION
---------------------
There are 2 groups of distinct atoms

 Group   1 Type C   : 10s4p contracted to 3s2p pattern {631/31}
 Group   2 Type H   : 4s contracted to 2s pattern {31}

Atom   0C    basis set group =>   1
Atom   1H    basis set group =>   2
Atom   2C    basis set group =>   1
Atom   3C    basis set group =>   1
Atom   4C    basis set group =>   1
Atom   5C    basis set group =>   1
Atom   6H    basis set group =>   2
Atom   7H    basis set group =>   2
Atom   8H    basis set group =>   2
Atom   9H    basis set group =>   2
Atom  10H    basis set group =>   2
Atom  11H    basis set group =>   2
Atom  12H    basis set group =>   2


           ************************************************************
           *        Program running with 8 parallel MPI-processes     *
           *              working on a common directory               *
           ************************************************************
------------------------------------------------------------------------------
                             ORCA STARTUP CALCULATIONS
------------------------------------------------------------------------------
------------------------------------------------------------------------------
                   ___                                                        
                  /   \      - P O W E R E D   B Y -                         
                 /     \                                                     
                 |  |  |   _    _      __       _____    __    __             
                 |  |  |  | |  | |    /  \     |  _  \  |  |  /  |          
                  \  \/   | |  | |   /    \    | | | |  |  | /  /          
                 / \  \   | |__| |  /  /\  \   | |_| |  |  |/  /          
                |  |  |   |  __  | /  /__\  \  |    /   |      \           
                |  |  |   | |  | | |   __   |  |    \   |  |\   \          
                \     /   | |  | | |  |  |  |  | |\  \  |  | \   \       
                 \___/    |_|  |_| |__|  |__|  |_| \__\ |__|  \__/        
                                                                              
                      - O R C A' S   B I G   F R I E N D -                    
                                      &                                       
                       - I N T E G R A L  F E E D E R -                       
                                                                              
 v1 FN, 2020, v2 2021, v3 2022-2024                                           
------------------------------------------------------------------------------


----------------------
SHARK INTEGRAL PACKAGE
----------------------

Number of atoms                             ...     13
Number of basis functions                   ...     61
Number of shells                            ...     41
Maximum angular momentum                    ...      1
Integral batch strategy                     ... SHARK/LIBINT Hybrid
RI-J (if used) integral strategy            ... SPLIT-RIJ (Revised 2003 algorithm where possible)
Printlevel                                  ...      1
Contraction scheme used                     ... SEGMENTED contraction
Prescreening option                         ... SCHWARTZ
   Thresh                                   ... 1.000e-10
   Tcut                                     ... 1.000e-11
   Tpresel                                  ... 1.000e-11 
Coulomb Range Separation                    ... NOT USED
Exchange Range Separation                   ... NOT USED
Multipole approximations                    ... NOT USED
Finite Nucleus Model                        ... NOT USED
CABS basis                                  ... NOT available
Auxiliary Coulomb fitting basis             ... NOT available
Auxiliary J/K fitting basis                 ... NOT available
Auxiliary Correlation fitting basis         ... NOT available
Auxiliary 'external' fitting basis          ... NOT available

Checking pre-screening integrals            ... done (  0.0 sec) Dimension = 41
   => SHARK Basis and OBASIS are compatible. Storing Pre-screening
Shell pair information
Shell pair cut-off parameter TPreSel        ...   1.0e-11
Total number of shell pairs                 ...       861
Shell pairs after pre-screening             ...       846
Total number of primitive shell pairs       ...      5382
Primitive shell pairs kept                  ...      3741
          la=0 lb=0:    481 shell pairs
          la=1 lb=0:    310 shell pairs
          la=1 lb=1:     55 shell pairs

Checking whether 4 symmetric matrices of dimension 61 fit in memory
:Max Core in MB      =   1200.00
 MB in use           =      2.04
 MB left             =   1197.96
 MB needed           =      0.06
 Data fit in memory  = YES
Calculating Nuclear repulsion               ... done (  0.0 sec) ENN=    161.639460154137 Eh

Diagonalization of the overlap matrix:
Smallest eigenvalue                        ... 3.428e-03
Time for diagonalization                   ...    0.000 sec
Threshold for overlap eigenvalues          ... 1.000e-07
Number of eigenvalues below threshold      ... 0
Time for construction of square roots      ...    0.000 sec
Total time needed                          ...    0.001 sec

-------------------
DFT GRID GENERATION
-------------------

General Integration Accuracy     IntAcc      ... 4.388
Radial Grid Type                 RadialGrid  ... OptM3 with GC (2021)
Angular Grid (max. ang.)         AngularGrid ... 4 (Lebedev-302)
Angular grid pruning method      GridPruning ... 4 (adaptive)
Weight generation scheme         WeightScheme... mBecke (2022)
Basis function cutoff            BFCut       ... 1.0000e-10
Integration weight cutoff        WCut        ... 1.0000e-14
Partially contracted basis set               ... off
Rotationally invariant grid construction     ... off
Angular grids for H and He will be reduced by one unit

Total number of grid points                  ...    56019
Total number of batches                      ...      883
Average number of points per batch           ...       63
Average number of grid points per atom       ...     4309
Grids setup in   0.2 sec
Initializing property integral containers    ... done (  0.0 sec)

SHARK setup successfully completed in   0.3 seconds

Maximum memory used throughout the entire STARTUP-calculation: 11.8 MB


           ************************************************************
           *        Program running with 8 parallel MPI-processes     *
           *              working on a common directory               *
           ************************************************************
-------------------------------------------------------------------------------
                                 ORCA GUESS
                   Start orbitals & Density for SCF / CASSCF
-------------------------------------------------------------------------------

------------
SCF SETTINGS
------------
Hamiltonian:
 Ab initio Hamiltonian  Method          .... Hartree-Fock(GTOs)


General Settings:
 Integral files         IntName         .... h-shift_032
 Hartree-Fock type      HFTyp           .... RHF
 Total Charge           Charge          ....    0
 Multiplicity           Mult            ....    1
 Number of Electrons    NEL             ....   38
 Basis Dimension        Dim             ....   61
 Nuclear Repulsion      ENuc            ....    161.6394601541 Eh

Convergence Acceleration:
 AO-DIIS                CNVDIIS         .... on
   Start iteration      DIISMaxIt       ....    12
   Startup error        DIISStart       ....  0.200000
   # of expansion vecs  DIISMaxEq       ....     5
   Bias factor          DIISBfac        ....   1.050
   Max. coefficient     DIISMaxC        ....  10.000
 MO-DIIS                CNVKDIIS        .... off
 Trust-Rad. Augm. Hess. CNVTRAH         .... auto
   Auto Start mean grad. ratio tolernc. ....  1.125000
   Auto Start start iteration           ....    50
   Auto Start num. interpolation iter.  ....    10
   Max. Number of Micro iterations      ....    24
   Max. Number of Macro iterations      .... Maxiter - #DIIS iter
   Number of Davidson start vectors     ....     2
   Converg. threshold    (grad. norm)   ....   5.000e-05
   Grad. Scal. Fac. for Micro threshold ....   0.100
   Minimum threshold for Micro iter.    ....   1.000e-02
   NR start threshold (gradient norm)   ....   1.000e-04
   Initial trust radius                 ....   0.400
   Minimum AH scaling param. (alpha)    ....   1.000
   Maximum AH scaling param. (alpha)    .... 1000.000
   Quad. conv. algorithm                .... NR
   White noise on init. David. guess    .... on
   Maximum white noise                  ....   0.010
   Pseudo random numbers                .... off
   Inactive MOs                         .... canonical
   Orbital update algorithm             .... Taylor
   Preconditioner                       .... Diag
   Full preconditioner red. dimension   ....   250
 SOSCF                 CNVSOSCF           .... on
   Start iteration     SOSCFMaxIt         ....   150
   Startup grad/error  SOSCFStart         ....  0.003300
   Hessian update      SOSCFHessUp        .... L-BFGS
   Autom. constraints  SOSCFAutoConstrain .... off
 Level Shifting         CNVShift        .... on
   Level shift para.    LevelShift      ....    0.2500
   Turn off err/grad.   ShiftErr        ....    0.0010
 Zerner damping         CNVZerner       .... off
 Static damping         CNVDamp         .... on
   Fraction old density DampFac         ....    0.7000
   Max. Damping (<1)    DampMax         ....    0.9800
   Min. Damping (>=0)   DampMin         ....    0.0000
   Turn off err/grad.   DampErr         ....    0.1000

SCF Procedure:
 Maximum # iterations   MaxIter         ....   125
 SCF integral mode      SCFMode         .... Direct
   Integral package                     .... SHARK and LIBINT hybrid scheme
 Reset frequency        DirectResetFreq ....    20
 Integral Threshold     Thresh          ....  1.000e-10 Eh
 Primitive CutOff       TCut            ....  1.000e-11 Eh

Convergence Tolerance:
 Convergence Check Mode ConvCheckMode   .... Total+1el-Energy
 Convergence forced     ConvForced      .... 0
 Energy Change          TolE            ....  1.000e-06 Eh
 1-El. energy change                    ....  1.000e-03 Eh
 Orbital Gradient       TolG            ....  5.000e-05
 Orbital Rotation angle TolX            ....  5.000e-05
 DIIS Error             TolErr          ....  1.000e-06

------------------------------
INITIAL GUESS: MODEL POTENTIAL
------------------------------
Loading Hartree-Fock densities                     ... done
Calculating cut-offs                               ... done
Initializing the effective Hamiltonian             ... done
Setting up the integral package (SHARK)            ... done
Starting the Coulomb interaction                   ... done (   0.0 sec)
Making the grid                                    ... done (   0.1 sec)
Mapping shells                                     ... done
Starting the XC term evaluation                    ... done (   0.0 sec)
Transforming the Hamiltonian                       ... done (   0.0 sec)
Diagonalizing the Hamiltonian                      ... done (   0.0 sec)
Back transforming the eigenvectors                 ... done (   0.0 sec)
Now organizing SCF variables                       ... done
                      ------------------
                      INITIAL GUESS DONE (   0.1 sec)
                      ------------------
             **** ENERGY FILE WAS UPDATED (h-shift_032.en.tmp) ****
Finished Guess after   0.3 sec
Maximum memory used throughout the entire GUESS-calculation: 4.2 MB


           ************************************************************
           *        Program running with 8 parallel MPI-processes     *
           *              working on a common directory               *
           ************************************************************

-------------------------------------------------------------------------------------------
                                      ORCA LEAN-SCF
                              memory conserving SCF solver
-------------------------------------------------------------------------------------------

----------------------------------------D-I-I-S--------------------------------------------
Iteration    Energy (Eh)           Delta-E    RMSDP     MaxDP     DIISErr   Damp  Time(sec)
-------------------------------------------------------------------------------------------
               ***  Starting incremental Fock matrix formation  ***
    1    -193.6410977468589181     0.00e+00  1.57e-02  5.30e-02  1.86e-01  0.700   0.1
    2    -193.7216177402634116    -8.05e-02  1.25e-02  4.02e-02  1.22e-01  0.700   0.1
                               ***Turning on AO-DIIS***
    3    -193.7713922229918353    -4.98e-02  7.67e-03  2.01e-02  7.25e-02  0.700   0.0
    4    -193.8028507351097005    -3.15e-02  1.82e-02  4.26e-02  4.90e-02  0.000   0.0
                              *** Initializing SOSCF ***
---------------------------------------S-O-S-C-F--------------------------------------
Iteration    Energy (Eh)           Delta-E    RMSDP     MaxDP     MaxGrad    Time(sec)
--------------------------------------------------------------------------------------
    5    -193.8709397009487816    -6.81e-02  1.71e-03  2.82e-03  2.81e-03     0.1
               *** Restarting incremental Fock matrix formation ***
    6    -193.8710660415910070    -1.26e-04  8.94e-04  1.90e-03  1.43e-03     0.0
    7    -193.8711047640149445    -3.87e-05  5.78e-04  1.29e-03  6.00e-04     0.0
    8    -193.8711127066812310    -7.94e-06  7.73e-05  1.80e-04  1.40e-04     0.0
    9    -193.8711129498634591    -2.43e-07  3.44e-05  8.13e-05  3.37e-05     0.0
                 **** Energy Check signals convergence ****

               *****************************************************
               *                     SUCCESS                       *
               *           SCF CONVERGED AFTER   9 CYCLES          *
               *****************************************************

             **** ENERGY FILE WAS UPDATED (h-shift_032.en.tmp) ****

----------------
TOTAL SCF ENERGY
----------------

Total Energy       :       -193.87111301512499 Eh           -5275.50119 eV

Components:
Nuclear Repulsion  :        161.63946015413734 Eh            4398.43332 eV
Electronic Energy  :       -355.51057316926233 Eh           -9673.93451 eV
One Electron Energy:       -580.22729203927042 Eh          -15788.78730 eV
Two Electron Energy:        224.71671887000809 Eh            6114.85279 eV

Virial components:
Potential Energy   :       -388.05224840649134 Eh          -10559.43851 eV
Kinetic Energy     :        194.18113539136633 Eh            5283.93732 eV
Virial Ratio       :          1.99840343720508

---------------
SCF CONVERGENCE
---------------

  Last Energy change         ...    2.4318e-07  Tolerance :   1.0000e-06
  Last MAX-Density change    ...    8.1336e-05  Tolerance :   1.0000e-05
  Last RMS-Density change    ...    3.4437e-05  Tolerance :   1.0000e-06
  Last DIIS Error            ...    2.8058e-03  Tolerance :   1.0000e-06
  Last Orbital Gradient      ...    3.3710e-05  Tolerance :   5.0000e-05
  Last Orbital Rotation      ...    3.0945e-05  Tolerance :   5.0000e-05


----------------
ORBITAL ENERGIES
----------------

  NO   OCC          E(Eh)            E(eV) 
   0   2.0000     -11.236519      -305.7612 
   1   2.0000     -11.236299      -305.7552 
   2   2.0000     -11.227995      -305.5293 
   3   2.0000     -11.220976      -305.3383 
   4   2.0000     -11.213532      -305.1357 
   5   2.0000      -1.102512       -30.0009 
   6   2.0000      -1.018842       -27.7241 
   7   2.0000      -0.941775       -25.6270 
   8   2.0000      -0.813217       -22.1288 
   9   2.0000      -0.719758       -19.5856 
  10   2.0000      -0.668624       -18.1942 
  11   2.0000      -0.601279       -16.3616 
  12   2.0000      -0.583899       -15.8887 
  13   2.0000      -0.567891       -15.4531 
  14   2.0000      -0.544075       -14.8050 
  15   2.0000      -0.507577       -13.8119 
  16   2.0000      -0.470834       -12.8121 
  17   2.0000      -0.407667       -11.0932 
  18   2.0000      -0.313655        -8.5350 
  19   0.0000       0.131962         3.5909 
  20   0.0000       0.227940         6.2026 
  21   0.0000       0.250857         6.8262 
  22   0.0000       0.269430         7.3316 
  23   0.0000       0.291500         7.9321 
  24   0.0000       0.323232         8.7956 
  25   0.0000       0.335546         9.1307 
  26   0.0000       0.348012         9.4699 
  27   0.0000       0.363568         9.8932 
  28   0.0000       0.368960        10.0399 
  29   0.0000       0.432996        11.7824 
*Only the first 10 virtual orbitals were printed.

                    ********************************
                    * MULLIKEN POPULATION ANALYSIS *
                    ********************************

-----------------------
MULLIKEN ATOMIC CHARGES
-----------------------
   0 C :   -0.514821
   1 H :    0.185001
   2 C :   -0.365254
   3 C :   -0.154459
   4 C :   -0.197806
   5 C :   -0.145417
   6 H :    0.158580
   7 H :    0.172106
   8 H :    0.173802
   9 H :    0.161788
  10 H :    0.172310
  11 H :    0.176236
  12 H :    0.177933
Sum of atomic charges:    0.0000000

--------------------------------
MULLIKEN REDUCED ORBITAL CHARGES
--------------------------------
  0 C s       :     3.367380  s :     3.367380
      pz      :     1.042947  p :     3.147441
      px      :     1.111177
      py      :     0.993318

  1 H s       :     0.814999  s :     0.814999

  2 C s       :     3.268318  s :     3.268318
      pz      :     1.015106  p :     3.096935
      px      :     1.082382
      py      :     0.999447

  3 C s       :     3.197017  s :     3.197017
      pz      :     0.994546  p :     2.957442
      px      :     0.965434
      py      :     0.997462

  4 C s       :     3.196676  s :     3.196676
      pz      :     1.012342  p :     3.001130
      px      :     0.926193
      py      :     1.062595

  5 C s       :     3.211907  s :     3.211907
      pz      :     0.937090  p :     2.933510
      px      :     1.030005
      py      :     0.966416

  6 H s       :     0.841420  s :     0.841420

  7 H s       :     0.827894  s :     0.827894

  8 H s       :     0.826198  s :     0.826198

  9 H s       :     0.838212  s :     0.838212

 10 H s       :     0.827690  s :     0.827690

 11 H s       :     0.823764  s :     0.823764

 12 H s       :     0.822067  s :     0.822067



                     *******************************
                     * LOEWDIN POPULATION ANALYSIS *
                     *******************************

----------------------
LOEWDIN ATOMIC CHARGES
----------------------
   0 C :   -0.321106
   1 H :    0.127602
   2 C :   -0.250609
   3 C :   -0.113967
   4 C :   -0.150806
   5 C :   -0.104457
   6 H :    0.109907
   7 H :    0.117256
   8 H :    0.118226
   9 H :    0.116157
  10 H :    0.116707
  11 H :    0.117449
  12 H :    0.117639

-------------------------------
LOEWDIN REDUCED ORBITAL CHARGES
-------------------------------
  0 C s       :     2.976478  s :     2.976478
      pz      :     1.108740  p :     3.344628
      px      :     1.145124
      py      :     1.090764

  1 H s       :     0.872398  s :     0.872398

  2 C s       :     2.989265  s :     2.989265
      pz      :     1.038297  p :     3.261344
      px      :     1.116829
      py      :     1.106219

  3 C s       :     2.945305  s :     2.945305
      pz      :     0.988304  p :     3.168662
      px      :     1.072742
      py      :     1.107615

  4 C s       :     2.941738  s :     2.941738
      pz      :     1.076094  p :     3.209068
      px      :     1.062261
      py      :     1.070712

  5 C s       :     2.953104  s :     2.953104
      pz      :     1.032961  p :     3.151353
      px      :     1.082189
      py      :     1.036202

  6 H s       :     0.890093  s :     0.890093

  7 H s       :     0.882744  s :     0.882744

  8 H s       :     0.881774  s :     0.881774

  9 H s       :     0.883843  s :     0.883843

 10 H s       :     0.883293  s :     0.883293

 11 H s       :     0.882551  s :     0.882551

 12 H s       :     0.882361  s :     0.882361



                      *****************************
                      * MAYER POPULATION ANALYSIS *
                      *****************************

  NA   - Mulliken gross atomic population
  ZA   - Total nuclear charge
  QA   - Mulliken gross atomic charge
  VA   - Mayer's total valence
  BVA  - Mayer's bonded valence
  FA   - Mayer's free valence

  ATOM       NA         ZA         QA         VA         BVA        FA
  0 C      6.5148     6.0000    -0.5148     3.7699     3.7699     0.0000
  1 H      0.8150     1.0000     0.1850     0.9282     0.9282    -0.0000
  2 C      6.3653     6.0000    -0.3653     3.8420     3.8420     0.0000
  3 C      6.1545     6.0000    -0.1545     3.8077     3.8077    -0.0000
  4 C      6.1978     6.0000    -0.1978     3.8183     3.8183    -0.0000
  5 C      6.1454     6.0000    -0.1454     3.7609     3.7609     0.0000
  6 H      0.8414     1.0000     0.1586     0.9337     0.9337     0.0000
  7 H      0.8279     1.0000     0.1721     0.9215     0.9215     0.0000
  8 H      0.8262     1.0000     0.1738     0.9376     0.9376     0.0000
  9 H      0.8382     1.0000     0.1618     0.9434     0.9434     0.0000
 10 H      0.8277     1.0000     0.1723     0.9371     0.9371    -0.0000
 11 H      0.8238     1.0000     0.1762     0.9386     0.9386     0.0000
 12 H      0.8221     1.0000     0.1779     0.9383     0.9383    -0.0000

  Mayer bond orders larger than 0.100000
B(  0-C ,  1-H ) :   0.9361 B(  0-C ,  5-C ) :   0.9625 B(  0-C ,  6-H ) :   0.9604 
B(  0-C ,  7-H ) :   0.9455 B(  2-C ,  3-C ) :   1.8692 B(  2-C ,  8-H ) :   0.9608 
B(  2-C ,  9-H ) :   0.9626 B(  3-C ,  4-C ) :   1.0535 B(  3-C , 10-H ) :   0.9580 
B(  4-C ,  5-C ) :   1.8694 B(  4-C , 11-H ) :   0.9564 B(  5-C , 12-H ) :   0.9563 


-------
TIMINGS
-------

Total SCF time: 0 days 0 hours 0 min 0 sec 

Total time                  ....       0.770 sec
Sum of individual times     ....       0.713 sec  ( 92.6%)

SCF preparation             ....       0.275 sec  ( 35.7%)
Fock matrix formation       ....       0.374 sec  ( 48.5%)
  Startup                   ....       0.002 sec  (  0.4% of F)
  Coulomb+Exchange Fock     ....       0.402 sec  (107.6% of F)
Diagonalization             ....       0.000 sec  (  0.0%)
Density matrix formation    ....       0.009 sec  (  1.1%)
Total Energy calculation    ....       0.005 sec  (  0.7%)
Population analysis         ....       0.006 sec  (  0.7%)
Orbital Transformation      ....       0.005 sec  (  0.7%)
Orbital Orthonormalization  ....       0.000 sec  (  0.0%)
DIIS solution               ....       0.024 sec  (  3.1%)
SOSCF solution              ....       0.016 sec  (  2.1%)
Finished LeanSCF after   0.8 sec

Maximum memory used throughout the entire LEANSCF-calculation: 6.4 MB

-------------------------   --------------------
FINAL SINGLE POINT ENERGY      -193.871113015125
-------------------------   --------------------



           ************************************************************
           *        Program running with 8 parallel MPI-processes     *
           *              working on a common directory               *
           ************************************************************

------------------------------------------------------------------------------
                              ORCA PROPERTY CALCULATIONS
------------------------------------------------------------------------------

GBWName                                 ... h-shift_032.gbw
Number of atoms                         ...     13
Number of basis functions               ...     61
Max core memory                         ...   1200 MB

Electric properties:
Dipole moment                           ... YES
Quadrupole moment                       ...  NO
Static polarizability (Dipole/Dipole)   ...  NO
Static polarizability (Dipole/Quad.)    ...  NO
Static polarizability (Quad./Quad.)     ...  NO
Static polarizability (Velocity)        ...  NO
Static hyperpolarizability              ...  NO

Atomic electric properties:
Dipole moment                           ...  NO
Quadrupole moment                       ...  NO
Static polarizability                   ...  NO

Choice of electric origin               ... Center of mass
Position of electric origin             ...     1.864604    -1.403686     2.069000

General magnetic properties:
Magnetizability                         ...  NO

EPR properties:
g-Tensor (aka g-matrix)                 ...  NO
Zero-Field splitting spin-orbit         ...  NO
Zero-field splitting spin-spin          ...  NO
Hyperfine couplings                     ...  NO (   0 nuclei)
Quadrupole couplings                    ...  NO (   0 nuclei)
Contact density                         ...  NO (   0 nuclei)

NMR properties:
Chemical shifts                         ...  NO (   0 nuclei)
Spin-rotation constants                 ...  NO (   0 nuclei)
Spin-spin couplings                     ...  NO (   0 nuclei,    0 pairs)

Choice of magnetic origin               ... GIAO
Position of magnetic origin             ...     0.000000     0.000000     0.000000

Properties with geometric perturbations:
SCF Hessian                             ...  NO
IR spectrum                             ...  NO
VCD spectrum                            ...  NO
X-ray spectroscopy properties:
SCF XES/XAS/RIXS spectra                ...  NO

SCF SOC stabilization energy            ...  NO
Diagonal Born-Oppenheimer correction    ...  NO

-------------
DIPOLE MOMENT
-------------

Method             : SCF
Type of density    : Electron Density
Multiplicity       :   1
Irrep              :   0
Energy             :  -193.8711130151249904 Eh
Basis              : AO
                                X                 Y                 Z
Electronic contribution:      0.069067404      -1.785100445       1.815825617
Nuclear contribution   :     -0.114095591       1.765934238      -1.979516601
                        -----------------------------------------
Total Dipole Moment    :     -0.045028187      -0.019166207      -0.163690984
                        -----------------------------------------
Magnitude (a.u.)       :      0.170849699
Magnitude (Debye)      :      0.434265422



--------------------
Rotational spectrum 
--------------------
 
Rotational constants in cm-1:             0.280427             0.146334             0.099473 
Rotational constants in MHz :          8406.994527          4386.977370          2982.131788 

Dipole components along the rotational axes: 
x,y,z [a.u.] :     0.117904     0.054815    -0.110831 
x,y,z [Debye]:     0.299688     0.139328    -0.281711 

 

Dipole moment calculation done in   0.0 sec 

Maximum memory used throughout the entire PROP-calculation: 2.2 MB

--------------------------------
SUGGESTED CITATIONS FOR THIS RUN
--------------------------------

Below you find a list of papers that are relevant to this ORCA run
We neither can nor want to force you to cite these papers, but we appreciate if you do
You receive ORCA, which is the product of decades of hard work by many enthusiastic individuals, for free
The only thing we kindly ask in return is that you cite our papers,
We deeply appreciate it, if you show your appreciation for ORCA by not just citing the generic ORCA reference.

Please note that relegating all ORCA citations to the supporting information does *not* help us.
SI sections are not indexed - citations you put there will not count into any citation statistics
But we need these citations in order to attract the funding resources that allow us to do what we are doing

Therefore, if you are a happy ORCA user, please consider citing a few of the papers listed below in the main body of your paper

In addition to the list printed below, the program has created the file h-shift_032.bibtex that contains the list in bibtex format
You can import this file easily into all common literature databanks and citation aid programs


List of essential papers. We consider these as the minimum necessary citations

  1. Neese, F.
     Software update: the ORCA program system, version 6.0
     WIRES Comput. Molec. Sci. 2025 15(1), e70019
     doi.org/10.1002/wcms.7019

List of papers to cite with high priority. The work reported in these papers was absolutely
necessary for this run to complete.
Our perspective: the developers of density functionals and basis sets usually get cited in chemistry papers
Good! But without the algorithms to do something with them, the functionals or basis sets would not do anything.
Hence, in our opinion, the algorithm design and method developments papers are equally worthy of getting cited

  1. Neese, F.
     The SHARK Integral Generation and Digestion System
     J. Comp. Chem. 2022 44(3), 381
     doi.org/10.1002/jcc.26942

List of suggested additional citations. These are papers that are important in the 'surrounding' of 
of this run, or papers that preceded the highly important papers. If you like your results we are grateful for a citation.

  1. Neese, F.
     The ORCA program system
     WIRES Comput. Molec. Sci. 2012 2(1), 73-78
     doi.org/10.1002/wcms.81
  2. Neese, F.
     Software update: the ORCA program system, version 4.0
     WIRES Comput. Molec. Sci. 2018 8(1), 1-6
     doi.org/10.1002/wcms.1327
  3. Neese, F.; Wennmohs, F.; Becker, U.; Riplinger, C.
     The ORCA quantum chemistry program package
     J. Chem. Phys. 2020 152(22), 224108
     doi.org/10.1063/5.0004608
  4. Neese, F.
     Software update: The ORCA program system—Version 5.0
     WIRES Comput. Molec. Sci. 2022 12(1), e1606
     doi.org/10.1002/wcms.1606

List of optional additional citations

  1. Neese, F.
     Approximate second-order SCF convergence for spin unrestricted wavefunctions
     Chem. Phys. Lett. 2000 325(1-3), 93-98
     doi.org/10.1016/s0009-2614(00)00662-x

Timings for individual modules:

Sum of individual times          ...        2.382 sec (=   0.040 min)
Startup calculation              ...        0.639 sec (=   0.011 min)  26.8 %
SCF iterations                   ...        1.335 sec (=   0.022 min)  56.1 %
Property calculations            ...        0.407 sec (=   0.007 min)  17.1 %
                             ****ORCA TERMINATED NORMALLY****
TOTAL RUN TIME: 0 days 0 hours 0 minutes 2 seconds 820 msec
