
                                 *****************
                                 * O   R   C   A *
                                 *****************

                                            #,                                       
                                            ###                                      
                                            ####                                     
                                            #####                                    
                                            ######                                   
                                           ########,                                 
                                     ,,################,,,,,                         
                               ,,#################################,,                 
                          ,,##########################################,,             
                       ,#########################################, ''#####,          
                    ,#############################################,,   '####,        
                  ,##################################################,,,,####,       
                ,###########''''           ''''###############################       
              ,#####''   ,,,,##########,,,,          '''####'''          '####       
            ,##' ,,,,###########################,,,                        '##       
           ' ,,###''''                  '''############,,,                           
         ,,##''                                '''############,,,,        ,,,,,,###''
      ,#''                                            '''#######################'''  
     '                                                          ''''####''''         
             ,#######,   #######,   ,#######,      ##                                
            ,#'     '#,  ##    ##  ,#'     '#,    #''#        ,####,    ,#,          
            ##       ##  ##   ,#'  ##            #'  '#       #'       ,# #          
            ##       ##  #######   ##           ,######,      #####,      #          
            '#,     ,#'  ##    ##  '#,     ,#' ,#      #,     #,   #      #          
             '#######'   ##     ##  '#######'  #'      '#     '####' #    #          



                #########################################################
                #                        -***-                          #
                #          Department of theory and spectroscopy        #
                #                                                       #
                #                      Frank Neese                      #
                #                                                       #
                #     Directorship, Architecture, Infrastructure        #
                #                    SHARK, DRIVERS                     #
                #        Core code/Algorithms in most modules           #
                #                                                       #
                #        Max Planck Institute fuer Kohlenforschung      #
                #                Kaiser Wilhelm Platz 1                 #
                #                 D-45470 Muelheim/Ruhr                 #
                #                      Germany                          #
                #                                                       #
                #                  All rights reserved                  #
                #                        -***-                          #
                #########################################################


                         Program Version 6.1.0  -  RELEASE   -
                                (GIT: $679e74b$)
                          ($2025-06-10 18:02:51 +0200$)


 With contributions from (in alphabetic order):
[Max-Planck-Institut fuer Kohlenforschung]                               
  Daniel Aravena         : Magnetic Suceptibility                        
  Michael Atanasov       : Ab Initio Ligand Field Theory (pilot matlab implementation)
  Alexander A. Auer      : GIAO ZORA, VPT2 properties, NMR spectrum      
  Ute Becker             : All parallelization in ORCA, NUMFREQ, NUMCALC 
  Giovanni Bistoni       : ED, misc. LED, open-shell LED, HFLD           
  Dmytro Bykov           : pre 5.0 version of the SCF Hessian            
  Marcos Casanova-Páez   : Triplet and SCS-CIS(D). UHF-(DLPNO)-IP/EA/STEOM-CCSD. UHF-CVS-IP/STEOM-CCSD   
  Vijay G. Chilkuri      : MRCI spin determinant printing, contributions to CSF-ICE 
  Pauline Colinet        : FMM embedding                                 
  Dipayan Datta          : RHF DLPNO-CCSD density                        
  Achintya Kumar Dutta   : EOM-CC, STEOM-CC                              
  Nicolas Foglia         : Exact transition moments, OPA infrastructure, MCD improvements    
  Dmitry Ganyushin       : Spin-Orbit,Spin-Spin,Magnetic field MRCI      
  Miquel Garcia-Rates    : C-PCM and meta-GGA Hessian, CCSD/C-PCM, Gaussian charge scheme 
  Tiago L. C. Gouveia    : GS-ROHF, GS-ROCIS                             
  Yang Guo               : DLPNO-NEVPT2, F12-NEVPT2, CIM, IAO-localization        
  Andreas Hansen         : Spin unrestricted coupled pair/coupled cluster methods 
  Ingolf Harden          : AUTO-CI MPn and infrastructure                
  Benjamin Helmich-Paris : MC-RPA, TRAH-(SCF,CASSCF), AVAS, COSX integrals, SCF dyn. polar., MC-PDFT, srDFT 
  Lee Huntington         : MR-EOM, pCC                                   
  Robert Izsak           : Overlap fitted RIJCOSX, COSX-SCS-MP3, EOM     
  Riya Kayal             : Wick's Theorem for AUTO-CI, AUTO-CI UHF-CCSDT 
  Emily Kempfer          : AUTO-CI RHF CISDT and CCSDT, approximate NEVPT4
  Christian Kollmar      : KDIIS, OOCD, Brueckner-CCSD(T), CCSD density, CASPT2, CASPT2-K, improved NEVPT2 
  Axel Koslowski         : Symmetry handling                             
  Simone Kossmann        : meta-GGA functionals, TD-DFT gradient, OOMP2, (MP2 Hessian; deprecated post 5.0) 
  Lucas Lang             : DCDCAS, Hyperfine gauge corrections, ICE-SOC+SSC
  Marvin Lechner         : AUTO-CI (C++ implementation), FIC-MRCC        
  Spencer Leger          : CASSCF response                               
  Dagmar Lenk            : GEPOL surface, SMD, ORCA-2-JSON               
  Dimitrios Liakos       : Extrapolation schemes; Compound Job, Property file
  Dimitrios Manganas     : Further ROCIS development; embedding schemes. LFT, Crystal Embedding 
  Dimitrios Pantazis     : SARC Basis sets                               
  Anastasios Papadopoulos: AUTO-CI, single reference methods and gradients 
  Taras Petrenko         : pre 6.0 DFT Hessian and TD-DFT gradient,  ECA, NRVS 
  Petra Pikulova         : Analytic Raman intensities                    
  Peter Pinski           : DLPNO-MP2, DLPNO-MP2 Gradient                 
  Shashank Vittal Rao    : ES-AILFT, MagRelax                            
  Christoph Reimann      : Effective Core Potentials                     
  Marius Retegan         : Local ZFS, SOC                                
  Christoph Riplinger    : Optimizer, TS searches, QM/MM, DLPNO-CCSD(T), (RO)-DLPNO pert. Triples 
  Michael Roemelt        : Original ROCIS implementation, recursive CI coupling coefficients
  Masaaki Saitow         : Open-shell DLPNO-CCSD energy and density      
  Barbara Sandhoefer     : DKH picture change effects                    
  Yorick L. A. Schmerwitz: GMF and freeze-and-release deltaSCF, NEB S-IDPP initial path                    
  Kantharuban Sivalingam : CASSCF convergence/infrastructure, NEVPT2, NEVPT3, NEVPT4(SD), FIC-MRCI and CEPA variants
  Bernardo de Souza      : ESD, SOC TD-DFT                               
  Georgi L. Stoychev     : AutoAux, RI-MP2 NMR, DLPNO-MP2 response, X2C  
  Van Anh Tran           : RI-MP2 g-tensors                              
  Willem Van den Heuvel  : Paramagnetic NMR                              
  Zikuan Wang            : NOTCH, Electric field optimization            
  Frank Wennmohs         : Technical directorship and infrastructure     
  Hang Xu                : AUTO-CI-Response properties                   
                                                                         
[FACCTs GmbH]                                                            
  Markus Bursch, Nicolas Foglia, Miquel Garcia-Rates, Ingolf Harden, Hagen Neugebauer, Anastasios Papadopoulos, 
  Christoph Riplinger, Bernardo de Souza, Georgi L. Stoychev                                                    
                                                                 
  APM, various basis sets, CI-OPT, improved COSX, DLPNO-Multilevel,           
  DOCKER, DRACO, updates on ESD, Fragmentator, GOAT, IRC, LR-CPCM, L-BFGS, MBIS, meta-GGA TD-DFT gradient, ML-optimized integration grids, 
  MM, NACMEs, nearIR, NEB, NEB-TS, NL-DFT gradient (VV10), 2- and 3-layer-ONIOM, interface openCOSMO-RS, QMMM,   
  Crystal-QMMM, RESP, rigid body optimization, SF, symmetry and pop. for TD-DFT, various functionals, SOLVATOR                                   
                                                                         
[Other institutions]                                                     
  V. Asgeirsson          : NEB                                           
  Christoph Bannwarth    : sTDA-DFT, sTD-DFT, PBEh-3c, B97-3c, D3        
  Giovanni Bistoni       : ETS/NOCV, ADLD/ADEX, COVALED                  
  Martin Brehm           : Molecular dynamics                            
  Ronald Cardenas        : ETS/NOCV                                      
  Martina Colucci        : COVALED                                       
  Sebastian Ehlert       : rSCAN, r2SCAN, r2SCAN-3c, D4, dhf basis sets  
  Marvin Friede          : D4 for Fr, Ra, Ac-Lr                          
  Lars Goerigk           : TD-DFT with DH, B97 family of functionals     
  Stefan Grimme          : VdW corrections, initial TS optimization, DFT functionals, gCP, sTDA/sTD-DF 
  Waldemar Hujo          : DFT-NL                                        
  H. Jonsson             : NEB                                           
  Holger Kruse           : gCP                                           
  Marcel Mueller         : wB97X-3c, vDZP basis set                      
  Hagen Neugebauer       : wr2SCAN, Native XTB                           
  Gianluca Regni         : ADLD/ADEX                                     
  Tobias Risthaus        : pre 6.0 range-separated hybrid DFT and stability analysis
  Lukas Wittmann         : regularized MP2, r2SCAN double-hybrids, wr2SCAN        
                                                                         
We gratefully acknowledge several colleagues who have allowed us to      
interface, adapt or use parts of their codes:                            
  Ed Valeev, F. Pavosevic, A. Kumar             : LibInt (2-el integral package), F12 methods 
  Garnet Chan, S. Sharma, J. Yang, R. Olivares  : DMRG                   
  Ulf Ekstrom                                   : XCFun DFT Library      
  Mihaly Kallay                                 : mrcc  (arbitrary order and MRCC methods)
  Frank Weinhold                                : gennbo (NPA and NBO analysis)           
  Simon Mueller                                 : openCOSMO-RS                            
  Christopher J. Cramer and Donald G. Truhlar   : smd solvation model                     
  S Lehtola, MJT Oliveira, MAL Marques          : LibXC Library                           
  Liviu Ungur et al                             : ANISO software                          


 Your calculation uses the libint2 library for the computation of 2-el integrals
 For citations please refer to: http://libint.valeyev.net

 Your ORCA version has been built with support for libXC version: 7.0.0
 For citations please refer to: https://libxc.gitlab.io

 This ORCA versions uses:
   CBLAS   interface :  Fast vector & matrix operations
   LAPACKE interface :  Fast linear algebra routines
   SCALAPACK package :  Parallel linear algebra routines
   Shared memory     :  Shared parallel matrices
   BLAS/LAPACK       :  OpenBLAS 0.3.29  USE64BITINT DYNAMIC_ARCH NO_AFFINITY Zen SINGLE_THREADED
        Core in use  :  Zen
   Copyright (c) 2011-2014, The OpenBLAS Project


  ***********************************
  * Starting time: Sun Apr  5 13:00:05 2026
  * Host name:     QC1
  * Process ID:    4253
  * Working dir.:  /home/user/QC/h-shift/split_2
  ***********************************

NOTE: MaxCore=1200 MB was set to SCF,MP2,MDCI,CIPSI,MRCI,RASCI and CIS
      => If you want to overwrite this, your respective input block should be placed after the MaxCore statement
================================================================================

----- Orbital basis set information -----
Your calculation utilizes the basis: 6-31G
   H-He, Li-Ne : W. J. Hehre, R. Ditchfield and J.A. Pople, J. Chem. Phys. 56, 2257 (1972).
                 Note: He and Ne are unpublished basis sets taken from the Gaussian program.
                 Note: Li and B from J. D. Dill and J. A. Pople, J. Chem. Phys. 62, 2921 (1975).
   Na - Ar     : M. M. Francl, W. J. Pietro, W. J. Hehre, J. S. Binkley, M. S. Gordon, 
                 D. J. DeFrees and J. A. Pople, J. Chem. Phys. 77, 3654 (1982).
   K - Zn      : V. A. Rassolov, J. A. Pople, M. A. Ratner, and T. L. Windus, J. Chem. Phys. 109, 1223 (1998).

================================================================================
                                        WARNINGS
                       Please study these warnings very carefully!
================================================================================


================================================================================
                                       INPUT FILE
================================================================================
NAME = h-shift_014.inp
|  1> ! HF 6-31G
|  2> %maxcore 1200
|  3> %pal nprocs 8 end
|  4> * xyz 0 1
|  5> C   -0.00229500   0.01062700  -0.16971600
|  6> H    1.02053300   0.01592800  -0.52574900
|  7> C    2.57682100   0.00885300   1.52685200
|  8> C    2.04921200  -1.18273900   1.79356700
|  9> C    0.64878800  -1.60771900   1.65028600
| 10> C   -0.23630500  -1.13219900   0.77535200
| 11> H   -0.66311800  -0.02973200  -1.02433500
| 12> H   -0.17051900   0.96124800   0.32992700
| 13> H    1.98983900   0.86064000   1.25051800
| 14> H    3.63599000   0.16796400   1.57871000
| 15> H    2.71544300  -1.96232200   2.12227700
| 16> H    0.35284600  -2.43671000   2.27066900
| 17> H   -1.20146000  -1.60588500   0.72203200
| 18> *
| 19> 
| 20>                          ****END OF INPUT****
================================================================================

                       ****************************
                       * Single Point Calculation *
                       ****************************

---------------------------------
CARTESIAN COORDINATES (ANGSTROEM)
---------------------------------
  C     -0.002295    0.010627   -0.169716
  H      1.020533    0.015928   -0.525749
  C      2.576821    0.008853    1.526852
  C      2.049212   -1.182739    1.793567
  C      0.648788   -1.607719    1.650286
  C     -0.236305   -1.132199    0.775352
  H     -0.663118   -0.029732   -1.024335
  H     -0.170519    0.961248    0.329927
  H      1.989839    0.860640    1.250518
  H      3.635990    0.167964    1.578710
  H      2.715443   -1.962322    2.122277
  H      0.352846   -2.436710    2.270669
  H     -1.201460   -1.605885    0.722032

----------------------------
CARTESIAN COORDINATES (A.U.)
----------------------------
  NO LB      ZA    FRAG     MASS         X           Y           Z
   0 C     6.0000    0    12.011   -0.004337    0.020082   -0.320717
   1 H     1.0000    0     1.008    1.928528    0.030100   -0.993522
   2 C     6.0000    0    12.011    4.869486    0.016730    2.885332
   3 C     6.0000    0    12.011    3.872449   -2.235053    3.389350
   4 C     6.0000    0    12.011    1.226032   -3.038149    3.118589
   5 C     6.0000    0    12.011   -0.446552   -2.139546    1.465203
   6 H     1.0000    0     1.008   -1.253111   -0.056185   -1.935713
   7 H     1.0000    0     1.008   -0.322234    1.816495    0.623472
   8 H     1.0000    0     1.008    3.760251    1.626374    2.363137
   9 H     1.0000    0     1.008    6.871025    0.317406    2.983330
  10 H     1.0000    0     1.008    5.131444   -3.708251    4.010522
  11 H     1.0000    0     1.008    0.666782   -4.604715    4.290943
  12 H     1.0000    0     1.008   -2.270430   -3.034683    1.364443

--------------------------------
INTERNAL COORDINATES (ANGSTROEM)
--------------------------------
 C      0   0   0     0.000000000000     0.00000000     0.00000000
 H      1   0   0     1.083034955703     0.00000000     0.00000000
 C      2   1   0     2.575898534448   107.97607039     0.00000000
 C      3   2   1     1.330187822291    85.56059893    63.64438872
 C      4   3   2     1.470484554539   128.10480082   320.39831729
 C      5   4   3     1.332298162351   126.40724195    28.94974191
 H      1   2   3     1.081059443958   108.51761642   182.41885501
 H      1   2   3     1.087024713273   107.03610210    66.62770065
 H      3   2   1     1.070723793165    57.38095674   289.13674018
 H      3   2   1     1.072308040185   129.41248166   190.85876672
 H      4   3   2     1.076876809737   117.66589879   137.87781909
 H      5   4   3     1.076885700589   115.34482695   203.94294669
 H      6   5   4     1.076450474021   118.10693636   174.20138906

---------------------------
INTERNAL COORDINATES (A.U.)
---------------------------
 C      0   0   0     0.000000000000     0.00000000     0.00000000
 H      1   0   0     2.046639459742     0.00000000     0.00000000
 C      2   1   0     4.867742778875   107.97607039     0.00000000
 C      3   2   1     2.513690690806    85.56059893    63.64438872
 C      4   3   2     2.778813092239   128.10480082   320.39831729
 C      5   4   3     2.517678655571   126.40724195    28.94974191
 H      1   2   3     2.042906283570   108.51761642   182.41885501
 H      1   2   3     2.054179008890   107.03610210    66.62770065
 H      3   2   1     2.023374734155    57.38095674   289.13674018
 H      3   2   1     2.026368527152   129.41248166   190.85876672
 H      4   3   2     2.035002250374   117.66589879   137.87781909
 H      5   4   3     2.035019051650   115.34482695   203.94294669
 H      6   5   4     2.034196592630   118.10693636   174.20138906

---------------------
BASIS SET INFORMATION
---------------------
There are 2 groups of distinct atoms

 Group   1 Type C   : 10s4p contracted to 3s2p pattern {631/31}
 Group   2 Type H   : 4s contracted to 2s pattern {31}

Atom   0C    basis set group =>   1
Atom   1H    basis set group =>   2
Atom   2C    basis set group =>   1
Atom   3C    basis set group =>   1
Atom   4C    basis set group =>   1
Atom   5C    basis set group =>   1
Atom   6H    basis set group =>   2
Atom   7H    basis set group =>   2
Atom   8H    basis set group =>   2
Atom   9H    basis set group =>   2
Atom  10H    basis set group =>   2
Atom  11H    basis set group =>   2
Atom  12H    basis set group =>   2


           ************************************************************
           *        Program running with 8 parallel MPI-processes     *
           *              working on a common directory               *
           ************************************************************
------------------------------------------------------------------------------
                             ORCA STARTUP CALCULATIONS
------------------------------------------------------------------------------
------------------------------------------------------------------------------
                   ___                                                        
                  /   \      - P O W E R E D   B Y -                         
                 /     \                                                     
                 |  |  |   _    _      __       _____    __    __             
                 |  |  |  | |  | |    /  \     |  _  \  |  |  /  |          
                  \  \/   | |  | |   /    \    | | | |  |  | /  /          
                 / \  \   | |__| |  /  /\  \   | |_| |  |  |/  /          
                |  |  |   |  __  | /  /__\  \  |    /   |      \           
                |  |  |   | |  | | |   __   |  |    \   |  |\   \          
                \     /   | |  | | |  |  |  |  | |\  \  |  | \   \       
                 \___/    |_|  |_| |__|  |__|  |_| \__\ |__|  \__/        
                                                                              
                      - O R C A' S   B I G   F R I E N D -                    
                                      &                                       
                       - I N T E G R A L  F E E D E R -                       
                                                                              
 v1 FN, 2020, v2 2021, v3 2022-2024                                           
------------------------------------------------------------------------------


----------------------
SHARK INTEGRAL PACKAGE
----------------------

Number of atoms                             ...     13
Number of basis functions                   ...     61
Number of shells                            ...     41
Maximum angular momentum                    ...      1
Integral batch strategy                     ... SHARK/LIBINT Hybrid
RI-J (if used) integral strategy            ... SPLIT-RIJ (Revised 2003 algorithm where possible)
Printlevel                                  ...      1
Contraction scheme used                     ... SEGMENTED contraction
Prescreening option                         ... SCHWARTZ
   Thresh                                   ... 1.000e-10
   Tcut                                     ... 1.000e-11
   Tpresel                                  ... 1.000e-11 
Coulomb Range Separation                    ... NOT USED
Exchange Range Separation                   ... NOT USED
Multipole approximations                    ... NOT USED
Finite Nucleus Model                        ... NOT USED
CABS basis                                  ... NOT available
Auxiliary Coulomb fitting basis             ... NOT available
Auxiliary J/K fitting basis                 ... NOT available
Auxiliary Correlation fitting basis         ... NOT available
Auxiliary 'external' fitting basis          ... NOT available

Checking pre-screening integrals            ... done (  0.0 sec) Dimension = 41
   => SHARK Basis and OBASIS are compatible. Storing Pre-screening
Shell pair information
Shell pair cut-off parameter TPreSel        ...   1.0e-11
Total number of shell pairs                 ...       861
Shell pairs after pre-screening             ...       846
Total number of primitive shell pairs       ...      5382
Primitive shell pairs kept                  ...      3730
          la=0 lb=0:    481 shell pairs
          la=1 lb=0:    310 shell pairs
          la=1 lb=1:     55 shell pairs

Checking whether 4 symmetric matrices of dimension 61 fit in memory
:Max Core in MB      =   1200.00
 MB in use           =      2.04
 MB left             =   1197.96
 MB needed           =      0.06
 Data fit in memory  = YES
Calculating Nuclear repulsion               ... done (  0.0 sec) ENN=    160.596494682215 Eh

Diagonalization of the overlap matrix:
Smallest eigenvalue                        ... 3.358e-03
Time for diagonalization                   ...    0.001 sec
Threshold for overlap eigenvalues          ... 1.000e-07
Number of eigenvalues below threshold      ... 0
Time for construction of square roots      ...    0.000 sec
Total time needed                          ...    0.001 sec

-------------------
DFT GRID GENERATION
-------------------

General Integration Accuracy     IntAcc      ... 4.388
Radial Grid Type                 RadialGrid  ... OptM3 with GC (2021)
Angular Grid (max. ang.)         AngularGrid ... 4 (Lebedev-302)
Angular grid pruning method      GridPruning ... 4 (adaptive)
Weight generation scheme         WeightScheme... mBecke (2022)
Basis function cutoff            BFCut       ... 1.0000e-10
Integration weight cutoff        WCut        ... 1.0000e-14
Partially contracted basis set               ... off
Rotationally invariant grid construction     ... off
Angular grids for H and He will be reduced by one unit

Total number of grid points                  ...    56055
Total number of batches                      ...      883
Average number of points per batch           ...       63
Average number of grid points per atom       ...     4312
Grids setup in   0.2 sec
Initializing property integral containers    ... done (  0.0 sec)

SHARK setup successfully completed in   0.2 seconds

Maximum memory used throughout the entire STARTUP-calculation: 11.8 MB


           ************************************************************
           *        Program running with 8 parallel MPI-processes     *
           *              working on a common directory               *
           ************************************************************
-------------------------------------------------------------------------------
                                 ORCA GUESS
                   Start orbitals & Density for SCF / CASSCF
-------------------------------------------------------------------------------

------------
SCF SETTINGS
------------
Hamiltonian:
 Ab initio Hamiltonian  Method          .... Hartree-Fock(GTOs)


General Settings:
 Integral files         IntName         .... h-shift_014
 Hartree-Fock type      HFTyp           .... RHF
 Total Charge           Charge          ....    0
 Multiplicity           Mult            ....    1
 Number of Electrons    NEL             ....   38
 Basis Dimension        Dim             ....   61
 Nuclear Repulsion      ENuc            ....    160.5964946822 Eh

Convergence Acceleration:
 AO-DIIS                CNVDIIS         .... on
   Start iteration      DIISMaxIt       ....    12
   Startup error        DIISStart       ....  0.200000
   # of expansion vecs  DIISMaxEq       ....     5
   Bias factor          DIISBfac        ....   1.050
   Max. coefficient     DIISMaxC        ....  10.000
 MO-DIIS                CNVKDIIS        .... off
 Trust-Rad. Augm. Hess. CNVTRAH         .... auto
   Auto Start mean grad. ratio tolernc. ....  1.125000
   Auto Start start iteration           ....    50
   Auto Start num. interpolation iter.  ....    10
   Max. Number of Micro iterations      ....    24
   Max. Number of Macro iterations      .... Maxiter - #DIIS iter
   Number of Davidson start vectors     ....     2
   Converg. threshold    (grad. norm)   ....   5.000e-05
   Grad. Scal. Fac. for Micro threshold ....   0.100
   Minimum threshold for Micro iter.    ....   1.000e-02
   NR start threshold (gradient norm)   ....   1.000e-04
   Initial trust radius                 ....   0.400
   Minimum AH scaling param. (alpha)    ....   1.000
   Maximum AH scaling param. (alpha)    .... 1000.000
   Quad. conv. algorithm                .... NR
   White noise on init. David. guess    .... on
   Maximum white noise                  ....   0.010
   Pseudo random numbers                .... off
   Inactive MOs                         .... canonical
   Orbital update algorithm             .... Taylor
   Preconditioner                       .... Diag
   Full preconditioner red. dimension   ....   250
 SOSCF                 CNVSOSCF           .... on
   Start iteration     SOSCFMaxIt         ....   150
   Startup grad/error  SOSCFStart         ....  0.003300
   Hessian update      SOSCFHessUp        .... L-BFGS
   Autom. constraints  SOSCFAutoConstrain .... off
 Level Shifting         CNVShift        .... on
   Level shift para.    LevelShift      ....    0.2500
   Turn off err/grad.   ShiftErr        ....    0.0010
 Zerner damping         CNVZerner       .... off
 Static damping         CNVDamp         .... on
   Fraction old density DampFac         ....    0.7000
   Max. Damping (<1)    DampMax         ....    0.9800
   Min. Damping (>=0)   DampMin         ....    0.0000
   Turn off err/grad.   DampErr         ....    0.1000

SCF Procedure:
 Maximum # iterations   MaxIter         ....   125
 SCF integral mode      SCFMode         .... Direct
   Integral package                     .... SHARK and LIBINT hybrid scheme
 Reset frequency        DirectResetFreq ....    20
 Integral Threshold     Thresh          ....  1.000e-10 Eh
 Primitive CutOff       TCut            ....  1.000e-11 Eh

Convergence Tolerance:
 Convergence Check Mode ConvCheckMode   .... Total+1el-Energy
 Convergence forced     ConvForced      .... 0
 Energy Change          TolE            ....  1.000e-06 Eh
 1-El. energy change                    ....  1.000e-03 Eh
 Orbital Gradient       TolG            ....  5.000e-05
 Orbital Rotation angle TolX            ....  5.000e-05
 DIIS Error             TolErr          ....  1.000e-06

------------------------------
INITIAL GUESS: MODEL POTENTIAL
------------------------------
Loading Hartree-Fock densities                     ... done
Calculating cut-offs                               ... done
Initializing the effective Hamiltonian             ... done
Setting up the integral package (SHARK)            ... done
Starting the Coulomb interaction                   ... done (   0.0 sec)
Making the grid                                    ... done (   0.1 sec)
Mapping shells                                     ... done
Starting the XC term evaluation                    ... done (   0.0 sec)
Transforming the Hamiltonian                       ... done (   0.0 sec)
Diagonalizing the Hamiltonian                      ... done (   0.0 sec)
Back transforming the eigenvectors                 ... done (   0.0 sec)
Now organizing SCF variables                       ... done
                      ------------------
                      INITIAL GUESS DONE (   0.1 sec)
                      ------------------
             **** ENERGY FILE WAS UPDATED (h-shift_014.en.tmp) ****
Finished Guess after   0.3 sec
Maximum memory used throughout the entire GUESS-calculation: 4.2 MB


           ************************************************************
           *        Program running with 8 parallel MPI-processes     *
           *              working on a common directory               *
           ************************************************************

-------------------------------------------------------------------------------------------
                                      ORCA LEAN-SCF
                              memory conserving SCF solver
-------------------------------------------------------------------------------------------

----------------------------------------D-I-I-S--------------------------------------------
Iteration    Energy (Eh)           Delta-E    RMSDP     MaxDP     DIISErr   Damp  Time(sec)
-------------------------------------------------------------------------------------------
               ***  Starting incremental Fock matrix formation  ***
    1    -193.6464323676225945     0.00e+00  1.57e-02  5.35e-02  1.89e-01  0.700   0.0
    2    -193.7274408121698457    -8.10e-02  1.25e-02  4.06e-02  1.24e-01  0.700   0.0
                               ***Turning on AO-DIIS***
    3    -193.7775355438511724    -5.01e-02  7.71e-03  2.04e-02  7.40e-02  0.700   0.0
    4    -193.8091933313115192    -3.17e-02  1.83e-02  4.34e-02  5.01e-02  0.000   0.0
                              *** Initializing SOSCF ***
---------------------------------------S-O-S-C-F--------------------------------------
Iteration    Energy (Eh)           Delta-E    RMSDP     MaxDP     MaxGrad    Time(sec)
--------------------------------------------------------------------------------------
    5    -193.8776795730328786    -6.85e-02  1.70e-03  2.81e-03  2.79e-03     0.0
               *** Restarting incremental Fock matrix formation ***
    6    -193.8778004231390923    -1.21e-04  8.67e-04  1.82e-03  1.35e-03     0.0
    7    -193.8778357564264070    -3.53e-05  5.38e-04  1.18e-03  5.48e-04     0.0
    8    -193.8778425122186491    -6.76e-06  7.04e-05  1.81e-04  1.34e-04     0.0
    9    -193.8778427254441681    -2.13e-07  3.18e-05  7.80e-05  3.37e-05     0.0
                 **** Energy Check signals convergence ****

               *****************************************************
               *                     SUCCESS                       *
               *           SCF CONVERGED AFTER   9 CYCLES          *
               *****************************************************

             **** ENERGY FILE WAS UPDATED (h-shift_014.en.tmp) ****

----------------
TOTAL SCF ENERGY
----------------

Total Energy       :       -193.87784278102237 Eh           -5275.68431 eV

Components:
Nuclear Repulsion  :        160.59649468221454 Eh            4370.05279 eV
Electronic Energy  :       -354.47433746323691 Eh           -9645.73710 eV
One Electron Energy:       -578.15342445549174 Eh          -15732.35450 eV
Two Electron Energy:        223.67908699225484 Eh            6086.61739 eV

Virial components:
Potential Energy   :       -388.04121054422251 Eh          -10559.13816 eV
Kinetic Energy     :        194.16336776320011 Eh            5283.45384 eV
Virial Ratio       :          1.99852946008577

---------------
SCF CONVERGENCE
---------------

  Last Energy change         ...    2.1323e-07  Tolerance :   1.0000e-06
  Last MAX-Density change    ...    7.7963e-05  Tolerance :   1.0000e-05
  Last RMS-Density change    ...    3.1848e-05  Tolerance :   1.0000e-06
  Last DIIS Error            ...    2.7921e-03  Tolerance :   1.0000e-06
  Last Orbital Gradient      ...    3.3708e-05  Tolerance :   5.0000e-05
  Last Orbital Rotation      ...    3.2753e-05  Tolerance :   5.0000e-05


----------------
ORBITAL ENERGIES
----------------

  NO   OCC          E(Eh)            E(eV) 
   0   2.0000     -11.236070      -305.7490 
   1   2.0000     -11.235473      -305.7328 
   2   2.0000     -11.227435      -305.5140 
   3   2.0000     -11.221603      -305.3553 
   4   2.0000     -11.215492      -305.1891 
   5   2.0000      -1.099977       -29.9319 
   6   2.0000      -1.021453       -27.7952 
   7   2.0000      -0.941119       -25.6092 
   8   2.0000      -0.814217       -22.1560 
   9   2.0000      -0.716883       -19.5074 
  10   2.0000      -0.667083       -18.1522 
  11   2.0000      -0.603890       -16.4327 
  12   2.0000      -0.584859       -15.9148 
  13   2.0000      -0.567383       -15.4393 
  14   2.0000      -0.541085       -14.7237 
  15   2.0000      -0.506834       -13.7917 
  16   2.0000      -0.468844       -12.7579 
  17   2.0000      -0.412360       -11.2209 
  18   2.0000      -0.315566        -8.5870 
  19   0.0000       0.132532         3.6064 
  20   0.0000       0.233145         6.3442 
  21   0.0000       0.253452         6.8968 
  22   0.0000       0.264776         7.2049 
  23   0.0000       0.291765         7.9393 
  24   0.0000       0.320025         8.7083 
  25   0.0000       0.337275         9.1777 
  26   0.0000       0.347203         9.4479 
  27   0.0000       0.358589         9.7577 
  28   0.0000       0.367632        10.0038 
  29   0.0000       0.428618        11.6633 
*Only the first 10 virtual orbitals were printed.

                    ********************************
                    * MULLIKEN POPULATION ANALYSIS *
                    ********************************

-----------------------
MULLIKEN ATOMIC CHARGES
-----------------------
   0 C :   -0.508582
   1 H :    0.181212
   2 C :   -0.361963
   3 C :   -0.151438
   4 C :   -0.196300
   5 C :   -0.148436
   6 H :    0.159510
   7 H :    0.170714
   8 H :    0.171517
   9 H :    0.161890
  10 H :    0.173353
  11 H :    0.174645
  12 H :    0.173877
Sum of atomic charges:    0.0000000

--------------------------------
MULLIKEN REDUCED ORBITAL CHARGES
--------------------------------
  0 C s       :     3.366495  s :     3.366495
      pz      :     1.032706  p :     3.142087
      px      :     1.111619
      py      :     0.997762

  1 H s       :     0.818788  s :     0.818788

  2 C s       :     3.266048  s :     3.266048
      pz      :     1.018610  p :     3.095916
      px      :     1.081860
      py      :     0.995446

  3 C s       :     3.194403  s :     3.194403
      pz      :     0.998482  p :     2.957035
      px      :     0.963652
      py      :     0.994901

  4 C s       :     3.192977  s :     3.192977
      pz      :     1.016603  p :     3.003322
      px      :     0.922164
      py      :     1.064556

  5 C s       :     3.210285  s :     3.210285
      pz      :     0.942608  p :     2.938150
      px      :     1.036771
      py      :     0.958771

  6 H s       :     0.840490  s :     0.840490

  7 H s       :     0.829286  s :     0.829286

  8 H s       :     0.828483  s :     0.828483

  9 H s       :     0.838110  s :     0.838110

 10 H s       :     0.826647  s :     0.826647

 11 H s       :     0.825355  s :     0.825355

 12 H s       :     0.826123  s :     0.826123



                     *******************************
                     * LOEWDIN POPULATION ANALYSIS *
                     *******************************

----------------------
LOEWDIN ATOMIC CHARGES
----------------------
   0 C :   -0.319127
   1 H :    0.124266
   2 C :   -0.246107
   3 C :   -0.113984
   4 C :   -0.149605
   5 C :   -0.107696
   6 H :    0.111168
   7 H :    0.117254
   8 H :    0.117449
   9 H :    0.116229
  10 H :    0.116527
  11 H :    0.117239
  12 H :    0.116389

-------------------------------
LOEWDIN REDUCED ORBITAL CHARGES
-------------------------------
  0 C s       :     2.976068  s :     2.976068
      pz      :     1.105544  p :     3.343059
      px      :     1.144413
      py      :     1.093102

  1 H s       :     0.875734  s :     0.875734

  2 C s       :     2.988280  s :     2.988280
      pz      :     1.036052  p :     3.257827
      px      :     1.114772
      py      :     1.107002

  3 C s       :     2.944965  s :     2.944965
      pz      :     0.987931  p :     3.169019
      px      :     1.071394
      py      :     1.109694

  4 C s       :     2.940382  s :     2.940382
      pz      :     1.074225  p :     3.209222
      px      :     1.064241
      py      :     1.070757

  5 C s       :     2.951476  s :     2.951476
      pz      :     1.032035  p :     3.156220
      px      :     1.091854
      py      :     1.032331

  6 H s       :     0.888832  s :     0.888832

  7 H s       :     0.882746  s :     0.882746

  8 H s       :     0.882551  s :     0.882551

  9 H s       :     0.883771  s :     0.883771

 10 H s       :     0.883473  s :     0.883473

 11 H s       :     0.882761  s :     0.882761

 12 H s       :     0.883611  s :     0.883611



                      *****************************
                      * MAYER POPULATION ANALYSIS *
                      *****************************

  NA   - Mulliken gross atomic population
  ZA   - Total nuclear charge
  QA   - Mulliken gross atomic charge
  VA   - Mayer's total valence
  BVA  - Mayer's bonded valence
  FA   - Mayer's free valence

  ATOM       NA         ZA         QA         VA         BVA        FA
  0 C      6.5086     6.0000    -0.5086     3.7718     3.7718     0.0000
  1 H      0.8188     1.0000     0.1812     0.9308     0.9308     0.0000
  2 C      6.3620     6.0000    -0.3620     3.8461     3.8461     0.0000
  3 C      6.1514     6.0000    -0.1514     3.8088     3.8088     0.0000
  4 C      6.1963     6.0000    -0.1963     3.8251     3.8251     0.0000
  5 C      6.1484     6.0000    -0.1484     3.7679     3.7679     0.0000
  6 H      0.8405     1.0000     0.1595     0.9323     0.9323     0.0000
  7 H      0.8293     1.0000     0.1707     0.9223     0.9223     0.0000
  8 H      0.8285     1.0000     0.1715     0.9391     0.9391     0.0000
  9 H      0.8381     1.0000     0.1619     0.9439     0.9439     0.0000
 10 H      0.8266     1.0000     0.1734     0.9372     0.9372     0.0000
 11 H      0.8254     1.0000     0.1746     0.9388     0.9388     0.0000
 12 H      0.8261     1.0000     0.1739     0.9387     0.9387     0.0000

  Mayer bond orders larger than 0.100000
B(  0-C ,  1-H ) :   0.9442 B(  0-C ,  5-C ) :   0.9581 B(  0-C ,  6-H ) :   0.9595 
B(  0-C ,  7-H ) :   0.9451 B(  2-C ,  3-C ) :   1.8809 B(  2-C ,  8-H ) :   0.9616 
B(  2-C ,  9-H ) :   0.9628 B(  3-C ,  4-C ) :   1.0452 B(  3-C , 10-H ) :   0.9577 
B(  4-C ,  5-C ) :   1.8835 B(  4-C , 11-H ) :   0.9567 B(  5-C , 12-H ) :   0.9579 


-------
TIMINGS
-------

Total SCF time: 0 days 0 hours 0 min 0 sec 

Total time                  ....       0.629 sec
Sum of individual times     ....       0.586 sec  ( 93.3%)

SCF preparation             ....       0.251 sec  ( 39.9%)
Fock matrix formation       ....       0.281 sec  ( 44.7%)
  Startup                   ....       0.001 sec  (  0.5% of F)
  Coulomb+Exchange Fock     ....       0.300 sec  (106.6% of F)
Diagonalization             ....       0.000 sec  (  0.0%)
Density matrix formation    ....       0.008 sec  (  1.2%)
Total Energy calculation    ....       0.004 sec  (  0.7%)
Population analysis         ....       0.004 sec  (  0.7%)
Orbital Transformation      ....       0.004 sec  (  0.7%)
Orbital Orthonormalization  ....       0.000 sec  (  0.0%)
DIIS solution               ....       0.020 sec  (  3.2%)
SOSCF solution              ....       0.013 sec  (  2.1%)
Finished LeanSCF after   0.6 sec

Maximum memory used throughout the entire LEANSCF-calculation: 6.4 MB

-------------------------   --------------------
FINAL SINGLE POINT ENERGY      -193.877842781022
-------------------------   --------------------



           ************************************************************
           *        Program running with 8 parallel MPI-processes     *
           *              working on a common directory               *
           ************************************************************

------------------------------------------------------------------------------
                              ORCA PROPERTY CALCULATIONS
------------------------------------------------------------------------------

GBWName                                 ... h-shift_014.gbw
Number of atoms                         ...     13
Number of basis functions               ...     61
Max core memory                         ...   1200 MB

Electric properties:
Dipole moment                           ... YES
Quadrupole moment                       ...  NO
Static polarizability (Dipole/Dipole)   ...  NO
Static polarizability (Dipole/Quad.)    ...  NO
Static polarizability (Quad./Quad.)     ...  NO
Static polarizability (Velocity)        ...  NO
Static hyperpolarizability              ...  NO

Atomic electric properties:
Dipole moment                           ...  NO
Quadrupole moment                       ...  NO
Static polarizability                   ...  NO

Choice of electric origin               ... Center of mass
Position of electric origin             ...     1.892834    -1.413214     2.046085

General magnetic properties:
Magnetizability                         ...  NO

EPR properties:
g-Tensor (aka g-matrix)                 ...  NO
Zero-Field splitting spin-orbit         ...  NO
Zero-field splitting spin-spin          ...  NO
Hyperfine couplings                     ...  NO (   0 nuclei)
Quadrupole couplings                    ...  NO (   0 nuclei)
Contact density                         ...  NO (   0 nuclei)

NMR properties:
Chemical shifts                         ...  NO (   0 nuclei)
Spin-rotation constants                 ...  NO (   0 nuclei)
Spin-spin couplings                     ...  NO (   0 nuclei,    0 pairs)

Choice of magnetic origin               ... GIAO
Position of magnetic origin             ...     0.000000     0.000000     0.000000

Properties with geometric perturbations:
SCF Hessian                             ...  NO
IR spectrum                             ...  NO
VCD spectrum                            ...  NO
X-ray spectroscopy properties:
SCF XES/XAS/RIXS spectra                ...  NO

SCF SOC stabilization energy            ...  NO
Diagonal Born-Oppenheimer correction    ...  NO

-------------
DIPOLE MOMENT
-------------

Method             : SCF
Type of density    : Electron Density
Multiplicity       :   1
Irrep              :   0
Energy             :  -193.8778427810223661 Eh
Basis              : AO
                                X                 Y                 Z
Electronic contribution:      0.254846498      -1.817175713       1.712832402
Nuclear contribution   :     -0.312979641       1.833061991      -1.818076669
                        -----------------------------------------
Total Dipole Moment    :     -0.058133143       0.015886278      -0.105244267
                        -----------------------------------------
Magnitude (a.u.)       :      0.121277335
Magnitude (Debye)      :      0.308262486



--------------------
Rotational spectrum 
--------------------
 
Rotational constants in cm-1:             0.287509             0.138193             0.096554 
Rotational constants in MHz :          8619.290361          4142.909892          2894.618859 

Dipole components along the rotational axes: 
x,y,z [a.u.] :     0.102442     0.047104    -0.044666 
x,y,z [Debye]:     0.260387     0.119729    -0.113532 

 

Dipole moment calculation done in   0.0 sec 

Maximum memory used throughout the entire PROP-calculation: 2.2 MB

--------------------------------
SUGGESTED CITATIONS FOR THIS RUN
--------------------------------

Below you find a list of papers that are relevant to this ORCA run
We neither can nor want to force you to cite these papers, but we appreciate if you do
You receive ORCA, which is the product of decades of hard work by many enthusiastic individuals, for free
The only thing we kindly ask in return is that you cite our papers,
We deeply appreciate it, if you show your appreciation for ORCA by not just citing the generic ORCA reference.

Please note that relegating all ORCA citations to the supporting information does *not* help us.
SI sections are not indexed - citations you put there will not count into any citation statistics
But we need these citations in order to attract the funding resources that allow us to do what we are doing

Therefore, if you are a happy ORCA user, please consider citing a few of the papers listed below in the main body of your paper

In addition to the list printed below, the program has created the file h-shift_014.bibtex that contains the list in bibtex format
You can import this file easily into all common literature databanks and citation aid programs


List of essential papers. We consider these as the minimum necessary citations

  1. Neese, F.
     Software update: the ORCA program system, version 6.0
     WIRES Comput. Molec. Sci. 2025 15(1), e70019
     doi.org/10.1002/wcms.7019

List of papers to cite with high priority. The work reported in these papers was absolutely
necessary for this run to complete.
Our perspective: the developers of density functionals and basis sets usually get cited in chemistry papers
Good! But without the algorithms to do something with them, the functionals or basis sets would not do anything.
Hence, in our opinion, the algorithm design and method developments papers are equally worthy of getting cited

  1. Neese, F.
     The SHARK Integral Generation and Digestion System
     J. Comp. Chem. 2022 44(3), 381
     doi.org/10.1002/jcc.26942

List of suggested additional citations. These are papers that are important in the 'surrounding' of 
of this run, or papers that preceded the highly important papers. If you like your results we are grateful for a citation.

  1. Neese, F.
     The ORCA program system
     WIRES Comput. Molec. Sci. 2012 2(1), 73-78
     doi.org/10.1002/wcms.81
  2. Neese, F.
     Software update: the ORCA program system, version 4.0
     WIRES Comput. Molec. Sci. 2018 8(1), 1-6
     doi.org/10.1002/wcms.1327
  3. Neese, F.; Wennmohs, F.; Becker, U.; Riplinger, C.
     The ORCA quantum chemistry program package
     J. Chem. Phys. 2020 152(22), 224108
     doi.org/10.1063/5.0004608
  4. Neese, F.
     Software update: The ORCA program system—Version 5.0
     WIRES Comput. Molec. Sci. 2022 12(1), e1606
     doi.org/10.1002/wcms.1606

List of optional additional citations

  1. Neese, F.
     Approximate second-order SCF convergence for spin unrestricted wavefunctions
     Chem. Phys. Lett. 2000 325(1-3), 93-98
     doi.org/10.1016/s0009-2614(00)00662-x

Timings for individual modules:

Sum of individual times          ...        2.193 sec (=   0.037 min)
Startup calculation              ...        0.634 sec (=   0.011 min)  28.9 %
SCF iterations                   ...        1.196 sec (=   0.020 min)  54.5 %
Property calculations            ...        0.363 sec (=   0.006 min)  16.5 %
                             ****ORCA TERMINATED NORMALLY****
TOTAL RUN TIME: 0 days 0 hours 0 minutes 2 seconds 650 msec
