[Molden Format]
[Title]
 Molden file created by orca_2mkl for BaseName=h-shift_057

[Atoms] AU
C    1   6         -0.5825591034         0.0580032540         0.0753925138 
H    2   1          3.5909218504        -0.0479669185         0.1404331079 
C    3   6          4.4476291932         0.0338808999         1.9985894770 
C    4   6          3.5138172446        -2.1940268435         3.4646125556 
C    5   6          1.1280928026        -3.0057114612         3.3107038106 
C    6   6         -0.6160393813        -2.1243431924         1.3399821248 
H    7   1         -1.3737609795         0.1974612632        -1.7862881945 
H    8   1          0.3157996931         1.7352504711         0.7546129987 
H    9   1          3.8217178826         1.8090045924         2.8192691911 
H   10   1          6.4712858874         0.0934526265         1.7904096872 
H   11   1          4.8785056490        -3.2795403369         4.5150886367 
H   12   1          0.5784432799        -4.6717015798         4.3433503257 
H   13   1         -1.8305021169        -3.5928323635         0.6340768172 
[GTO]
  1 0
s   6 1.0 
     3047.5249000000         0.5363343823
      457.3695100000         0.9894506076
      103.9486900000         1.5972822308
       29.2101550000         2.0791870615
        9.2866630000         1.7741742532
        3.1639270000         0.6125798260
s   3 1.0 
        7.8682724000        -0.3995563516
        1.8812885000        -0.1841552393
        0.5442493000         0.5163903794
p   3 1.0 
        7.8682724000         1.2960827175
        1.8812885000         0.9937536282
        0.5442493000         0.4959527138
s   1 1.0 
        0.1687144000         0.1876178721
p   1 1.0 
        0.1687144000         0.1541275509

  2 0
s   3 1.0 
       18.7311370000         0.2149354183
        2.8253937000         0.3645711272
        0.6401217000         0.4150514277
s   1 1.0 
        0.1612778000         0.1813806839

  3 0
s   6 1.0 
     3047.5249000000         0.5363343823
      457.3695100000         0.9894506076
      103.9486900000         1.5972822308
       29.2101550000         2.0791870615
        9.2866630000         1.7741742532
        3.1639270000         0.6125798260
s   3 1.0 
        7.8682724000        -0.3995563516
        1.8812885000        -0.1841552393
        0.5442493000         0.5163903794
p   3 1.0 
        7.8682724000         1.2960827175
        1.8812885000         0.9937536282
        0.5442493000         0.4959527138
s   1 1.0 
        0.1687144000         0.1876178721
p   1 1.0 
        0.1687144000         0.1541275509

  4 0
s   6 1.0 
     3047.5249000000         0.5363343823
      457.3695100000         0.9894506076
      103.9486900000         1.5972822308
       29.2101550000         2.0791870615
        9.2866630000         1.7741742532
        3.1639270000         0.6125798260
s   3 1.0 
        7.8682724000        -0.3995563516
        1.8812885000        -0.1841552393
        0.5442493000         0.5163903794
p   3 1.0 
        7.8682724000         1.2960827175
        1.8812885000         0.9937536282
        0.5442493000         0.4959527138
s   1 1.0 
        0.1687144000         0.1876178721
p   1 1.0 
        0.1687144000         0.1541275509

  5 0
s   6 1.0 
     3047.5249000000         0.5363343823
      457.3695100000         0.9894506076
      103.9486900000         1.5972822308
       29.2101550000         2.0791870615
        9.2866630000         1.7741742532
        3.1639270000         0.6125798260
s   3 1.0 
        7.8682724000        -0.3995563516
        1.8812885000        -0.1841552393
        0.5442493000         0.5163903794
p   3 1.0 
        7.8682724000         1.2960827175
        1.8812885000         0.9937536282
        0.5442493000         0.4959527138
s   1 1.0 
        0.1687144000         0.1876178721
p   1 1.0 
        0.1687144000         0.1541275509

  6 0
s   6 1.0 
     3047.5249000000         0.5363343823
      457.3695100000         0.9894506076
      103.9486900000         1.5972822308
       29.2101550000         2.0791870615
        9.2866630000         1.7741742532
        3.1639270000         0.6125798260
s   3 1.0 
        7.8682724000        -0.3995563516
        1.8812885000        -0.1841552393
        0.5442493000         0.5163903794
p   3 1.0 
        7.8682724000         1.2960827175
        1.8812885000         0.9937536282
        0.5442493000         0.4959527138
s   1 1.0 
        0.1687144000         0.1876178721
p   1 1.0 
        0.1687144000         0.1541275509

  7 0
s   3 1.0 
       18.7311370000         0.2149354183
        2.8253937000         0.3645711272
        0.6401217000         0.4150514277
s   1 1.0 
        0.1612778000         0.1813806839

  8 0
s   3 1.0 
       18.7311370000         0.2149354183
        2.8253937000         0.3645711272
        0.6401217000         0.4150514277
s   1 1.0 
        0.1612778000         0.1813806839

  9 0
s   3 1.0 
       18.7311370000         0.2149354183
        2.8253937000         0.3645711272
        0.6401217000         0.4150514277
s   1 1.0 
        0.1612778000         0.1813806839

 10 0
s   3 1.0 
       18.7311370000         0.2149354183
        2.8253937000         0.3645711272
        0.6401217000         0.4150514277
s   1 1.0 
        0.1612778000         0.1813806839

 11 0
s   3 1.0 
       18.7311370000         0.2149354183
        2.8253937000         0.3645711272
        0.6401217000         0.4150514277
s   1 1.0 
        0.1612778000         0.1813806839

 12 0
s   3 1.0 
       18.7311370000         0.2149354183
        2.8253937000         0.3645711272
        0.6401217000         0.4150514277
s   1 1.0 
        0.1612778000         0.1813806839

 13 0
s   3 1.0 
       18.7311370000         0.2149354183
        2.8253937000         0.3645711272
        0.6401217000         0.4150514277
s   1 1.0 
        0.1612778000         0.1813806839

[5D]
[7F]
[9G]
[MO]
 Sym=     1a
 Ene= -1.12370190801927E+01
 Spin= Alpha
 Occup= 2.000000
  1       0.002671821863
  2       0.000041586314
  3      -0.000003744225
  4       0.000000110823
  5      -0.000037574498
  6       0.000461047638
  7       0.000000324644
  8       0.000048992015
  9       0.000280147694
 10      -0.000195723909
 11       0.000451638734
 12       0.012774354081
 13      -0.000057020022
 14       0.000009547069
 15       0.000162917882
 16      -0.000062355521
 17       0.003570012524
 18      -0.000953039273
 19      -0.002210540463
 20       0.001067092856
 21       0.988832411592
 22       0.024674846256
 23      -0.000162432750
 24       0.000035789848
 25      -0.000132668461
 26      -0.017187119945
 27       0.001594424818
 28      -0.001031594079
 29       0.001553856027
 30       0.103670451365
 31       0.001616905861
 32      -0.000191222542
 33      -0.000125735378
 34      -0.000003696315
 35       0.005241735435
 36       0.002407693504
 37       0.001883230539
 38      -0.000645109500
 39       0.059682427684
 40       0.001232639649
 41      -0.000117570471
 42       0.000083489892
 43      -0.000103192850
 44      -0.001113312849
 45      -0.000191438720
 46      -0.000389171886
 47      -0.000088166845
 48       0.000009457896
 49       0.000097793468
 50       0.000007349638
 51      -0.000383643661
 52      -0.000204919008
 53       0.000839258419
 54      -0.000083976300
 55       0.000162725404
 56      -0.000252664787
 57       0.002081456141
 58      -0.000071354672
 59       0.000745109240
 60      -0.000033547069
 61       0.000094009003
 Sym=     1a
 Ene= -1.12365169254637E+01
 Spin= Alpha
 Occup= 2.000000
  1      -0.051809778859
  2      -0.000552719786
  3      -0.000057796271
  4      -0.000191772227
  5       0.000152735752
  6      -0.005059732842
  7      -0.000375125414
  8       0.002072213150
  9      -0.001897002267
 10       0.000096180638
 11      -0.000674483838
 12       0.001061387108
 13       0.000017253968
 14      -0.000038845832
 15      -0.000051899570
 16       0.000037346070
 17       0.000488961825
 18      -0.000228165159
 19       0.000023158256
 20      -0.000374039596
 21       0.064611075374
 22       0.001952894867
 23      -0.000174290410
 24      -0.000029763447
 25      -0.000093103479
 26      -0.001554560589
 27       0.000898658328
 28       0.000192558065
 29       0.000416180825
 30      -0.043309076669
 31      -0.000548080838
 32      -0.000139393708
 33       0.000053480057
 34      -0.000120688833
 35      -0.002798797867
 36       0.001675579780
 37      -0.000978686583
 38       0.001566446267
 39      -0.991744659819
 40      -0.024837706006
 41      -0.000196365513
 42      -0.000086594472
 43       0.000078591490
 44       0.017052518002
 45       0.001459529148
 46       0.001324974372
 47       0.000132216865
 48       0.000087187109
 49      -0.000525999539
 50       0.000258568391
 51      -0.000028155409
 52      -0.000041398622
 53       0.000120937771
 54      -0.000011735491
 55       0.000027170607
 56      -0.000066769153
 57      -0.000256026737
 58       0.000075817490
 59      -0.000248735383
 60       0.000229512465
 61      -0.002264095368
 Sym=     1a
 Ene= -1.12289673005630E+01
 Spin= Alpha
 Occup= 2.000000
  1      -0.006105715081
  2      -0.000260579800
  3      -0.000021530199
  4       0.000104993807
  5      -0.000151245261
  6      -0.000935783595
  7      -0.000270398823
  8       0.000099091921
  9       0.000060149390
 10       0.000019279919
 11       0.000206051142
 12      -0.002400071048
 13      -0.000073276629
 14       0.000096093675
 15       0.000089885682
 16      -0.000105595710
 17      -0.001595915440
 18       0.000234149425
 19       0.000636163116
 20       0.000020727030
 21      -0.101322377237
 22      -0.003506465885
 23       0.000227127888
 24       0.000025341396
 25       0.000053183153
 26       0.009328346793
 27      -0.003337896905
 28       0.000054390161
 29      -0.001470590245
 30       0.989814138714
 31       0.025149271860
 32       0.000180799634
 33       0.000135515924
 34      -0.000311039120
 35      -0.019599859402
 36      -0.001680893304
 37      -0.002390115139
 38       0.002424822874
 39      -0.049687674070
 40      -0.001883178696
 41      -0.000137358903
 42       0.000048898719
 43      -0.000109085460
 44       0.006287419858
 45       0.002450586324
 46      -0.000066367124
 47       0.001661357790
 48       0.000055323468
 49       0.000258747392
 50      -0.000024697858
 51       0.000198172045
 52      -0.000012835589
 53      -0.000145008551
 54       0.000068593083
 55       0.000237446352
 56      -0.000047541867
 57       0.000233338396
 58      -0.000268198622
 59       0.001747100298
 60      -0.000091810931
 61       0.000326801347
 Sym=     1a
 Ene= -1.12209594713021E+01
 Spin= Alpha
 Occup= 2.000000
  1       0.994789635534
  2       0.025129950630
  3       0.000186498420
  4      -0.000217305892
  5       0.000041996528
  6      -0.017301557933
  7      -0.000752060242
  8       0.001685949082
  9      -0.000936445515
 10      -0.000111596039
 11       0.001853892887
 12      -0.000347351742
 13      -0.000081074883
 14       0.000154515829
 15      -0.000020403964
 16      -0.000068458835
 17      -0.000193447811
 18      -0.000766431599
 19      -0.000037220417
 20       0.001136367901
 21       0.000111924979
 22       0.000076933192
 23       0.000031963757
 24      -0.000017302530
 25       0.000034270596
 26      -0.000556751445
 27      -0.000056354571
 28      -0.000571760436
 29       0.000230162157
 30       0.003533009230
 31       0.000008161835
 32       0.000072591450
 33      -0.000082771645
 34       0.000091983295
 35      -0.000293561499
 36      -0.000237997052
 37       0.000142061044
 38      -0.000197007275
 39      -0.052673692670
 40      -0.002115849878
 41       0.000033981462
 42      -0.000259942118
 43       0.000136004909
 44       0.006918579638
 45       0.000150239583
 46       0.002724839999
 47      -0.001560112280
 48      -0.000175440370
 49       0.002727781782
 50      -0.000048600963
 51       0.002801707946
 52      -0.000032143230
 53      -0.000688331997
 54       0.000097524677
 55       0.000517573250
 56      -0.000018589016
 57      -0.000099572252
 58       0.000039850692
 59       0.000276639271
 60      -0.000120492827
 61      -0.000001366927
 Sym=     1a
 Ene= -1.12112861765040E+01
 Spin= Alpha
 Occup= 2.000000
  1      -0.000346602579
  2       0.000078088372
  3       0.000071697320
  4       0.000030189560
  5       0.000133467186
  6      -0.000397057249
  7      -0.000319474093
  8       0.000147473420
  9      -0.000977978182
 10      -0.000066666621
 11      -0.003525147177
 12      -0.996115759085
 13      -0.026243685182
 14       0.000121788345
 15       0.000038835494
 16      -0.000042425837
 17       0.019388876099
 18      -0.000780533367
 19      -0.000800681371
 20       0.000383174764
 21       0.013157450129
 22       0.000756816519
 23       0.000077883309
 24       0.000100193672
 25      -0.000064711803
 26      -0.004113776763
 27      -0.001426785697
 28      -0.002121836172
 29       0.001241574293
 30      -0.001084197547
 31       0.000193251388
 32       0.000108594821
 33       0.000086820729
 34      -0.000021456572
 35      -0.000754460295
 36      -0.000675110827
 37      -0.000535214735
 38       0.000118442355
 39      -0.000163748729
 40      -0.000008704130
 41       0.000070243381
 42       0.000043463424
 43       0.000015066670
 44       0.000738505853
 45       0.000169730750
 46       0.000410335205
 47      -0.000014984657
 48      -0.000113104594
 49      -0.000508415176
 50       0.000028092406
 51       0.000286339638
 52      -0.000067290902
 53      -0.003329418533
 54      -0.000025119700
 55      -0.003061364754
 56       0.000158803308
 57       0.000031926674
 58      -0.000043388257
 59      -0.000491392320
 60       0.000019383026
 61       0.000003076993
 Sym=     1a
 Ene= -1.10637793476058E+00
 Spin= Alpha
 Occup= 2.000000
  1       0.073966429531
  2      -0.143319863307
  3      -0.010123595544
  4       0.053006510918
  5      -0.035597741969
  6      -0.099838161047
  7      -0.002738393979
  8       0.002707285416
  9       0.002240324990
 10      -0.044352304531
 11       0.000563897760
 12       0.072374043395
 13      -0.133061440002
 14       0.026341873745
 15       0.034606196459
 16      -0.015804372083
 17      -0.128733713227
 18       0.016765995302
 19       0.004482309444
 20       0.000588103948
 21       0.113944691429
 22      -0.226137947364
 23       0.066105289513
 24       0.000092052954
 25       0.028408851478
 26      -0.134238078569
 27      -0.001440585976
 28       0.004202894631
 29      -0.002038403650
 30       0.123865231272
 31      -0.244117284455
 32      -0.042898842321
 33      -0.040248619812
 34       0.036595821051
 35      -0.161129688645
 36      -0.001443397201
 37      -0.002706673440
 38       0.006066780744
 39       0.108519452115
 40      -0.214475839117
 41      -0.041999033476
 42      -0.024105447071
 43      -0.009572275634
 44      -0.137237194910
 45      -0.007333692878
 46      -0.000452467186
 47      -0.002784633923
 48      -0.032094351215
 49      -0.000771443163
 50      -0.039550882667
 51      -0.006026981766
 52      -0.036412538978
 53      -0.000012898398
 54      -0.032533279931
 55      -0.006374236579
 56      -0.051450107849
 57      -0.003927549152
 58      -0.056052411378
 59      -0.006771887100
 60      -0.051860467617
 61      -0.008128534000
 Sym=     1a
 Ene= -1.01747375813042E+00
 Spin= Alpha
 Occup= 2.000000
  1      -0.123904848182
  2       0.242478167857
  3      -0.005580309764
  4      -0.078004566625
  5       0.035888784179
  6       0.191301689432
  7       0.002258762442
  8      -0.003774007558
  9       0.004367010406
 10      -0.048956330353
 11      -0.005191193554
 12       0.097299008169
 13      -0.185640296797
 14       0.010691180361
 15       0.033449993820
 16      -0.023162484797
 17      -0.172024798023
 18      -0.000077238057
 19       0.001782680588
 20      -0.003336007729
 21       0.101227597905
 22      -0.201365066263
 23      -0.000496389435
 24      -0.022028085840
 25       0.020608944400
 26      -0.150170084443
 27       0.000458557358
 28      -0.004368655649
 29       0.004857135825
 30       0.020345892169
 31      -0.040154014456
 32      -0.102055236160
 33      -0.002551947853
 34      -0.042268646450
 35      -0.025686021929
 36      -0.006648054921
 37       0.010795927972
 38      -0.009445483073
 39      -0.117924808483
 40       0.235468214805
 41      -0.013623691178
 42       0.073209994637
 43      -0.061247303619
 44       0.165685949488
 45      -0.008107505577
 46      -0.005602912582
 47      -0.007184851811
 48       0.071420099736
 49       0.016394645426
 50       0.062572845440
 51       0.005967663536
 52      -0.055277570024
 53      -0.005364511010
 54      -0.057886409085
 55      -0.009195547706
 56      -0.061952013235
 57      -0.016300908339
 58      -0.009995255216
 59       0.003042785528
 60       0.070972959585
 61       0.012520687121
 Sym=     1a
 Ene= -9.43222049725627E-01
 Spin= Alpha
 Occup= 2.000000
  1      -0.078547869064
  2       0.152191287600
  3       0.005549265858
  4      -0.004949524057
  5       0.001356431966
  6       0.140486466060
  7       0.008311032489
  8       0.001826190123
  9       0.000474638097
 10       0.101684399681
 11       0.020171124520
 12      -0.137707137498
 13       0.257922499608
 14       0.006279430621
 15       0.020392654665
 16      -0.015835743517
 17       0.294015133333
 18      -0.008486532502
 19       0.001035274484
 20      -0.003051822277
 21       0.029209288651
 22      -0.055110940069
 23       0.125052534087
 24       0.113467814701
 25      -0.044009711228
 26      -0.073276948610
 27       0.018894367921
 28       0.008152171704
 29      -0.000986584463
 30       0.120162834425
 31      -0.238956013202
 32      -0.033919343895
 33       0.016086946435
 34      -0.007662699186
 35      -0.188348332447
 36       0.004893544172
 37       0.016418360241
 38      -0.004054558970
 39       0.003867631751
 40      -0.008686594776
 41      -0.039382571202
 42       0.089340916478
 43      -0.087356295011
 44      -0.011059572504
 45      -0.012064911011
 46       0.005035755645
 47      -0.014996302973
 48       0.056490325229
 49       0.017755550307
 50       0.063373055215
 51       0.019318762816
 52       0.098727675863
 53       0.023903134484
 54       0.099057836446
 55       0.027914105155
 56      -0.020429666469
 57      -0.007555003963
 58      -0.091364028767
 59      -0.025046898810
 60      -0.008097093962
 61      -0.006911386493
 Sym=     1a
 Ene= -8.11261698103570E-01
 Spin= Alpha
 Occup= 2.000000
  1       0.101605910125
  2      -0.201594961546
  3       0.000331846765
  4      -0.078024403330
  5       0.050856150052
  6      -0.193355963383
  7      -0.001771428428
  8      -0.030942762761
  9       0.019814423744
 10       0.054803792902
 11       0.022274200576
 12      -0.063465361476
 13       0.120957024733
 14       0.028711282320
 15       0.066092396656
 16      -0.042317627270
 17       0.151148174134
 18       0.016286224005
 19       0.015308438797
 20      -0.008819333009
 21       0.092226457179
 22      -0.185162387701
 23       0.012389000418
 24       0.075426912017
 25      -0.056791878926
 26      -0.181549129225
 27      -0.015729516135
 28       0.015835141493
 29      -0.018239053222
 30      -0.026687431504
 31       0.055191232238
 32      -0.196874370944
 33      -0.019367118127
 34      -0.088898214287
 35       0.045569800639
 36      -0.046192597285
 37      -0.005796216046
 38      -0.019641615455
 39      -0.085614402376
 40       0.174555923022
 41       0.009810233204
 42      -0.149235702345
 43       0.084124498898
 44       0.164846178836
 45       0.000388084334
 46      -0.049266355349
 47       0.023850115662
 48      -0.113216114585
 49      -0.048128537168
 50      -0.108784840589
 51      -0.041571142437
 52       0.063796872935
 53       0.025916805501
 54       0.067516989133
 55       0.022971345372
 56      -0.109029252272
 57      -0.043684356238
 58       0.035884016580
 59       0.016331666825
 60       0.109549090601
 61       0.046067861464
 Sym=     1a
 Ene= -7.21837299319209E-01
 Spin= Alpha
 Occup= 2.000000
  1       0.035705313661
  2      -0.069901020000
  3      -0.072126124703
  4      -0.194828790766
  5       0.020577926590
  6      -0.079673332409
  7      -0.028774932599
  8      -0.061726415039
  9       0.009347924476
 10      -0.076948520634
 11      -0.040109985450
 12       0.017552595627
 13      -0.028371906506
 14       0.044165228162
 15      -0.113682171216
 16       0.093712953303
 17      -0.056246443202
 18       0.023936613849
 19      -0.040928698955
 20       0.035200106374
 21      -0.074509406452
 22       0.151380032434
 23       0.183291992007
 24      -0.004117753790
 25       0.042074858491
 26       0.161090222846
 27       0.072735497219
 28      -0.010710389796
 29       0.020628072371
 30       0.079635207208
 31      -0.162386668151
 32       0.027516831261
 33       0.034768393625
 34      -0.030349472553
 35      -0.164129898169
 36       0.025520467018
 37       0.035517135822
 38      -0.017970508294
 39      -0.070170511532
 40       0.141861277255
 41      -0.121558673542
 42      -0.019455147547
 43      -0.130523090877
 44       0.144233825105
 45      -0.045829307798
 46      -0.034537484681
 47      -0.037179329989
 48      -0.037896921117
 49      -0.018328099913
 50      -0.139778582579
 51      -0.084665192567
 52      -0.057682473309
 53      -0.030507279085
 54       0.002928071610
 55       0.003105197455
 56       0.151296214216
 57       0.076354247298
 58      -0.105301160979
 59      -0.043194387136
 60       0.136646702356
 61       0.065754062368
 Sym=     1a
 Ene= -6.70125163145129E-01
 Spin= Alpha
 Occup= 2.000000
  1      -0.022485238688
  2       0.044760534419
  3      -0.082602317322
  4       0.077066154509
  5      -0.165152313991
  6       0.062695115082
  7      -0.036321149301
  8       0.018879883214
  9      -0.059168045923
 10      -0.017568157939
 11      -0.012174158027
 12      -0.018989733542
 13       0.036262245139
 14       0.146989213859
 15       0.070351016164
 16      -0.008633901010
 17       0.053974317291
 18       0.069309163402
 19       0.024653860997
 20       0.000204532608
 21       0.021401924174
 22      -0.044243298140
 23       0.130930255978
 24      -0.099722985840
 25       0.108075770612
 26      -0.031245739757
 27       0.037646403746
 28      -0.038838247003
 29       0.039792816778
 30      -0.021553814712
 31       0.040989015830
 32      -0.093893923145
 33      -0.238769385787
 34       0.143067717028
 35       0.063112205076
 36      -0.037616298166
 37      -0.098509605162
 38       0.054875957298
 39       0.023328582054
 40      -0.048863460724
 41      -0.123416739815
 42      -0.135587176371
 43      -0.034120639691
 44      -0.045470815743
 45      -0.044087546183
 46      -0.043582771944
 47      -0.010282515349
 48       0.130460168278
 49       0.082425093016
 50       0.006141961121
 51       0.009498114806
 52       0.024899386852
 53       0.015479491221
 54       0.103912549377
 55       0.061105450245
 56       0.087176089852
 57       0.059633380449
 58       0.187296909964
 59       0.113203835901
 60       0.080321856469
 61       0.057573849154
 Sym=     1a
 Ene= -5.99554172996550E-01
 Spin= Alpha
 Occup= 2.000000
  1       0.008716510907
  2      -0.019684854166
  3      -0.132194720781
  4      -0.100099213198
  5      -0.252597251464
  6      -0.032600403584
  7      -0.060116485959
  8      -0.049314864798
  9      -0.117701791919
 10       0.074963922590
 11       0.052378386148
 12      -0.011213285189
 13       0.022667663461
 14      -0.117837004015
 15       0.016450837841
 16      -0.076951470148
 17       0.026556160359
 18      -0.041017620250
 19       0.010472064699
 20      -0.037545053720
 21      -0.003566855659
 22       0.008876413567
 23      -0.246376739123
 24       0.016703371832
 25      -0.099731618904
 26       0.010622584491
 27      -0.108518498950
 28       0.019233983006
 29      -0.054640052168
 30      -0.008846011114
 31       0.021048649488
 32       0.209210010240
 33       0.034737139310
 34       0.022997615452
 35      -0.021268214466
 36       0.059330639918
 37      -0.011772367491
 38       0.012173694065
 39       0.018450063555
 40      -0.043027986417
 41      -0.099753389255
 42      -0.099309234938
 43      -0.146915986166
 44      -0.025107863025
 45      -0.020878625890
 46      -0.025775045836
 47      -0.058679188390
 48       0.161650366445
 49       0.113618138579
 50      -0.144393484616
 51      -0.093326075807
 52       0.017089882712
 53       0.006171850425
 54      -0.058091970995
 55      -0.051345726293
 56      -0.138871001099
 57      -0.094486981076
 58      -0.036098371141
 59      -0.036836295258
 60       0.092067096428
 61       0.075422658975
 Sym=     1a
 Ene= -5.84174475044427E-01
 Spin= Alpha
 Occup= 2.000000
  1       0.006859631182
  2      -0.018862116674
  3       0.022604320359
  4       0.276179903160
  5      -0.169153736326
  6       0.018096658610
  7       0.014297722586
  8       0.101271534542
  9      -0.059383739613
 10       0.000654225229
 11       0.002363783262
 12       0.008684944510
 13      -0.012270938808
 14      -0.085765709312
 15      -0.200991344215
 16       0.042239496927
 17      -0.040717092807
 18      -0.037234212943
 19      -0.084810202894
 20       0.012630647148
 21      -0.022148390259
 22       0.044708556962
 23       0.132775115053
 24       0.131144459388
 25      -0.112214277316
 26       0.078044436174
 27       0.051321614590
 28       0.048828089366
 29      -0.048985381422
 30       0.012752561688
 31      -0.026322543013
 32      -0.142426976738
 33       0.049654365896
 34      -0.165681552866
 35      -0.025625322044
 36      -0.050762209804
 37       0.022922218887
 38      -0.072507127716
 39       0.006569821314
 40      -0.016395837707
 41       0.030212003025
 42      -0.294567827231
 43       0.154555087370
 44       0.006586073133
 45       0.005766068992
 46      -0.107143111058
 47       0.043927237796
 48       0.098385585902
 49       0.077111105271
 50       0.105590266272
 51       0.075161010063
 52      -0.089911584009
 53      -0.067770243659
 54      -0.069986146972
 55      -0.050714205409
 56       0.003828444707
 57      -0.001113118748
 58      -0.070004094977
 59      -0.047451106173
 60       0.083842988756
 61       0.062246614089
 Sym=     1a
 Ene= -5.67608072103774E-01
 Spin= Alpha
 Occup= 2.000000
  1       0.004068057743
  2      -0.007748125190
  3      -0.029235762705
  4       0.062288023763
  5      -0.007535174184
  6      -0.006515819680
  7      -0.016940205318
  8       0.021587588340
  9       0.010767586071
 10      -0.154984097782
 11      -0.126070710990
 12       0.000704371942
 13      -0.002137342401
 14      -0.155026418156
 15       0.212486305853
 16       0.308915459800
 17      -0.000713709832
 18      -0.081813854353
 19       0.110886704633
 20       0.153339627514
 21      -0.011655824996
 22       0.023287259884
 23      -0.024321396249
 24       0.109518388589
 25       0.079015736982
 26       0.038706873362
 27      -0.013289899798
 28       0.050284996361
 29       0.041949700294
 30       0.005734106189
 31      -0.010393482833
 32      -0.023741220721
 33       0.049263058611
 34       0.049095866739
 35      -0.016506884145
 36      -0.017541088332
 37       0.031219346774
 38       0.033113175685
 39      -0.002977058473
 40       0.007578860822
 41      -0.071001885527
 42      -0.058516117937
 43       0.022443377513
 44       0.008523937663
 45      -0.042121192199
 46      -0.030758973324
 47       0.009447362817
 48       0.010474346096
 49       0.013056029225
 50       0.028685224297
 51       0.032370246844
 52       0.239075311289
 53       0.186903295843
 54      -0.120453832055
 55      -0.089478630451
 56      -0.006946848774
 57      -0.008156514700
 58      -0.011978125427
 59      -0.008226350979
 60       0.055891156351
 61       0.038427421684
 Sym=     1a
 Ene= -5.45025379203062E-01
 Spin= Alpha
 Occup= 2.000000
  1      -0.017279510030
  2       0.038101024489
  3      -0.100016515870
  4      -0.059831696672
  5      -0.119410475447
  6       0.025794960127
  7      -0.068729440579
  8      -0.027704677663
  9      -0.074452420160
 10      -0.185559712450
 11      -0.143981766982
 12      -0.006839577133
 13       0.018790600190
 14       0.257301809215
 15      -0.064193527351
 16       0.191604786880
 17      -0.015194728826
 18       0.156287016885
 19      -0.027852464133
 20       0.097343908890
 21       0.007251727262
 22      -0.015245241483
 23      -0.054361682145
 24       0.123013139874
 25      -0.063815068494
 26      -0.007925283562
 27      -0.043041756240
 28       0.082943587128
 29      -0.046254395754
 30      -0.034548423514
 31       0.076781780145
 32      -0.043106334904
 33       0.110579263155
 34      -0.066158873520
 35       0.069363190610
 36      -0.020275827579
 37       0.025929433924
 38      -0.005943025094
 39       0.006965581740
 40      -0.013014021198
 41       0.121764994134
 42       0.086722075288
 43       0.101739304972
 44      -0.006940279972
 45       0.073611329781
 46       0.065387618862
 47       0.062519394668
 48       0.123573873667
 49       0.086839597077
 50      -0.091396528251
 51      -0.070215532895
 52      -0.033448341461
 53      -0.023656194810
 54       0.173343417791
 55       0.131339316542
 56      -0.101454565639
 57      -0.063094238825
 58      -0.031891737703
 59      -0.040713024419
 60      -0.127709730176
 61      -0.086970582024
 Sym=     1a
 Ene= -5.08297154438553E-01
 Spin= Alpha
 Occup= 2.000000
  1       0.011961795412
  2      -0.026300247868