[Molden Format]
[Title]
 Molden file created by orca_2mkl for BaseName=h-shift_049

[Atoms] AU
C    1   6         -0.1051292443         0.0193980388        -0.0164330585 
H    2   1          2.9451721948        -0.0927269717         0.1568642767 
C    3   6          4.4054731826         0.0172248537         2.0949485023 
C    4   6          3.5548942216        -2.1491099431         3.4899802392 
C    5   6          1.0996788805        -2.9936739057         3.3554827611 
C    6   6         -0.5130152919        -2.1337294621         1.4210513760 
H    7   1         -0.9563639402         0.1332861637        -1.8413869394 
H    8   1          0.1748223441         1.8160343736         0.8598650752 
H    9   1          3.6805666787         1.8483864850         2.6548308921 
H   10   1          6.4416455330         0.1160405230         1.8288013634 
H   11   1          4.9287496874        -3.4143382815         4.2867303512 
H   12   1          0.6050808595        -4.7024115192         4.3220247662 
H   13   1         -1.9182250937        -3.4534480536         0.7874753362 
[GTO]
  1 0
s   6 1.0 
     3047.5249000000         0.5363343823
      457.3695100000         0.9894506076
      103.9486900000         1.5972822308
       29.2101550000         2.0791870615
        9.2866630000         1.7741742532
        3.1639270000         0.6125798260
s   3 1.0 
        7.8682724000        -0.3995563516
        1.8812885000        -0.1841552393
        0.5442493000         0.5163903794
p   3 1.0 
        7.8682724000         1.2960827175
        1.8812885000         0.9937536282
        0.5442493000         0.4959527138
s   1 1.0 
        0.1687144000         0.1876178721
p   1 1.0 
        0.1687144000         0.1541275509

  2 0
s   3 1.0 
       18.7311370000         0.2149354183
        2.8253937000         0.3645711272
        0.6401217000         0.4150514277
s   1 1.0 
        0.1612778000         0.1813806839

  3 0
s   6 1.0 
     3047.5249000000         0.5363343823
      457.3695100000         0.9894506076
      103.9486900000         1.5972822308
       29.2101550000         2.0791870615
        9.2866630000         1.7741742532
        3.1639270000         0.6125798260
s   3 1.0 
        7.8682724000        -0.3995563516
        1.8812885000        -0.1841552393
        0.5442493000         0.5163903794
p   3 1.0 
        7.8682724000         1.2960827175
        1.8812885000         0.9937536282
        0.5442493000         0.4959527138
s   1 1.0 
        0.1687144000         0.1876178721
p   1 1.0 
        0.1687144000         0.1541275509

  4 0
s   6 1.0 
     3047.5249000000         0.5363343823
      457.3695100000         0.9894506076
      103.9486900000         1.5972822308
       29.2101550000         2.0791870615
        9.2866630000         1.7741742532
        3.1639270000         0.6125798260
s   3 1.0 
        7.8682724000        -0.3995563516
        1.8812885000        -0.1841552393
        0.5442493000         0.5163903794
p   3 1.0 
        7.8682724000         1.2960827175
        1.8812885000         0.9937536282
        0.5442493000         0.4959527138
s   1 1.0 
        0.1687144000         0.1876178721
p   1 1.0 
        0.1687144000         0.1541275509

  5 0
s   6 1.0 
     3047.5249000000         0.5363343823
      457.3695100000         0.9894506076
      103.9486900000         1.5972822308
       29.2101550000         2.0791870615
        9.2866630000         1.7741742532
        3.1639270000         0.6125798260
s   3 1.0 
        7.8682724000        -0.3995563516
        1.8812885000        -0.1841552393
        0.5442493000         0.5163903794
p   3 1.0 
        7.8682724000         1.2960827175
        1.8812885000         0.9937536282
        0.5442493000         0.4959527138
s   1 1.0 
        0.1687144000         0.1876178721
p   1 1.0 
        0.1687144000         0.1541275509

  6 0
s   6 1.0 
     3047.5249000000         0.5363343823
      457.3695100000         0.9894506076
      103.9486900000         1.5972822308
       29.2101550000         2.0791870615
        9.2866630000         1.7741742532
        3.1639270000         0.6125798260
s   3 1.0 
        7.8682724000        -0.3995563516
        1.8812885000        -0.1841552393
        0.5442493000         0.5163903794
p   3 1.0 
        7.8682724000         1.2960827175
        1.8812885000         0.9937536282
        0.5442493000         0.4959527138
s   1 1.0 
        0.1687144000         0.1876178721
p   1 1.0 
        0.1687144000         0.1541275509

  7 0
s   3 1.0 
       18.7311370000         0.2149354183
        2.8253937000         0.3645711272
        0.6401217000         0.4150514277
s   1 1.0 
        0.1612778000         0.1813806839

  8 0
s   3 1.0 
       18.7311370000         0.2149354183
        2.8253937000         0.3645711272
        0.6401217000         0.4150514277
s   1 1.0 
        0.1612778000         0.1813806839

  9 0
s   3 1.0 
       18.7311370000         0.2149354183
        2.8253937000         0.3645711272
        0.6401217000         0.4150514277
s   1 1.0 
        0.1612778000         0.1813806839

 10 0
s   3 1.0 
       18.7311370000         0.2149354183
        2.8253937000         0.3645711272
        0.6401217000         0.4150514277
s   1 1.0 
        0.1612778000         0.1813806839

 11 0
s   3 1.0 
       18.7311370000         0.2149354183
        2.8253937000         0.3645711272
        0.6401217000         0.4150514277
s   1 1.0 
        0.1612778000         0.1813806839

 12 0
s   3 1.0 
       18.7311370000         0.2149354183
        2.8253937000         0.3645711272
        0.6401217000         0.4150514277
s   1 1.0 
        0.1612778000         0.1813806839

 13 0
s   3 1.0 
       18.7311370000         0.2149354183
        2.8253937000         0.3645711272
        0.6401217000         0.4150514277
s   1 1.0 
        0.1612778000         0.1813806839

[5D]
[7F]
[9G]
[MO]
 Sym=     1a
 Ene= -1.12424902468816E+01
 Spin= Alpha
 Occup= 2.000000
  1       0.035513588374
  2       0.000326238567
  3       0.000070023291
  4       0.000220461809
  5      -0.000104870644
  6       0.004416300122
  7      -0.000288871882
  8      -0.002357710662
  9       0.001609981159
 10      -0.000120378362
 11       0.000765065313
 12       0.000655308069
 13       0.000010018229
 14       0.000013263085
 15       0.000055647836
 16      -0.000028037540
 17      -0.000033622261
 18       0.000265233468
 19      -0.000208692857
 20       0.000422862678
 21       0.048130171306
 22       0.000891417617
 23       0.000136555411
 24       0.000050691574
 25       0.000026317809
 26      -0.000682441753
 27      -0.000423751974
 28      -0.000225374346
 29      -0.000082163935
 30       0.038091175073
 31       0.000171895763
 32       0.000116533432
 33      -0.000093992382
 34       0.000174421709
 35       0.004526733842
 36      -0.001140265434
 37       0.001320104680
 38      -0.001936149157
 39       0.993626472786
 40       0.024861922586
 41       0.000325313568
 42      -0.000032674222
 43      -0.000099744522
 44      -0.017424009109
 45      -0.001841721073
 46      -0.001039353443
 47       0.000020481173
 48      -0.000100687979
 49       0.000293331603
 50      -0.000217187350
 51       0.000593374030
 52       0.000050002046
 53      -0.000109061346
 54      -0.000008233144
 55      -0.000064428636
 56       0.000028167500
 57       0.000330159261
 58      -0.000076063449
 59       0.000331783580
 60      -0.000198556593
 61       0.002292407351
 Sym=     1a
 Ene= -1.12421508300512E+01
 Spin= Alpha
 Occup= 2.000000
  1      -0.002302495967
  2      -0.000007498488
  3      -0.000010251692
  4       0.000008542361
  5      -0.000016574252
  6      -0.000289754264
  7      -0.000290931753
  8       0.000142439137
  9      -0.000082279513
 10      -0.000138789656
 11       0.000549394873
 12       0.021160422265
 13       0.000042390117
 14       0.000014085178
 15       0.000201880247
 16      -0.000083538299
 17       0.004112033092
 18      -0.000888359101
 19      -0.002350212504
 20       0.001189138508
 21       0.993736181182
 22       0.024888254664
 23      -0.000127542096
 24      -0.000030400866
 25      -0.000298172070
 26      -0.017584896208
 27       0.001393829548
 28      -0.000880909737
 29       0.001703813183
 30       0.043779450994
 31       0.000298861751
 32      -0.000213356039
 33      -0.000102923131
 34      -0.000015808120
 35       0.004811888029
 36       0.002480853122
 37       0.001403512878
 38      -0.000266326757
 39      -0.049822659525
 40      -0.001533541573
 41      -0.000133027909
 42       0.000066437518
 43      -0.000092447306
 44       0.000850325470
 45       0.000289263538
 46      -0.000123221758
 47       0.000116274687
 48       0.000007536153
 49      -0.000058183349
 50       0.000060740580
 51      -0.000244797988
 52      -0.000205990733
 53       0.000757472907
 54      -0.000099206649
 55       0.000152620659
 56      -0.000208608555
 57       0.002233803466
 58      -0.000072259104
 59       0.000397229281
 60       0.000031930922
 61       0.000012500044
 Sym=     1a
 Ene= -1.12279046262843E+01
 Spin= Alpha
 Occup= 2.000000
  1       0.012236363027
  2       0.000393886824
  3      -0.000011705736
  4      -0.000086819984
  5       0.000145869077
  6       0.000919640693
  7       0.000169164780
  8      -0.000357251711
  9      -0.000089442219
 10       0.000050248146
 11      -0.000320717132
 12       0.004113478938
 13       0.000148663420
 14      -0.000092329049
 15      -0.000083296925
 16       0.000104561821
 17       0.001302867004
 18      -0.000112596580
 19      -0.000483198920
 20      -0.000099473801
 21       0.045978489381
 22       0.002035137077
 23      -0.000211352816
 24      -0.000051048329
 25      -0.000041155776
 26      -0.007807960333
 27       0.002996061243
 28       0.000159302702
 29       0.001164308594
 30      -0.994412048105
 31      -0.025301908771
 32      -0.000129859683
 33      -0.000132457586
 34       0.000372389644
 35       0.019401786333
 36       0.001384400555
 37       0.002125294986
 38      -0.002582901705
 39       0.035816032968
 40       0.001690666970
 41       0.000165604022
 42      -0.000077103178
 43       0.000143566091
 44      -0.007010896189
 45      -0.002488947404
 46       0.000243350465
 47      -0.001671019469
 48      -0.000070344670
 49      -0.000272881228
 50       0.000043697865
 51       0.000062351536
 52       0.000034236292
 53       0.000073972745
 54      -0.000070370540
 55      -0.000265852748
 56       0.000104706761
 57      -0.000236072729
 58       0.000250845948
 59      -0.001888813438
 60       0.000109991384
 61      -0.000228119977
 Sym=     1a
 Ene= -1.12254045212044E+01
 Spin= Alpha
 Occup= 2.000000
  1      -0.995524238743
  2      -0.025715811011
  3      -0.000056868900
  4       0.000030810413
  5      -0.000231293689
  6       0.019006994611
  7       0.000731387696
  8      -0.001063754624
  9       0.001959447697
 10      -0.000202619735
 11      -0.002772258466
 12       0.000478225271
 13       0.000074087904
 14      -0.000166129754
 15       0.000040827924
 16       0.000053380164
 17       0.000375350463
 18       0.000917915818
 19      -0.000195627493
 20      -0.001074468990
 21      -0.000044222650
 22      -0.000016271743
 23      -0.000038103689
 24       0.000032434807
 25      -0.000057027823
 26       0.000356987988
 27      -0.000018909443
 28       0.000402784323
 29      -0.000058957835
 30      -0.010954148951
 31      -0.000181225045
 32      -0.000076276222
 33       0.000080638071
 34      -0.000097355844
 35       0.000658778348
 36       0.000166326719
 37       0.000012321342
 38       0.000038402400
 39       0.036391640655
 40       0.001651151934
 41       0.000025596764
 42       0.000202571290
 43      -0.000121226859
 44      -0.006817790341
 45      -0.000846574271
 46      -0.002864065948
 47       0.001331915366
 48       0.000133477342
 49      -0.002541302183
 50      -0.000094067225
 51      -0.003523907843
 52       0.000044583057
 53       0.000768833535
 54      -0.000145343258
 55      -0.000669293525
 56       0.000020067603
 57       0.000051694824
 58      -0.000029815492
 59      -0.000295313490
 60       0.000098573687
 61      -0.000222796777
 Sym=     1a
 Ene= -1.12207214047313E+01
 Spin= Alpha
 Occup= 2.000000
  1       0.000443381049
  2      -0.000098359172
  3      -0.000059453418
  4      -0.000053214512
  5      -0.000181076533
  6       0.000127462943
  7       0.000105185954
  8       0.000162687245
  9       0.001571264250
 10       0.000145354096
 11       0.003339799518
 12       0.996017808317
 13       0.026000935803
 14      -0.000263959831
 15      -0.000040502266
 16       0.000185881561
 17      -0.019520195681
 18       0.001937964037
 19       0.000868178717
 20      -0.000699836989
 21      -0.021599607501
 22      -0.001172170788
 23      -0.000055658229
 24      -0.000158955868
 25       0.000095598712
 26       0.005851089979
 27       0.000611246077
 28       0.002604646347
 29      -0.001524346214
 30       0.003141300301
 31      -0.000070397120
 32      -0.000123646127
 33      -0.000078459664
 34      -0.000008102796
 35      -0.000039971290
 36       0.000203041852
 37       0.000234994658
 38      -0.000037113948
 39       0.000258000753
 40       0.000039145397
 41      -0.000064633451
 42      -0.000040455194
 43       0.000012924408
 44      -0.000757059524
 45      -0.000274313161
 46      -0.000471413614
 47      -0.000173060683
 48       0.000174904929
 49       0.000801439078
 50      -0.000077238465
 51      -0.000745471892
 52       0.000133478353
 53       0.003565828787
 54      -0.000058972253
 55       0.002521951190
 56      -0.000111327388
 57       0.000212912549
 58       0.000036935294
 59       0.000372993294
 60      -0.000032600195
 61      -0.000099386359
 Sym=     1a
 Ene= -1.11907458846634E+00
 Spin= Alpha
 Occup= 2.000000
  1       0.073483917921
  2      -0.138725589380
  3      -0.000998516091
  4       0.044157758936
  5      -0.039774661672
  6      -0.113158762783
  7      -0.008850246142
  8       0.002577569576
  9      -0.008277415531
 10      -0.045804904712
 11       0.000716614604
 12       0.073229055810
 13      -0.134972828818
 14       0.031271040144
 15       0.039812469500
 16      -0.022460970112
 17      -0.126518373692
 18       0.020998741692
 19       0.003515229013
 20       0.000627705546
 21       0.110370963481
 22      -0.219284607301
 23       0.057031360307
 24      -0.008206547353
 25       0.034398979753
 26      -0.127010164728
 27      -0.000557468353
 28       0.004972190029
 29       0.001258678140
 30       0.122142090866
 31      -0.240591659235
 32      -0.029634396127
 33      -0.041933715520
 34       0.049693144622
 35      -0.158951164826
 36      -0.003003020539
 37      -0.003854591911
 38       0.006969569175
 39       0.110340823290
 40      -0.218755167615
 41      -0.055135978570
 42      -0.014790145115
 43      -0.019954314414
 44      -0.131647456062
 45      -0.004670086149
 46       0.001549492083
 47      -0.000407664226
 48      -0.031554822955
 49      -0.004240564393
 50      -0.038994769444
 51      -0.001211129523
 52      -0.036620162218
 53       0.001373161607
 54      -0.030681207298
 55      -0.007526241592
 56      -0.049381022246
 57      -0.003905186176
 58      -0.053863615849
 59      -0.006137974896
 60      -0.050377356912
 61      -0.006419128021
 Sym=     1a
 Ene= -1.01188461804625E+00
 Spin= Alpha
 Occup= 2.000000
  1      -0.114262532707
  2       0.219698189472
  3      -0.029614725498
  4      -0.058543247694
  5       0.037227864045
  6       0.194685300011
  7       0.001502971031
  8      -0.002972908950
  9       0.012710960241
 10      -0.018385015810
 11      -0.002216918520
 12       0.103531067711
 13      -0.197368430742
 14       0.010590036204
 15       0.047221047206
 16      -0.044237964696
 17      -0.187273100662
 18       0.010231390939
 19       0.002830830829
 20      -0.007712915319
 21       0.110200643575
 22      -0.222153541497
 23      -0.017369911385
 24      -0.035673799678
 25       0.029140841222
 26      -0.153870656850
 27      -0.008328257391
 28       0.003228590483
 29       0.000493199051
 30       0.007484722790
 31      -0.013957137565
 32      -0.105231258348
 33      -0.000495814849
 34      -0.049151209762
 35      -0.013764341016
 36      -0.012001716863
 37       0.001441132681
 38      -0.005947146774
 39      -0.114656955298
 40       0.230702206404
 41       0.000923409621
 42       0.052576611762
 43      -0.047038174289
 44       0.162671205386
 45      -0.006859198236
 46      -0.004422946105
 47      -0.007077868621
 48       0.069091470995
 49       0.017611571598
 50       0.061176505719
 51       0.003771572988
 52      -0.056437518262
 53      -0.003043739538
 54      -0.061084695417
 55      -0.014662191258
 56      -0.068839314722
 57      -0.013965361312
 58      -0.003890087237
 59       0.000027762795
 60       0.071903767013
 61       0.013909816335
 Sym=     1a
 Ene= -9.44266647028295E-01
 Spin= Alpha
 Occup= 2.000000
  1      -0.099637511769
  2       0.190121837878
  3      -0.001935879570
  4       0.011724896048
  5       0.003891443575
  6       0.199208714562
  7       0.012338715107
  8       0.003587405335
  9       0.010123890743
 10       0.079753625596
 11       0.016670873181
 12      -0.117541582178
 13       0.219328939058
 14      -0.003859975156
 15       0.014328202795
 16       0.003426862303
 17       0.258486881067
 18      -0.024087025686
 19      -0.000138600858
 20      -0.000679185679
 21       0.018880677821
 22      -0.034595649513
 23       0.113739155412
 24       0.112100720264
 25      -0.041646133681
 26      -0.064188025540
 27       0.027530468268
 28       0.000410265896
 29       0.004561560689
 30       0.124885155374
 31      -0.249002925692
 32      -0.009058583761
 33       0.019491568105
 34       0.008383760844
 35      -0.188307046118
 36       0.005499504933
 37       0.022729515186
 38      -0.005353427623
 39       0.016551415986
 40      -0.033318861618
 41      -0.035923479195
 42       0.105548025866
 43      -0.107716562340
 44      -0.043165182393
 45      -0.015346081772
 46       0.003968499744
 47      -0.019474322760
 48       0.072298556551
 49       0.024596162491
 50       0.081780458419
 51       0.020407404866
 52       0.089542101082
 53       0.020234881699
 54       0.081115056086
 55       0.028556514545
 56      -0.017230076962
 57      -0.012470746959
 58      -0.096492944434
 59      -0.024983316922
 60      -0.016881990851
 61      -0.011244011865
 Sym=     1a
 Ene= -8.11390587816336E-01
 Spin= Alpha
 Occup= 2.000000
  1       0.094402362272
  2      -0.183336618303
  3       0.021867698481
  4      -0.080296939119
  5       0.044162589197
  6      -0.201809044325
  7       0.003795229471
  8      -0.024839810333
  9       0.013340480005
 10       0.023076450711
 11       0.011034596431
 12      -0.083964073941
 13       0.159663214742
 14       0.034866673251
 15       0.074006852567
 16      -0.012910060945
 17       0.199507884863
 18       0.010327377390
 19       0.017302752277
 20      -0.001052265085
 21       0.087829340703
 22      -0.177556842689
 23       0.039096045917
 24       0.113653622330
 25      -0.057515980552
 26      -0.183124552258
 27      -0.003700625557
 28       0.025241629552
 29      -0.016156405925
 30      -0.005564210341
 31       0.012240037628
 32      -0.197564434217
 33      -0.002944285787
 34      -0.097802150146
 35       0.007066551558
 36      -0.044214508715
 37       0.000214522885
 38      -0.021871080178
 39      -0.084397129546
 40       0.172314062983
 41      -0.007595362049
 42      -0.129080413271
 43       0.078617009426
 44       0.170051122086
 45      -0.008941173660
 46      -0.037184810978
 47       0.016430338588
 48      -0.106778239727
 49      -0.043985458904
 50      -0.102076815362
 51      -0.038903027618
 52       0.090110776184
 53       0.035138427684
 54       0.087660228193
 55       0.034616223696
 56      -0.108604968025
 57      -0.044839418192
 58       0.007390135255
 59       0.003929755257
 60       0.104971488312
 61       0.043037020140
 Sym=     1a
 Ene= -7.28258712280804E-01
 Spin= Alpha
 Occup= 2.000000
  1       0.023998750227
  2      -0.041242976791
  3      -0.079880239487
  4      -0.171166470260
  5      -0.003762472934
  6      -0.071243888685
  7      -0.041770316380
  8      -0.055480711828
  9      -0.010001237799
 10      -0.076798563831
 11      -0.039507474764
 12       0.018457817758
 13      -0.026366189763
 14       0.064012393202
 15      -0.137972566470
 16       0.074683197103
 17      -0.073332014555
 18       0.044177630191
 19      -0.044272017637
 20       0.030078460597
 21      -0.072995242298
 22       0.147912206616
 23       0.190295016720
 24      -0.016232682696
 25       0.026581977886
 26       0.168568305350
 27       0.064151026609
 28      -0.011069369816
 29       0.010803589218
 30       0.079184535905
 31      -0.161889329837
 32       0.018539961398
 33       0.024814794686
 34      -0.026373313600
 35      -0.171101640096
 36       0.016583771772
 37       0.026350615520
 38      -0.016405028549
 39      -0.071501020417
 40       0.144615053324
 41      -0.131146907885
 42      -0.017442413750
 43      -0.139035594385
 44       0.162353469752
 45      -0.046471241771
 46      -0.021801545563
 47      -0.038127041668
 48      -0.008447004225
 49      -0.006267000377
 50      -0.115942136733
 51      -0.063576599716
 52      -0.085256453800
 53      -0.044674526836
 54       0.008466676675
 55       0.001213549351
 56       0.149933656205
 57       0.078328177923
 58      -0.098337859072
 59      -0.039482775405
 60       0.145514559899
 61       0.073385293798
 Sym=     1a
 Ene= -6.79523303965398E-01
 Spin= Alpha
 Occup= 2.000000
  1       0.024363579930
  2      -0.049133885456
  3       0.071334861797
  4      -0.094349073041
  5       0.153228976248
  6      -0.067448440735
  7       0.033589374287
  8      -0.029520731749
  9       0.056140284544
 10       0.026319803039
 11       0.015876895962
 12       0.026294060563
 13      -0.051757527837
 14      -0.150336535615
 15      -0.089758453662
 16       0.015439642349
 17      -0.072702239261
 18      -0.067169595946
 19      -0.030107913051
 20       0.000242933825
 21      -0.024285167619
 22       0.049492358684
 23      -0.113869401116
 24       0.099056841675
 25      -0.093931688747
 26       0.045750556333
 27      -0.038485602263
 28       0.038204764101
 29      -0.037151679787
 30       0.028319524869
 31      -0.054124434515
 32       0.085969249593
 33       0.239082251273
 34      -0.143824790516
 35      -0.087760852764
 36       0.033867631653
 37       0.093265283057
 38      -0.052739419315
 39      -0.024130417223
 40       0.049065402778
 41       0.137018969264
 42       0.122487042116
 43       0.023309058475
 44       0.049109979851
 45       0.054068061867
 46       0.044389330682
 47       0.008661810234
 48      -0.122209471770
 49      -0.073235635365
 50      -0.028863956622
 51      -0.021128492539
 52      -0.038889933926
 53      -0.026454227094
 54      -0.111873807360
 55      -0.064772318210
 56      -0.072079984261
 57      -0.047333812308
 58      -0.191446293330
 59      -0.113160037011
 60      -0.076231649296
 61      -0.049245603483
 Sym=     1a
 Ene= -5.94972691997124E-01
 Spin= Alpha
 Occup= 2.000000
  1       0.009099385837
  2      -0.014756390434
  3      -0.088791595807
  4      -0.177629202003
  5      -0.207298683161
  6      -0.047502773396
  7      -0.045449679114
  8      -0.077259402047
  9      -0.103872835226
 10       0.021939689349
 11       0.021957734067
 12      -0.014569117287
 13       0.025273042203
 14      -0.133487427130
 15       0.110201293987
 16      -0.002115462411
 17       0.052609754435
 18      -0.059857967342
 19       0.047530891864
 20      -0.000360192535
 21      -0.001767358194
 22       0.006142021054
 23      -0.258275200814
 24       0.024910519840
 25      -0.032257648311
 26      -0.004794242046
 27      -0.112809061467
 28       0.017623024289
 29      -0.017482989143
 30      -0.007872736731
 31       0.017221333585
 32       0.219130419328
 33       0.007071679663
 34       0.087453118250
 35       0.000222132899
 36       0.066245664289
 37      -0.009640823862
 38       0.030707692309
 39       0.013723115305
 40      -0.032481827223
 41      -0.110202562095
 42      -0.025975544018
 43      -0.187774128412
 44      -0.017817333203
 45      -0.030679942746
 46      -0.006077597031
 47      -0.073758470846
 48       0.125616296597
 49       0.087410991996
 50      -0.167820726565
 51      -0.111688366961
 52       0.096968604436
 53       0.062046295144
 54      -0.064484974194
 55      -0.051215199885
 56      -0.127958764274
 57      -0.088583860027
 58      -0.001953139301
 59      -0.006858786638
 60       0.080189966766
 61       0.064229806349
 Sym=     1a
 Ene= -5.80818316113986E-01
 Spin= Alpha
 Occup= 2.000000
  1      -0.001694511658
  2       0.008073904343
  3       0.018571911858
  4      -0.207801312513
  5       0.241116404698
  6      -0.016261421350
  7       0.014672975264
  8      -0.075851697615
  9       0.101061039467
 10      -0.005347393355
 11      -0.008023326348
 12       0.000280880651
 13      -0.007232340400
 14       0.103233848305
 15       0.237237651896
 16      -0.063140337157
 17       0.029984989298
 18       0.036059798874
 19       0.092688175253
 20      -0.015460151578
 21       0.017776530837
 22      -0.038188570586
 23      -0.049921913159
 24      -0.201645615586
 25       0.154686042097
 26      -0.061345336648
 27      -0.007058302167
 28      -0.086069720288
 29       0.069507004919
 30       0.001339971337
 31      -0.004367277695
 32       0.111357774336
 33      -0.035643922088
 34       0.117072911648
 35       0.009042233236
 36       0.044853115401
 37      -0.006108890797
 38       0.045625906700
 39      -0.018958005969
 40       0.042968198173
 41       0.021725046860
 42       0.252755574522
 43      -0.139742510931
 44       0.036897543656
 45       0.003455328500
 46       0.091294938944
 47      -0.045147851909
 48      -0.151872606123
 49      -0.111665681983
 50      -0.043432040375
 51      -0.031813049295
 52       0.100332412373
 53       0.077284345542
 54       0.077766879075
 55       0.061622524281
 56       0.076021936650
 57       0.055049077907
 58       0.036497756868
 59       0.029550651929
 60      -0.063844511156
 61      -0.053030871170
 Sym=     1a
 Ene= -5.65904814352933E-01
 Spin= Alpha
 Occup= 2.000000
  1       0.019186684583
  2      -0.044091457301
  3       0.042221226224
  4       0.161419331014
  5       0.118130913203
  6      -0.014122904092
  7       0.036212698060
  8       0.069883626795
  9       0.090348318897
 10       0.012351404721
 11      -0.016297922784
 12       0.013330384214
 13      -0.031953151155
 14      -0.260534820073
 15       0.132959037982
 16       0.092693035503
 17       0.000984867007
 18      -0.159900587614
 19       0.064829001411
 20       0.044924897587
 21      -0.024403747439
 22       0.053333918275
 23       0.042375775566
 24       0.002809932752
 25       0.084436243161
 26       0.043531199280
 27       0.043984963467
 28      -0.026589568596
 29       0.062266677405
 30       0.032011617701
 31      -0.069887493974
 32      -0.004808028716
 33      -0.021192562211
 34       0.066205861977
 35      -0.043633620414
 36      -0.001556889875
 37       0.031470649431
 38       0.013619729634
 39      -0.011485527824
 40       0.024821293233
 41      -0.180935592890
 42      -0.117004393556
 43      -0.015243741369
 44       0.011362306924
 45      -0.117788479603
 46      -0.081594303855
 47      -0.022899605342
 48      -0.101286851085
 49      -0.060601053933
 50       0.124376124040
 51       0.095979234035
 52       0.148950625941
 53       0.114602978277
 54      -0.191237292804
 55      -0.135289362748
 56       0.072698517855
 57       0.034864433929
 58      -0.006105395413
 59       0.013227290082
 60       0.152995823503
 61       0.094391866194
 Sym=     1a
 Ene= -5.33555905880848E-01
 Spin= Alpha
 Occup= 2.000000
  1      -0.009580888396
  2       0.023948506805
  3      -0.166065368235
  4       0.045524725220
  5      -0.008803331744
  6       0.004694039876
  7      -0.104276019975
  8       0.026653729623
  9      -0.007879528778
 10      -0.213778485235
 11      -0.220526772122
 12      -0.002092236678
 13       0.012969541417
 14       0.100815896341
 15       0.090435467295
 16       0.260677371482
 17      -0.032378851761
 18       0.079806398298
 19       0.053412878799
 20       0.143320559195
 21      -0.011517152194
 22       0.025970574138
 23      -0.067022993853
 24       0.148004282576
 25       0.082992439366
 26       0.039163594647
 27      -0.040661579731
 28       0.098311340762
 29       0.048367331930
 30      -0.021462469499
 31       0.047482171866
 32      -0.039700369741
 33       0.165944714968
 34       0.028145609382
 35       0.059871995549
 36      -0.023801521979
 37       0.080264236391
 38       0.033748466048
 39      -0.007181030281
 40       0.018968247125
 41      -0.007356266807
 42       0.092612852899
 43       0.124107487615
 44       0.021458159309
 45      -0.016464257959
 46       0.064117394642
 47       0.068806597765
 48       0.069932843465
 49       0.050350502073
 50       0.014712281568
 51       0.022096780952
 52       0.085060550378
 53       0.085100535652
 54       0.048614766593
 55       0.028805381634
 56      -0.056521301016
 57      -0.035721108815
 58      -0.053212468007
 59      -0.047506072138
 60      -0.056493458605
 61      -0.041883912771
 Sym=     1a
 Ene= -5.13761115413732E-01
 Spin= Alpha
 Occup= 2.000000
  1      -0.015603587132
  2       0.033851007953