[Molden Format]
[Title]
 Molden file created by orca_2mkl for BaseName=h-shift_093

[Atoms] AU
C    1   6         -0.9014088145         0.0033372564         0.0546546592 
H    2   1          4.1563657042         0.0358292075         0.0491744535 
C    3   6          4.7378079794         0.0187989956         2.0115359908 
C    4   6          3.5029550988        -2.1010560972         3.4386666158 
C    5   6          1.1992939039        -3.0363155760         3.0437119640 
C    6   6         -0.6298816252        -2.2657230531         1.0980102523 
H    7   1         -2.2671743627         0.3249894313        -1.4090591739 
H    8   1          0.1901007799         1.6115452189         0.6197602521 
H    9   1          4.2313557063         1.8408804928         2.8133430100 
H   10   1          6.7765503573        -0.1301681156         2.0798344727 
H   11   1          4.6214405338        -2.9455350222         4.9131821235 
H   12   1          0.6009461387        -4.5937220309         4.2089567825 
H   13   1         -1.8750013879        -3.7519284067         0.4784597598 
[GTO]
  1 0
s   6 1.0 
     3047.5249000000         0.5363343823
      457.3695100000         0.9894506076
      103.9486900000         1.5972822308
       29.2101550000         2.0791870615
        9.2866630000         1.7741742532
        3.1639270000         0.6125798260
s   3 1.0 
        7.8682724000        -0.3995563516
        1.8812885000        -0.1841552393
        0.5442493000         0.5163903794
p   3 1.0 
        7.8682724000         1.2960827175
        1.8812885000         0.9937536282
        0.5442493000         0.4959527138
s   1 1.0 
        0.1687144000         0.1876178721
p   1 1.0 
        0.1687144000         0.1541275509

  2 0
s   3 1.0 
       18.7311370000         0.2149354183
        2.8253937000         0.3645711272
        0.6401217000         0.4150514277
s   1 1.0 
        0.1612778000         0.1813806839

  3 0
s   6 1.0 
     3047.5249000000         0.5363343823
      457.3695100000         0.9894506076
      103.9486900000         1.5972822308
       29.2101550000         2.0791870615
        9.2866630000         1.7741742532
        3.1639270000         0.6125798260
s   3 1.0 
        7.8682724000        -0.3995563516
        1.8812885000        -0.1841552393
        0.5442493000         0.5163903794
p   3 1.0 
        7.8682724000         1.2960827175
        1.8812885000         0.9937536282
        0.5442493000         0.4959527138
s   1 1.0 
        0.1687144000         0.1876178721
p   1 1.0 
        0.1687144000         0.1541275509

  4 0
s   6 1.0 
     3047.5249000000         0.5363343823
      457.3695100000         0.9894506076
      103.9486900000         1.5972822308
       29.2101550000         2.0791870615
        9.2866630000         1.7741742532
        3.1639270000         0.6125798260
s   3 1.0 
        7.8682724000        -0.3995563516
        1.8812885000        -0.1841552393
        0.5442493000         0.5163903794
p   3 1.0 
        7.8682724000         1.2960827175
        1.8812885000         0.9937536282
        0.5442493000         0.4959527138
s   1 1.0 
        0.1687144000         0.1876178721
p   1 1.0 
        0.1687144000         0.1541275509

  5 0
s   6 1.0 
     3047.5249000000         0.5363343823
      457.3695100000         0.9894506076
      103.9486900000         1.5972822308
       29.2101550000         2.0791870615
        9.2866630000         1.7741742532
        3.1639270000         0.6125798260
s   3 1.0 
        7.8682724000        -0.3995563516
        1.8812885000        -0.1841552393
        0.5442493000         0.5163903794
p   3 1.0 
        7.8682724000         1.2960827175
        1.8812885000         0.9937536282
        0.5442493000         0.4959527138
s   1 1.0 
        0.1687144000         0.1876178721
p   1 1.0 
        0.1687144000         0.1541275509

  6 0
s   6 1.0 
     3047.5249000000         0.5363343823
      457.3695100000         0.9894506076
      103.9486900000         1.5972822308
       29.2101550000         2.0791870615
        9.2866630000         1.7741742532
        3.1639270000         0.6125798260
s   3 1.0 
        7.8682724000        -0.3995563516
        1.8812885000        -0.1841552393
        0.5442493000         0.5163903794
p   3 1.0 
        7.8682724000         1.2960827175
        1.8812885000         0.9937536282
        0.5442493000         0.4959527138
s   1 1.0 
        0.1687144000         0.1876178721
p   1 1.0 
        0.1687144000         0.1541275509

  7 0
s   3 1.0 
       18.7311370000         0.2149354183
        2.8253937000         0.3645711272
        0.6401217000         0.4150514277
s   1 1.0 
        0.1612778000         0.1813806839

  8 0
s   3 1.0 
       18.7311370000         0.2149354183
        2.8253937000         0.3645711272
        0.6401217000         0.4150514277
s   1 1.0 
        0.1612778000         0.1813806839

  9 0
s   3 1.0 
       18.7311370000         0.2149354183
        2.8253937000         0.3645711272
        0.6401217000         0.4150514277
s   1 1.0 
        0.1612778000         0.1813806839

 10 0
s   3 1.0 
       18.7311370000         0.2149354183
        2.8253937000         0.3645711272
        0.6401217000         0.4150514277
s   1 1.0 
        0.1612778000         0.1813806839

 11 0
s   3 1.0 
       18.7311370000         0.2149354183
        2.8253937000         0.3645711272
        0.6401217000         0.4150514277
s   1 1.0 
        0.1612778000         0.1813806839

 12 0
s   3 1.0 
       18.7311370000         0.2149354183
        2.8253937000         0.3645711272
        0.6401217000         0.4150514277
s   1 1.0 
        0.1612778000         0.1813806839

 13 0
s   3 1.0 
       18.7311370000         0.2149354183
        2.8253937000         0.3645711272
        0.6401217000         0.4150514277
s   1 1.0 
        0.1612778000         0.1813806839

[5D]
[7F]
[9G]
[MO]
 Sym=     1a
 Ene= -1.12360858295912E+01
 Spin= Alpha
 Occup= 2.000000
  1       0.059485356719
  2       0.000628076777
  3      -0.000004108272
  4       0.000173537744
  5      -0.000108417629
  6       0.005557777958
  7       0.000993437728
  8      -0.001992134252
  9       0.001750819935
 10      -0.000099133583
 11       0.000551264543
 12       0.000287906747
 13      -0.000010878494
 14       0.000049280228
 15       0.000042698908
 16      -0.000022646226
 17       0.000040060128
 18      -0.000030491083
 19      -0.000202485752
 20       0.000438070169
 21       0.029482120512
 22       0.000491738014
 23       0.000169582389
 24       0.000042386631
 25       0.000124396075
 26      -0.000553103747
 27      -0.000483140597
 28      -0.000410509567
 29      -0.000237773399
 30       0.046487459670
 31       0.000496028032
 32       0.000135764658
 33      -0.000067984685
 34       0.000126341120
 35       0.003942810427
 36      -0.001514365176
 37       0.001385319209
 38      -0.001822224239
 39       0.992825227526
 40       0.024857985870
 41       0.000096077644
 42       0.000163307962
 43       0.000021733686
 44      -0.017366392242
 45      -0.001447139233
 46      -0.001807817894
 47      -0.000712045423
 48      -0.000081093351
 49       0.000496528807
 50      -0.000276760473
 51      -0.000333837256
 52       0.000003415493
 53      -0.000014567072
 54       0.000001520496
 55       0.000001499645
 56       0.000041672345
 57       0.000465883278
 58      -0.000084854191
 59       0.000450613283
 60      -0.000268583036
 61       0.002049991255
 Sym=     1a
 Ene= -1.12351796729161E+01
 Spin= Alpha
 Occup= 2.000000
  1       0.002610177729
  2       0.000072359867
  3       0.000028818463
  4       0.000027633903
  5       0.000036084173
  6      -0.000215127034
  7      -0.000215958451
  8      -0.000128089803
  9      -0.000184476652
 10       0.000199784981
 11      -0.000065519142
 12      -0.016787469167
 13       0.000000234571
 14      -0.000017879884
 15      -0.000163010414
 16       0.000039944669
 17      -0.003668004345
 18       0.001279494251
 19       0.002157886662
 20      -0.000718277420
 21      -0.989711838832
 22      -0.024703734501
 23       0.000138422872
 24      -0.000017740413
 25       0.000089561931
 26       0.017172215621
 27      -0.001338809797
 28       0.000834661192
 29      -0.001776760332
 30      -0.106169592735
 31      -0.001651690150
 32       0.000226560009
 33       0.000128381843
 34       0.000003322158
 35      -0.005200648122
 36      -0.002430687239
 37      -0.002000479974
 38       0.000634470577
 39       0.034265009146
 40       0.001007940661
 41       0.000149584795
 42      -0.000028147282
 43       0.000118423579
 44       0.000166105648
 45       0.000346253393
 46       0.000234472627
 47       0.000083561850
 48      -0.000013885550
 49      -0.000119256624
 50       0.000012078856
 51       0.000325767608
 52       0.000197395325
 53      -0.000896057042
 54       0.000093532095
 55      -0.000204199860
 56       0.000265477819
 57      -0.002086419557
 58       0.000048619743
 59      -0.000801101009
 60      -0.000004576241
 61       0.000068594257
 Sym=     1a
 Ene= -1.12274993702611E+01
 Spin= Alpha
 Occup= 2.000000
  1      -0.008327786515
  2      -0.000373770427
  3      -0.000059814397
  4       0.000130480081
  5      -0.000154197959
  6      -0.000731511865
  7      -0.000205127394
  8      -0.000150351489
  9       0.000163387912
 10       0.000066934513
 11       0.000186772082
 12      -0.003951881026
 13      -0.000077471356
 14       0.000107325057
 15       0.000114189518
 16      -0.000088059164
 17      -0.001801906488
 18       0.000568633784
 19       0.000642306648
 20      -0.000033180033
 21      -0.108177063359
 22      -0.003750260965
 23       0.000225930892
 24       0.000037796722
 25       0.000098620288
 26       0.009476145910
 27      -0.003150001972
 28       0.000178794061
 29      -0.002099553213
 30       0.989386153768
 31       0.025116437103
 32       0.000117337492
 33       0.000172213326
 34      -0.000170876386
 35      -0.019536458564
 36      -0.001330295809
 37      -0.002685760657
 38       0.002074119577
 39      -0.042856084048
 40      -0.001720150757
 41      -0.000123314540
 42       0.000035012721
 43      -0.000110566013
 44       0.005984246881
 45       0.002533829053
 46       0.000062214216
 47       0.001750294643
 48       0.000043256579
 49       0.000326881866
 50      -0.000041709072
 51       0.000318360505
 52       0.000047450920
 53      -0.000147848742
 54       0.000058263050
 55       0.000097217282
 56       0.000006401979
 57       0.000339935970
 58      -0.000295750997
 59       0.001716791718
 60      -0.000063855199
 61       0.000340178217
 Sym=     1a
 Ene= -1.12220875646837E+01
 Spin= Alpha
 Occup= 2.000000
  1      -0.994317524109
  2      -0.024762240143
  3      -0.000058927197
  4       0.000198186401
  5      -0.000059474646
  6       0.016496935858
  7       0.000390012824
  8      -0.001670665713
  9       0.000799386061
 10       0.000147345816
 11      -0.000908475860
 12       0.000347983995
 13       0.000027545610
 14      -0.000075375883
 15       0.000011452721
 16       0.000058500462
 17      -0.000024616290
 18       0.000255207686
 19       0.000041213093
 20      -0.000648096072
 21       0.000058642529
 22      -0.000013088952
 23      -0.000037567926
 24       0.000018835921
 25      -0.000019509887
 26      -0.000013942481
 27       0.000368396746
 28       0.000362228266
 29      -0.000105582077
 30      -0.005765895259
 31      -0.000031769862
 32      -0.000065830610
 33       0.000079748981
 34      -0.000082631436
 35       0.000506032669
 36       0.000360255467
 37       0.000046987244
 38       0.000249476106
 39       0.060431169895
 40       0.002351513413
 41      -0.000040664704
 42       0.000299979304
 43      -0.000120539177
 44      -0.006839338418
 45       0.000292574988
 46      -0.002850732204
 47       0.001269048211
 48       0.000209469791
 49      -0.002658556001
 50       0.000156480056
 51      -0.002744044541
 52      -0.000036543410
 53       0.000463466581
 54      -0.000004950177
 55      -0.000178917728
 56       0.000005669088
 57       0.000003272919
 58      -0.000034229519
 59      -0.000189541465
 60       0.000114071064
 61       0.000008177611
 Sym=     1a
 Ene= -1.12163034945758E+01
 Spin= Alpha
 Occup= 2.000000
  1       0.000342196801
  2      -0.000011580630
  3      -0.000084516370
  4      -0.000000376185
  5      -0.000088662401
  6       0.000253070385
  7       0.000380233482
  8      -0.000329556583
  9       0.000528107227
 10       0.000074402255
 11       0.003186688969
 12       0.996056678103
 13       0.026106842539
 14      -0.000048120646
 15       0.000013446146
 16       0.000069301059
 17      -0.019226794581
 18       0.000601373025
 19       0.000726199273
 20      -0.000640666875
 21      -0.017284270896
 22      -0.000869757464
 23      -0.000085448488
 24      -0.000117492041
 25       0.000085924099
 26       0.004064241773
 27       0.001643148847
 28       0.002277033488
 29      -0.001349594539
 30       0.002122948465
 31      -0.000131963876
 32      -0.000131674740
 33      -0.000100467853
 34       0.000029507071
 35       0.000563715865
 36       0.000832645781
 37       0.000368149828
 38       0.000150208129
 39       0.000109642879
 40       0.000027219650
 41      -0.000049105124
 42      -0.000035558658
 43      -0.000012528479
 44      -0.000384972542
 45      -0.000071809198
 46      -0.000453625445
 47       0.000192794803
 48       0.000041034496
 49       0.000427320169
 50      -0.000054597185
 51       0.000039566274
 52       0.000068989598
 53       0.003296728465
 54       0.000047074586
 55       0.003141301260
 56      -0.000120550804
 57       0.000099738316
 58       0.000027435861
 59       0.000412614526
 60      -0.000029630820
 61      -0.000031396520
 Sym=     1a
 Ene= -1.09869153098987E+00
 Spin= Alpha
 Occup= 2.000000
  1      -0.076025247589
  2       0.148712947091
  3       0.014175990835
  4      -0.057785307954
  5       0.031915349359
  6       0.101030217332
  7      -0.000015051993
  8      -0.003240241296
  9      -0.000885258627
 10       0.037152835175
 11       0.002087277414
 12      -0.067104679910
 13       0.124989419209
 14      -0.024776404051
 15      -0.030995193603
 16       0.016911455590
 17       0.117894453152
 18      -0.010835839058
 19      -0.003505882841
 20       0.001145240121
 21      -0.113389797111
 22       0.225194471031
 23      -0.061255031938
 24      -0.007626454793
 25      -0.027982122700
 26       0.137606861695
 27       0.000097676399
 28      -0.004505842092
 29       0.004873891865
 30      -0.126419043902
 31       0.249532439423
 32       0.035563361356
 33       0.041869454806
 34      -0.023109891270
 35       0.164203315299
 36      -0.000627967485
 37       0.004185746485
 38      -0.004855498931
 39      -0.111266365726
 40       0.220934916813
 41       0.032498707711
 42       0.031633061200
 43       0.014965301034
 44       0.139820509218
 45       0.005106046585
 46      -0.000345865670
 47       0.003574712936
 48       0.033476577136
 49       0.002014717460
 50       0.039732332350
 51       0.007279322121
 52       0.033911662062
 53       0.000323571325
 54       0.031637891793
 55       0.004481430244
 56       0.053440117728
 57       0.004462062130
 58       0.060010805233
 59       0.008901884474
 60       0.053574491175
 61       0.008235674579
 Sym=     1a
 Ene= -1.02243940749489E+00
 Spin= Alpha
 Occup= 2.000000
  1      -0.120534180292
  2       0.236666861438
  3       0.002578077937
  4      -0.078604397773
  5       0.031695950853
  6       0.181699525510
  7       0.002089669760
  8      -0.002923763852
  9       0.003732574359
 10      -0.055098573574
 11      -0.005651912564
 12       0.101265236942
 13      -0.192375702857
 14       0.014414724422
 15       0.029741361519
 16      -0.022501787049
 17      -0.180516505911
 18      -0.000550017811
 19       0.000933591510
 20      -0.003290323945
 21       0.102326155970
 22      -0.203104926574
 23      -0.005156196731
 24      -0.020135182053
 25       0.018482082753
 26      -0.147365994725
 27      -0.002439548171
 28      -0.006032928868
 29       0.004602929836
 30       0.021064744557
 31      -0.041940747147
 32      -0.100932950932
 33      -0.008170972043
 34      -0.048335142514
 35      -0.027140234289
 36      -0.008738845108
 37       0.011256963187
 38      -0.013111308169
 39      -0.114926686549
 40       0.229495194492
 41      -0.026280895708
 42       0.077357932491
 43      -0.046904693559
 44       0.158310488533
 45      -0.011285076398
 46      -0.004071518959
 47      -0.006270098752
 48       0.068479462963
 49       0.015557403219
 50       0.061318818892
 51       0.006277859178
 52      -0.058688957457
 53      -0.005700300887
 54      -0.060180921936
 55      -0.008719282280
 56      -0.063096494944
 57      -0.016509754216
 58      -0.010337504066
 59       0.003756384337
 60       0.067590061307
 61       0.011120128558
 Sym=     1a
 Ene= -9.40796039449960E-01
 Spin= Alpha
 Occup= 2.000000
  1      -0.079680805157
  2       0.156357669754
  3      -0.000988593627
  4      -0.015349682865
  5       0.002075613200
  6       0.135642424155
  7       0.003984294017
  8       0.002029922701
  9      -0.000038398010
 10       0.098046093941
 11       0.022905773062
 12      -0.139114602079
 13       0.262206449450
 14       0.015494672110
 15       0.019513887113
 16      -0.007945045162
 17       0.293018669438
 18      -0.002498473687
 19       0.002139299708
 20       0.001194522776
 21       0.029893503632
 22      -0.056200939126
 23       0.134256619694
 24       0.114796114824
 25      -0.035802612617
 26      -0.074478762790
 27       0.019404925859
 28       0.010494472458
 29      -0.000170916748
 30       0.118155489021
 31      -0.235078383774
 32      -0.036488477342
 33       0.010419613252
 34      -0.024424252953
 35      -0.182704901865
 36       0.005604308980
 37       0.015098911237
 38      -0.007695796987
 39      -0.006337751362
 40       0.011422340282
 41      -0.053107019592
 42       0.088139098935
 43      -0.081329652657
 44       0.008044942867
 45      -0.014177620670
 46       0.006064228932
 47      -0.014200681815
 48       0.058190801072
 49       0.018730871441
 50       0.057852013089
 51       0.016007205920
 52       0.099842685564
 53       0.024716920661
 54       0.101841998703
 55       0.027922688358
 56      -0.020648094665
 57      -0.007344304571
 58      -0.091203413023
 59      -0.025412099945
 60       0.000764573417
 61      -0.003656032976
 Sym=     1a
 Ene= -8.14948004019602E-01
 Spin= Alpha
 Occup= 2.000000
  1      -0.102423205487
  2       0.204005170563
  3      -0.012933814230
  4       0.081136668053
  5      -0.040780427761
  6       0.190222216522
  7      -0.004797108591
  8       0.031838746460
  9      -0.015499238800
 10      -0.059860015731
 11      -0.023404751269
 12       0.058533259101
 13      -0.110644853742
 14      -0.035081992861
 15      -0.062244347252
 16       0.044448373786
 17      -0.144490017745
 18      -0.015143245732
 19      -0.014006797916
 20       0.008073143038
 21      -0.091350963884
 22       0.182512156040
 23      -0.018235448028
 24      -0.062991551383
 25       0.059141306380
 26       0.176994399364
 27       0.013279770489
 28      -0.007723736155
 29       0.018734597082
 30       0.031494505001
 31      -0.065814284702
 32       0.194535186083
 33       0.033770041877
 34       0.097373319948
 35      -0.055065186791
 36       0.047301180544
 37       0.008541028678
 38       0.023562557780
 39       0.086398338019
 40      -0.176472887089
 41      -0.025605050994
 42       0.152310943134
 43      -0.083495074333
 44      -0.162267385987
 45      -0.002336453303
 46       0.050407286918
 47      -0.022167308417
 48       0.113184526683
 49       0.048336029051
 50       0.109792008438
 51       0.043641185971
 52      -0.058819619567
 53      -0.023643364843
 54      -0.059769276401
 55      -0.020357339212
 56       0.106097210009
 57       0.043774862729
 58      -0.041734986576
 59      -0.018959457841
 60      -0.108589509633
 61      -0.044555585908
 Sym=     1a
 Ene= -7.15493675675903E-01
 Spin= Alpha
 Occup= 2.000000
  1      -0.040171965891
  2       0.080797402083
  3       0.057736303980
  4       0.198978867074
  5      -0.012742321497
  6       0.081701737651
  7       0.016904526053
  8       0.066302579779
  9      -0.007748559142
 10       0.080908443989
 11       0.045130726759
 12      -0.023185079513
 13       0.041724630271
 14      -0.011435962335
 15       0.108211997392
 16      -0.104987455276
 17       0.066706346171
 18      -0.006257220943
 19       0.038554826375
 20      -0.037322812343
 21       0.073503599912
 22      -0.149649802353
 23      -0.168003226853
 24      -0.006720544019
 25      -0.080249523219
 26      -0.152515506433
 27      -0.073050632233
 28       0.002892317764
 29      -0.038772454619
 30      -0.077458323216
 31       0.158563437998
 32      -0.030155456634
 33      -0.028761211195
 34       0.026058549914
 35       0.151470009587
 36      -0.031911705896
 37      -0.034812621133
 38       0.017388997080
 39       0.069713413297
 40      -0.141985413737
 41       0.137522288955
 42       0.030231177957
 43       0.120693278165
 44      -0.140528919120
 45       0.055167697343
 46       0.042784851408
 47       0.033602165487
 48       0.042494317853
 49       0.020367026126
 50       0.142142533975
 51       0.087145701031
 52       0.053169792287
 53       0.029725801067
 54       0.006952980415
 55       0.000426556117
 56      -0.152062416453
 57      -0.076930364839
 58       0.100343165453
 59       0.040854395961
 60      -0.143483060429
 61      -0.068806811908
 Sym=     1a
 Ene= -6.66121126123730E-01
 Spin= Alpha
 Occup= 2.000000
  1       0.021362470658
  2      -0.042376368716
  3       0.134046467326
  4      -0.090822582266
  5       0.142442748179
  6      -0.061163306106
  7       0.056722343263
  8      -0.022901707409
  9       0.051509265163
 10       0.016409397517
 11       0.010193613294
 12       0.015562462096
 13      -0.027875255758
 14      -0.136431985555
 15      -0.065293176965
 16      -0.010141556341
 17      -0.048588863040
 18      -0.061400820391
 19      -0.022504214484
 20      -0.011701636314
 21      -0.024285533538
 22       0.051219914843
 23      -0.103649294665
 24       0.084998782276
 25      -0.133918693779
 26       0.037043556066
 27      -0.023486402447
 28       0.037126435689
 29      -0.044963817466
 30       0.019741478700
 31      -0.038058544780
 32       0.090970904996
 33       0.231169153062
 34      -0.155313609149
 35      -0.048063565714
 36       0.040056907663
 37       0.097037643962
 38      -0.062353657123
 39      -0.025785584309
 40       0.055577343068
 41       0.124877634895
 42       0.144715746255
 43       0.027289557574
 44       0.047514832522
 45       0.040787044795
 46       0.045386416630
 47       0.006431431562
 48      -0.140014819543
 49      -0.087765917994
 50       0.001193437472
 51      -0.004247089017
 52      -0.030249820610
 53      -0.017182175757
 54      -0.090888998448
 55      -0.055371436980
 56      -0.081459287389
 57      -0.058074915557
 58      -0.187138502402
 59      -0.114370976716
 60      -0.081386795873
 61      -0.060114892303
 Sym=     1a
 Ene= -6.05646312812623E-01
 Spin= Alpha
 Occup= 2.000000
  1      -0.006616163399
  2       0.014467368814
  3       0.180136462306
  4       0.104772960013
  5       0.172366185360
  6       0.027843286141
  7       0.079890516188
  8       0.046969922084
  9       0.081076875602
 10      -0.109269884786
 11      -0.073157690099
 12       0.009833576590
 13      -0.018394107073
 14       0.102571498033
 15      -0.031477144565
 16       0.147197611273
 17      -0.031548835685
 18       0.041491961051
 19      -0.013959533487
 20       0.068868647362
 21       0.003419540255
 22      -0.009757655043
 23       0.238912538300
 24       0.037953498030
 25       0.133662298169
 26       0.002293808132
 27       0.093714392562
 28       0.009065485012
 29       0.061855259466
 30       0.009844783750
 31      -0.021684452169
 32      -0.229232018400
 33      -0.041050087314
 34      -0.048278553483
 35       0.007006373721
 36      -0.067670691775
 37       0.001508442862
 38      -0.014137323177
 39      -0.013225340182
 40       0.030601383087
 41       0.128225196247
 42       0.056537212505
 43       0.148944388770
 44       0.022369405938
 45       0.038719702295
 46       0.012323952846
 47       0.058700223280
 48      -0.133103741096
 49      -0.092108977331
 50       0.141362279175
 51       0.091492748802
 52      -0.003999282993
 53       0.001655104985
 54       0.060281484699
 55       0.049455862921
 56       0.130356200370
 57       0.091536321686
 58       0.033536492545
 59       0.030683564208
 60      -0.086411819742
 61      -0.068353941890
 Sym=     1a
 Ene= -5.85193067199022E-01
 Spin= Alpha
 Occup= 2.000000
  1       0.007249145973
  2      -0.019432441257
  3      -0.049878117384
  4       0.284010719978
  5      -0.157790841735
  6       0.016668731166
  7      -0.013891189003
  8       0.101254396075
  9      -0.055860543341
 10      -0.017485513875
 11      -0.009983990534
 12       0.005794938765
 13      -0.005842338624
 14      -0.120695256070
 15      -0.179410487885
 16       0.058234165685
 17      -0.036206694691
 18      -0.051511889124
 19      -0.075394070185
 20       0.021401161482
 21      -0.024960048017
 22       0.051118595784
 23       0.107321802749
 24       0.142206982129
 25      -0.122833234005
 26       0.085832488453
 27       0.040283249061
 28       0.056433196213
 29      -0.055728374276
 30       0.009004435658
 31      -0.017440181058
 32      -0.101746800119
 33       0.043420598283
 34      -0.168135734790
 35      -0.018016976598
 36      -0.037119970537
 37       0.017119301570
 38      -0.072863556710
 39       0.008245231929
 40      -0.019462307411
 41       0.039724372704
 42      -0.308289234153
 43       0.119057169183
 44       0.003225949286
 45       0.006356858625
 46      -0.111171999451
 47       0.031408285831
 48       0.116080595872
 49       0.091342503521
 50       0.090687012639
 51       0.066620980715
 52      -0.072326543457
 53      -0.054227956351
 54      -0.073236118871
 55      -0.054294102076
 56      -0.025523696111
 57      -0.021418171754
 58      -0.073666734782
 59      -0.051630305897
 60       0.097425526189
 61       0.072934307965
 Sym=     1a
 Ene= -5.66974271554142E-01
 Spin= Alpha
 Occup= 2.000000
  1       0.005464094966
  2      -0.011309131065
  3      -0.030985662308
  4       0.020997625717
  5      -0.011328984059
  6      -0.014750932507
  7      -0.016027749641
  8       0.003895799045
  9       0.002771991398
 10      -0.129281213173
 11      -0.100086656161
 12       0.000450414552
 13      -0.001766485869
 14      -0.197790471194
 15       0.259130997060
 16       0.260086525737
 17      -0.000504279642
 18      -0.097359103106
 19       0.132523121247
 20       0.132525028909
 21      -0.005600497020
 22       0.009181887239
 23      -0.059833451122
 24       0.099176935653
 25       0.063644808132
 26       0.032136730306
 27      -0.038526656735
 28       0.046340135104
 29       0.029174604754
 30       0.002993207031
 31      -0.003664070938
 32      -0.014488944390
 33       0.047834160846
 34       0.048989360504
 35      -0.024294950969
 36      -0.023174646897
 37       0.021849680542
 38       0.033129162165
 39      -0.000424363860
 40       0.000967212562
 41      -0.049044711832
 42      -0.037171568978
 43       0.007560096756
 44       0.002044750302
 45      -0.023115988942
 46      -0.015984735740
 47       0.004048682592
 48       0.014571123347
 49       0.013515853777
 50      -0.000086908688
 51       0.009922708020
 52       0.255021698792
 53       0.198742872374
 54      -0.140715535102
 55      -0.110172334322
 56      -0.012571175263
 57      -0.011018408058
 58      -0.005666025822
 59      -0.007938548090
 60       0.037872876154
 61       0.028684560566
 Sym=     1a
 Ene= -5.39049867710440E-01
 Spin= Alpha
 Occup= 2.000000
  1       0.009488548630
  2      -0.021294639498
  3       0.150369700630
  4       0.077858251220
  5       0.105858607477
  6      -0.006073071811
  7       0.094437739231
  8       0.036788302805
  9       0.063549803790
 10       0.188960072344
 11       0.148211105729
 12       0.005196511396
 13      -0.013089065794
 14      -0.220726119101
 15       0.056577528405
 16      -0.222222610047
 17       0.004029943242
 18      -0.133202983466
 19       0.025754254857
 20      -0.120710127148
 21      -0.007744755778
 22       0.015050195328
 23       0.069201689156
 24      -0.086200271593
 25       0.099801465248
 26       0.017648495780
 27       0.042332859060
 28      -0.055530585068
 29       0.064197683041
 30       0.035567763512
 31      -0.079668454653
 32       0.008521988075
 33      -0.102741025595
 34       0.074550158505
 35      -0.073190410669
 36       0.011431803600
 37      -0.023822918157
 38       0.013657373576
 39      -0.007890906741
 40       0.014263630948
 41      -0.106168364357
 42      -0.085200346968
 43      -0.076021521532
 44       0.017195189210
 45      -0.069569361049
 46      -0.063174913345
 47      -0.046446715098
 48      -0.128319635644
 49      -0.092421884964
 50       0.121157923082
 51       0.092365233589
 52       0.009255725912
 53       0.010346214330
 54      -0.168889173295
 55      -0.131093149476
 56       0.111226045729
 57       0.077173625688
 58       0.036527886453
 59       0.045968038314
 60       0.116065798284
 61       0.079137935931
 Sym=     1a
 Ene= -5.06777699199042E-01
 Spin= Alpha
 Occup= 2.000000
  1      -0.012004577576
  2       0.027303829024