[Molden Format]
[Title]
 Molden file created by orca_2mkl for BaseName=h-shift_089

[Atoms] AU
C    1   6         -0.8841329382         0.0059715346         0.0547529250 
H    2   1          4.1307032233         0.0333650046         0.0502024645 
C    3   6          4.7228885916         0.0189350559         2.0093571366 
C    4   6          3.5049052962        -2.1086565757         3.4389614130 
C    5   6          1.1966048236        -3.0373568151         3.0556777099 
C    6   6         -0.6279635532        -2.2606132336         1.1082714652 
H    7   1         -2.2328644950         0.3251141533        -1.4249064173 
H    8   1          0.2060292815         1.6136012410         0.6230143605 
H    9   1          4.2045971843         1.8361505083         2.8146166854 
H   10   1          6.7625626045        -0.1142509523         2.0673093679 
H   11   1          4.6362786634        -2.9615334437         4.8987446159 
H   12   1          0.5978186419        -4.5956684488         4.2194825570 
H   13   1         -1.8740792015        -3.7441276172         0.4847487684 
[GTO]
  1 0
s   6 1.0 
     3047.5249000000         0.5363343823
      457.3695100000         0.9894506076
      103.9486900000         1.5972822308
       29.2101550000         2.0791870615
        9.2866630000         1.7741742532
        3.1639270000         0.6125798260
s   3 1.0 
        7.8682724000        -0.3995563516
        1.8812885000        -0.1841552393
        0.5442493000         0.5163903794
p   3 1.0 
        7.8682724000         1.2960827175
        1.8812885000         0.9937536282
        0.5442493000         0.4959527138
s   1 1.0 
        0.1687144000         0.1876178721
p   1 1.0 
        0.1687144000         0.1541275509

  2 0
s   3 1.0 
       18.7311370000         0.2149354183
        2.8253937000         0.3645711272
        0.6401217000         0.4150514277
s   1 1.0 
        0.1612778000         0.1813806839

  3 0
s   6 1.0 
     3047.5249000000         0.5363343823
      457.3695100000         0.9894506076
      103.9486900000         1.5972822308
       29.2101550000         2.0791870615
        9.2866630000         1.7741742532
        3.1639270000         0.6125798260
s   3 1.0 
        7.8682724000        -0.3995563516
        1.8812885000        -0.1841552393
        0.5442493000         0.5163903794
p   3 1.0 
        7.8682724000         1.2960827175
        1.8812885000         0.9937536282
        0.5442493000         0.4959527138
s   1 1.0 
        0.1687144000         0.1876178721
p   1 1.0 
        0.1687144000         0.1541275509

  4 0
s   6 1.0 
     3047.5249000000         0.5363343823
      457.3695100000         0.9894506076
      103.9486900000         1.5972822308
       29.2101550000         2.0791870615
        9.2866630000         1.7741742532
        3.1639270000         0.6125798260
s   3 1.0 
        7.8682724000        -0.3995563516
        1.8812885000        -0.1841552393
        0.5442493000         0.5163903794
p   3 1.0 
        7.8682724000         1.2960827175
        1.8812885000         0.9937536282
        0.5442493000         0.4959527138
s   1 1.0 
        0.1687144000         0.1876178721
p   1 1.0 
        0.1687144000         0.1541275509

  5 0
s   6 1.0 
     3047.5249000000         0.5363343823
      457.3695100000         0.9894506076
      103.9486900000         1.5972822308
       29.2101550000         2.0791870615
        9.2866630000         1.7741742532
        3.1639270000         0.6125798260
s   3 1.0 
        7.8682724000        -0.3995563516
        1.8812885000        -0.1841552393
        0.5442493000         0.5163903794
p   3 1.0 
        7.8682724000         1.2960827175
        1.8812885000         0.9937536282
        0.5442493000         0.4959527138
s   1 1.0 
        0.1687144000         0.1876178721
p   1 1.0 
        0.1687144000         0.1541275509

  6 0
s   6 1.0 
     3047.5249000000         0.5363343823
      457.3695100000         0.9894506076
      103.9486900000         1.5972822308
       29.2101550000         2.0791870615
        9.2866630000         1.7741742532
        3.1639270000         0.6125798260
s   3 1.0 
        7.8682724000        -0.3995563516
        1.8812885000        -0.1841552393
        0.5442493000         0.5163903794
p   3 1.0 
        7.8682724000         1.2960827175
        1.8812885000         0.9937536282
        0.5442493000         0.4959527138
s   1 1.0 
        0.1687144000         0.1876178721
p   1 1.0 
        0.1687144000         0.1541275509

  7 0
s   3 1.0 
       18.7311370000         0.2149354183
        2.8253937000         0.3645711272
        0.6401217000         0.4150514277
s   1 1.0 
        0.1612778000         0.1813806839

  8 0
s   3 1.0 
       18.7311370000         0.2149354183
        2.8253937000         0.3645711272
        0.6401217000         0.4150514277
s   1 1.0 
        0.1612778000         0.1813806839

  9 0
s   3 1.0 
       18.7311370000         0.2149354183
        2.8253937000         0.3645711272
        0.6401217000         0.4150514277
s   1 1.0 
        0.1612778000         0.1813806839

 10 0
s   3 1.0 
       18.7311370000         0.2149354183
        2.8253937000         0.3645711272
        0.6401217000         0.4150514277
s   1 1.0 
        0.1612778000         0.1813806839

 11 0
s   3 1.0 
       18.7311370000         0.2149354183
        2.8253937000         0.3645711272
        0.6401217000         0.4150514277
s   1 1.0 
        0.1612778000         0.1813806839

 12 0
s   3 1.0 
       18.7311370000         0.2149354183
        2.8253937000         0.3645711272
        0.6401217000         0.4150514277
s   1 1.0 
        0.1612778000         0.1813806839

 13 0
s   3 1.0 
       18.7311370000         0.2149354183
        2.8253937000         0.3645711272
        0.6401217000         0.4150514277
s   1 1.0 
        0.1612778000         0.1813806839

[5D]
[7F]
[9G]
[MO]
 Sym=     1a
 Ene= -1.12360767466958E+01
 Spin= Alpha
 Occup= 2.000000
  1       0.059020338198
  2       0.000619791219
  3      -0.000001633676
  4       0.000174001827
  5      -0.000110328107
  6       0.005547067057
  7       0.000969147490
  8      -0.001992330995
  9       0.001759599111
 10      -0.000100474584
 11       0.000555446893
 12       0.000311212722
 13      -0.000013061700
 14       0.000049332015
 15       0.000044325010
 16      -0.000023411659
 17       0.000044961018
 18      -0.000026059566
 19      -0.000210227694
 20       0.000440647965
 21       0.031313735044
 22       0.000534131176
 23       0.000169259390
 24       0.000041891408
 25       0.000122832413
 26      -0.000573159373
 27      -0.000493091251
 28      -0.000407414678
 29      -0.000238102247
 30       0.046581804880
 31       0.000498379790
 32       0.000134437607
 33      -0.000068134451
 34       0.000125891268
 35       0.003932342134
 36      -0.001504051017
 37       0.001381986810
 38      -0.001816797439
 39       0.992792599139
 40       0.024855711937
 41       0.000099675602
 42       0.000161066381
 43       0.000016713497
 44      -0.017353701739
 45      -0.001454930665
 46      -0.001791314590
 47      -0.000691043839
 48      -0.000081100727
 49       0.000495656744
 50      -0.000276188101
 51      -0.000327764873
 52       0.000003476814
 53      -0.000013166455
 54       0.000000912248
 55       0.000000821544
 56       0.000041605771
 57       0.000472742370
 58      -0.000084927274
 59       0.000446449990
 60      -0.000267898099
 61       0.002055399814
 Sym=     1a
 Ene= -1.12352239438398E+01
 Spin= Alpha
 Occup= 2.000000
  1       0.002691149483
  2       0.000071615891
  3       0.000027505595
  4       0.000028331046
  5       0.000034682205
  6      -0.000206080780
  7      -0.000204638861
  8      -0.000139278109
  9      -0.000177614151
 10       0.000199737908
 11      -0.000076768029
 12      -0.016607990485
 13       0.000002068974
 14      -0.000016374446
 15      -0.000162204436
 16       0.000040355127
 17      -0.003670009524
 18       0.001264082037
 19       0.002165062040
 20      -0.000731271178
 21      -0.989768309503
 22      -0.024708929102
 23       0.000141407642
 24      -0.000021116467
 25       0.000090644003
 26       0.017192350067
 27      -0.001367414160
 28       0.000853370703
 29      -0.001774289740
 30      -0.105081489593
 31      -0.001626686618
 32       0.000225742731
 33       0.000128266361
 34       0.000002812367
 35      -0.005213280303
 36      -0.002441965119
 37      -0.002000518922
 38       0.000636691467
 39       0.036050459088
 40       0.001055787251
 41       0.000149470362
 42      -0.000030201735
 43       0.000117506395
 44       0.000122560807
 45       0.000337647587
 46       0.000232230286
 47       0.000086327992
 48      -0.000013137349
 49      -0.000112736717
 50       0.000008983320
 51       0.000335681554
 52       0.000198328702
 53      -0.000898796496
 54       0.000093003852
 55      -0.000200992244
 56       0.000266116978
 57      -0.002079055760
 58       0.000048424561
 59      -0.000800681657
 60      -0.000004679062
 61       0.000074497363
 Sym=     1a
 Ene= -1.12274714478537E+01
 Spin= Alpha
 Occup= 2.000000
  1      -0.008195972549
  2      -0.000368216391
  3      -0.000058746727
  4       0.000130189274
  5      -0.000154987883
  6      -0.000745348373
  7      -0.000206565860
  8      -0.000143276545
  9       0.000161933280
 10       0.000066183046
 11       0.000184203415
 12      -0.003868405255
 13      -0.000076680166
 14       0.000106723124
 15       0.000113718629
 16      -0.000089498968
 17      -0.001799757185
 18       0.000555566778
 19       0.000646774637
 20      -0.000033421312
 21      -0.107172526559
 22      -0.003724521170
 23       0.000226058617
 24       0.000036207229
 25       0.000096944189
 26       0.009476729063
 27      -0.003168981328
 28       0.000184561715
 29      -0.002080995744
 30       0.989498753063
 31       0.025121272341
 32       0.000120215012
 33       0.000172154619
 34      -0.000177402954
 35      -0.019546827654
 36      -0.001351100138
 37      -0.002688462811
 38       0.002099676049
 39      -0.042801547562
 40      -0.001718594498
 41      -0.000123425702
 42       0.000035161715
 43      -0.000110345506
 44       0.005998196344
 45       0.002533575178
 46       0.000057552930
 47       0.001750218674
 48       0.000043941673
 49       0.000328211136
 50      -0.000041433189
 51       0.000318517010
 52       0.000044635888
 53      -0.000148834522
 54       0.000058497910
 55       0.000103723950
 56       0.000005192710
 57       0.000342516874
 58      -0.000296618365
 59       0.001708620451
 60      -0.000064939193
 61       0.000342530845
 Sym=     1a
 Ene= -1.12219858117992E+01
 Spin= Alpha
 Occup= 2.000000
  1      -0.994346557757
  2      -0.024771276937
  3      -0.000061425001
  4       0.000198534107
  5      -0.000059383683
  6       0.016509173852
  7       0.000395741374
  8      -0.001670425101
  9       0.000806719086
 10       0.000150648938
 11      -0.000941141497
 12       0.000359911970
 13       0.000031529499
 14      -0.000079426104
 15       0.000011339752
 16       0.000059565732
 17      -0.000025830498
 18       0.000277193823
 19       0.000045772492
 20      -0.000668252977
 21       0.000049647954
 22      -0.000016047414
 23      -0.000037631227
 24       0.000018844957
 25      -0.000019818314
 26       0.000012263300
 27       0.000362441757
 28       0.000373426655
 29      -0.000115005874
 30      -0.005657774763
 31      -0.000030499596
 32      -0.000066093792
 33       0.000079924978
 34      -0.000083184695
 35       0.000501011607
 36       0.000357771378
 37       0.000039293684
 38       0.000249196459
 39       0.059963680240
 40       0.002338695745
 41      -0.000039598701
 42       0.000298802372
 43      -0.000121388951
 44      -0.006835845631
 45       0.000271009502
 46      -0.002846235260
 47       0.001280548512
 48       0.000210014235
 49      -0.002656264897
 50       0.000153134947
 51      -0.002744012369
 52      -0.000033623058
 53       0.000474451521
 54      -0.000007279395
 55      -0.000192048926
 56       0.000005773086
 57       0.000006633308
 58      -0.000034702126
 59      -0.000192997950
 60       0.000114122892
 61       0.000006984194
 Sym=     1a
 Ene= -1.12161221053392E+01
 Spin= Alpha
 Occup= 2.000000
  1      -0.000354498844
  2       0.000014950492
  3       0.000086527037
  4       0.000001167367
  5       0.000091971233
  6      -0.000257318647
  7      -0.000390736653
  8       0.000325531439
  9      -0.000551711004
 10      -0.000074877027
 11      -0.003191924007
 12      -0.996059775360
 13      -0.026111478001
 14       0.000053042273
 15      -0.000012994470
 16      -0.000069514480
 17       0.019224642487
 18      -0.000610442650
 19      -0.000723630510
 20       0.000636581831
 21       0.017094840927
 22       0.000863975724
 23       0.000084901476
 24       0.000116430062
 25      -0.000084589255
 26      -0.004065287785
 27      -0.001627980054
 28      -0.002271112228
 29       0.001342273020
 30      -0.002075872547
 31       0.000134940205
 32       0.000130920534
 33       0.000099343755
 34      -0.000029530739
 35      -0.000573967444
 36      -0.000825415875
 37      -0.000372914334
 38      -0.000132526544
 39      -0.000113148103
 40      -0.000025712027
 41       0.000050694961
 42       0.000036654809
 43       0.000012827446
 44       0.000405229221
 45       0.000080845235
 46       0.000449595236
 47      -0.000183807875
 48      -0.000043781066
 49      -0.000440076325
 50       0.000053233846
 51      -0.000024339399
 52      -0.000069716720
 53      -0.003301043827
 54      -0.000045499531
 55      -0.003134633418
 56       0.000122506191
 57      -0.000093503542
 58      -0.000028075730
 59      -0.000416743088
 60       0.000029198645
 61       0.000029938396
 Sym=     1a
 Ene= -1.09897335211694E+00
 Spin= Alpha
 Occup= 2.000000
  1       0.075885157266
  2      -0.148404458684
  3      -0.013891841764
  4       0.057563882874
  5      -0.032078225017
  6      -0.100827894165
  7      -0.000028904726
  8       0.003202400989
  9       0.000941986445
 10      -0.037398599477
 11      -0.002001922556
 12       0.067366582680
 13      -0.125404248832
 14       0.024800474089
 15       0.031145687488
 16      -0.016941631064
 17      -0.118423328633
 18       0.011128650176
 19       0.003531454193
 20      -0.001083056414
 21       0.113473099084
 22      -0.225352346774
 23       0.061586892187
 24       0.007190644306
 25       0.027929197543
 26      -0.137515313840
 27      -0.000180728493
 28       0.004467759248
 29      -0.004812300410
 30       0.126335211498
 31      -0.249345748382
 32      -0.036003123988
 33      -0.041893203426
 34       0.023669783763
 35      -0.164118994575
 36       0.000535418290
 37      -0.004163260049
 38       0.004899250635
 39       0.111104654990
 40      -0.220583634601
 41      -0.032945268763
 42      -0.031305094501
 43      -0.014737175362
 44      -0.139643784060
 45      -0.005202801891
 46       0.000278930389
 47      -0.003536519985
 48      -0.033390440112
 49      -0.001963318481
 50      -0.039730498708
 51      -0.007254547902
 52      -0.034090924056
 53      -0.000309071768
 54      -0.031685126081
 55      -0.004592075554
 56      -0.053358784139
 57      -0.004419395035
 58      -0.059819233956
 59      -0.008809619432
 60      -0.053468538116
 61      -0.008242208354
 Sym=     1a
 Ene= -1.02220972873572E+00
 Spin= Alpha
 Occup= 2.000000
  1       0.120723442949
  2      -0.237019931802
  3      -0.002067769485
  4       0.078637153068
  5      -0.031900594813
  6      -0.182147405977
  7      -0.002074416544
  8       0.002938116003
  9      -0.003773086588
 10       0.054874878379
 11       0.005603502542
 12      -0.101077730787
 13       0.192045702672
 14      -0.014232821455
 15      -0.029816072305
 16       0.022564223820
 17       0.180146162490
 18       0.000548655845
 19      -0.000914121927
 20       0.003320777635
 21      -0.102206832039
 22       0.202869251800
 23       0.004850870329
 24       0.020338296890
 25      -0.018489251385
 26       0.147528526200
 27       0.002208426742
 28       0.006017476240
 29      -0.004650779951
 30      -0.020988737105
 31       0.041789261289
 32       0.100964645573
 33       0.007901001392
 34       0.048074295676
 35       0.026833212764
 36       0.008573122980
 37      -0.011343068751
 38       0.013013772873
 39       0.115111513362
 40      -0.229874169602
 41       0.025706557823
 42      -0.077294594818
 43       0.047550479540
 44      -0.158650790840
 45       0.011225261633
 46       0.004127812040
 47       0.006348317752
 48      -0.068648361407
 49      -0.015623388789
 50      -0.061376115658
 51      -0.006195385090
 52       0.058593718401
 53       0.005666246359
 54       0.060054485397
 55       0.008723876606
 56       0.062993834057
 57       0.016514756218
 58       0.010289308798
 59      -0.003783358897
 60      -0.067767801383
 61      -0.011173878431
 Sym=     1a
 Ene= -9.40838947386082E-01
 Spin= Alpha
 Occup= 2.000000
  1       0.079613269696
  2      -0.156184680682
  3       0.000824510674
  4       0.014881481369
  5      -0.002065252990
  6      -0.135682042161
  7      -0.004118981015
  8      -0.002013691336
  9       0.000020584698
 10      -0.098170790540
 11      -0.022850355774
 12       0.139083675114
 13      -0.262081206136
 14      -0.015103721891
 15      -0.019718929948
 16       0.008202457659
 17      -0.293153076860
 18       0.002766311408
 19      -0.002152576002
 20      -0.001085893162
 21      -0.029895637644
 22       0.056209019950
 23      -0.133818005876
 24      -0.114763356813
 25       0.036273530796
 26       0.074519166149
 27      -0.019371537470
 28      -0.010365599632
 29       0.000208411630
 30      -0.118241363751
 31       0.235249254024
 32       0.036419477343
 33      -0.010615438640
 34       0.023764028656
 35       0.182893833839
 36      -0.005576055373
 37      -0.015158880015
 38       0.007625177463
 39       0.005928206785
 40      -0.010619554428
 41       0.052430863252
 42      -0.088224722479
 43       0.081651832139
 44      -0.007256554542
 45       0.014110720597
 46      -0.006042168126
 47       0.014269574618
 48      -0.058122646363
 49      -0.018707465915
 50      -0.058124132794
 51      -0.016226308440
 52      -0.099839397879
 53      -0.024682890253
 54      -0.101764879219
 55      -0.027949954035
 56       0.020645614425
 57       0.007347465386
 58       0.091191136872
 59       0.025373870638
 60      -0.000434176305
 61       0.003786255022
 Sym=     1a
 Ene= -8.14773621632496E-01
 Spin= Alpha
 Occup= 2.000000
  1       0.102386904421
  2      -0.203926210491
  3       0.012438320554
  4      -0.081066288108
  5       0.041269191200
  6      -0.190198672697
  7       0.004547748882
  8      -0.031912995867
  9       0.015692654382
 10       0.059756104087
 11       0.023357508618
 12      -0.058708954506
 13       0.111026922997
 14       0.034666047783
 15       0.062479937298
 16      -0.044395617018
 17       0.144634042070
 18       0.015243122254
 19       0.014142422202
 20      -0.008108759154
 21       0.091403620457
 22      -0.182676583833
 23       0.017888258267
 24       0.063390908968
 25      -0.059210923765
 26      -0.177172243257
 27      -0.013386259064
 28       0.008092849614
 29      -0.018890949428
 30      -0.031327720345
 31       0.065457676746
 32      -0.194710313470
 33      -0.032995125638
 34      -0.096993629853
 35       0.054696235514
 36      -0.047195472477
 37      -0.008409303307
 38      -0.023267093411
 39      -0.086383127614
 40       0.176450315246
 41       0.024774051083
 42      -0.152192430837
 43       0.083609906214
 44       0.162385146607
 45       0.002209137198
 46      -0.050437412394
 47       0.022324728129
 48      -0.113242414335
 49      -0.048367648303
 50      -0.109722566661
 51      -0.043459164033
 52       0.058908911300
 53       0.023669098795
 54       0.060096936480
 55       0.020434198792
 56      -0.106256252115
 57      -0.043743178404
 58       0.041502114577
 59       0.018826831376
 60       0.108610876164
 61       0.044595546949
 Sym=     1a
 Ene= -7.15804727742260E-01
 Spin= Alpha
 Occup= 2.000000
  1       0.040007614884
  2      -0.080429226173
  3      -0.058819672393
  4      -0.198705575031
  5       0.013073279944
  6      -0.081455526902
  7      -0.017520096944
  8      -0.066051409320
  9       0.007830487946
 10      -0.080699260529
 11      -0.044926193876
 12       0.022896744771
 13      -0.041067337866
 14       0.013269565678
 15      -0.108402317071
 16       0.104516526609
 17      -0.066017238882
 18       0.007184368716
 19      -0.038711694095
 20       0.037252193769
 21      -0.073539867828
 22       0.149712361133
 23       0.168816705433
 24       0.006248300548
 25       0.078792954840
 26       0.152782303164
 27       0.073101500418
 28      -0.003278831284
 29       0.038128498247
 30       0.077504910255
 31      -0.158642134498
 32       0.030096652913
 33       0.028803484672
 34      -0.026323651983
 35      -0.151747956198
 36       0.031667339731
 37       0.034784004344
 38      -0.017637639938
 39      -0.069723499834
 40       0.141972593763
 41      -0.136980075523
 42      -0.029715680899
 43      -0.121098491935
 44       0.140473784589
 45      -0.054959269327
 46      -0.042377249683
 47      -0.033768326378
 48      -0.042189979310
 49      -0.020262455486
 50      -0.142184794867
 51      -0.087225192655
 52      -0.053230551436
 53      -0.029674525660
 54      -0.006428355709
 55      -0.000235276800
 56       0.152079281318
 57       0.076900164816
 58      -0.100487885413
 59      -0.040879203223
 60       0.143260174474
 61       0.068708388800
 Sym=     1a
 Ene= -6.66331716170417E-01
 Spin= Alpha
 Occup= 2.000000
  1      -0.021415905638
  2       0.042496305224
  3      -0.132056271746
  4       0.090533728034
  5      -0.143436637824
  6       0.061161290932
  7      -0.056001684597
  8       0.022809549976
  9      -0.051841033221
 10      -0.016306593257
 11      -0.010146686844
 12      -0.015757406526
 13       0.028332162727
 14       0.136902901519
 15       0.065782651356
 16       0.009331740666
 17       0.048884636042
 18       0.061815241317
 19       0.022705204259
 20       0.011259972492
 21       0.024203860199
 22      -0.050999316048
 23       0.104804948758
 24      -0.085472313249
 25       0.132987944986
 26      -0.036766838379
 27       0.024004107230
 28      -0.037093608624
 29       0.044759757138
 30      -0.019940452016
 31       0.038459511244
 32      -0.091428735525
 33      -0.231187234686
 34       0.155271401340
 35       0.048847002377
 36      -0.040132682031
 37      -0.097061635801
 38       0.062340265799
 39       0.025695007578
 40      -0.055326757717
 41      -0.124981804447
 42      -0.143942192823
 43      -0.027446674987
 44      -0.047367723619
 45      -0.040861175874
 46      -0.045167919075
 47      -0.006509953023
 48       0.139628359215
 49       0.087505044656
 50      -0.000951571087
 51       0.004498054650
 52       0.029912089671
 53       0.017020804032
 54       0.091603522593
 55       0.055691042745
 56       0.081571453862
 57       0.058075787146
 58       0.187304655583
 59       0.114340502691
 60       0.081184276950
 61       0.059919005403
 Sym=     1a
 Ene= -6.05276358925950E-01
 Spin= Alpha
 Occup= 2.000000
  1      -0.006747836660
  2       0.014762659400
  3       0.179538646720
  4       0.103872256040
  5       0.175151947029
  6       0.028152425976
  7       0.079658417793
  8       0.046765724572
  9       0.082331633729
 10      -0.107990501002
 11      -0.072371588851
 12       0.009954868998
 13      -0.018672683093
 14       0.103489582324
 15      -0.030895166920
 16       0.144607893410
 17      -0.031609063790
 18       0.041656174448
 19      -0.013838290775
 20       0.067657198637
 21       0.003409594408
 22      -0.009708426010
 23       0.239922310019
 24       0.036119946214
 25       0.132498015124
 26       0.001909091153
 27       0.094511382611
 28       0.008196444625
 29       0.061720018140
 30       0.009854809052
 31      -0.021760334679
 32      -0.229035694365
 33      -0.040508239753
 34      -0.047249794033
 35       0.007410040457
 36      -0.067475340407
 37       0.001961084729
 38      -0.014044752492
 39      -0.013459230870
 40       0.031136476782
 41       0.127428071184
 42       0.058029362674
 43       0.149164957689
 44       0.022639779138
 45       0.038211531871
 46       0.012793470768
 47       0.058901549153
 48      -0.134135961741
 49      -0.092907850689
 50       0.141430904775
 51       0.091508545071
 52      -0.004589277682
 53       0.001342539007
 54       0.060081146176
 55       0.049450606420
 56       0.130959299461
 57       0.091887948927
 58       0.033660593136
 59       0.030943974332
 60      -0.086788293144
 61      -0.068737415738
 Sym=     1a
 Ene= -5.85110953582935E-01
 Spin= Alpha
 Occup= 2.000000
  1      -0.007259974044
  2       0.019445659865
  3       0.046906318977
  4      -0.284240144559
  5       0.159034917690
  6      -0.016651134873
  7       0.012790052328
  8      -0.101417165154
  9       0.056249380428
 10       0.017864588631
 11       0.010261527750
 12      -0.005897905001
 13       0.006086642388
 14       0.119662925335
 15       0.178976806601
 16      -0.059457930356
 17       0.036315248871
 18       0.051123003415
 19       0.075143019361
 20      -0.022020326146
 21       0.024887634576
 22      -0.050925129930
 23      -0.107644747684
 24      -0.142407459462
 25       0.121805855987
 26      -0.085715385327
 27      -0.040284570555
 28      -0.056401238866
 29       0.055204374531
 30      -0.009172672484
 31       0.017827307962
 32       0.103356296494
 33      -0.043917954244
 34       0.167944540353
 35       0.018492072131
 36       0.037770586731
 37      -0.017476418057
 38       0.072786684320
 39      -0.008205162273
 40       0.019382323901
 41      -0.038561462736
 42       0.308416991287
 43      -0.120620697324
 44      -0.003281112549
 45      -0.005958415096
 46       0.111267987247
 47      -0.031925162550
 48      -0.115712469027
 49      -0.091056178067
 50      -0.091317936887
 51      -0.067025117619
 52       0.071245947733
 53       0.053480663273
 54       0.073806392983
 55       0.054672639181
 56       0.024401933622
 57       0.020609298208
 58       0.073670417522
 59       0.051570494728
 60      -0.097270439575
 61      -0.072788769807
 Sym=     1a
 Ene= -5.67050478878147E-01
 Spin= Alpha
 Occup= 2.000000
  1      -0.005411104778
  2       0.011131674582
  3       0.030773575383
  4      -0.020338404261
  5       0.010416845438
  6       0.014740917361
  7       0.016095220940
  8      -0.003674773367
  9      -0.003302378579
 10       0.130778327905
 11       0.101460226169
 12      -0.000457002533
 13       0.001819719544
 14       0.196213339870
 15      -0.257172184866
 16      -0.262890305745
 17       0.000481590506
 18       0.096704365554
 19      -0.131541126528
 20      -0.133763723807
 21       0.005522824049
 22      -0.009017378581
 23       0.059256706554
 24      -0.099207853653
 25      -0.064734667811
 26      -0.031609530558
 27       0.038110826986
 28      -0.046488737262
 29      -0.029775754070
 30      -0.003018541534
 31       0.003730697926
 32       0.014278819694
 33      -0.047317639205
 34      -0.050275454104
 35       0.024112345898
 36       0.022836399531
 37      -0.021734135861
 38      -0.033940607767
 39       0.000513785459
 40      -0.001205365345
 41       0.050150631588
 42       0.035910092098
 43      -0.007171501598
 44      -0.002267615354
 45       0.023726994117
 46       0.015736249790
 47      -0.004068221200
 48      -0.013919017115
 49      -0.013038546476
 50       0.000004004481
 51      -0.010087651812
 52      -0.254968686791
 53      -0.198702176493
 54       0.139114139335
 55       0.108771403225
 56       0.012724508794
 57       0.011078511040
 58       0.005037938648
 59       0.007477802047
 60      -0.037886937822
 61      -0.028579332115
 Sym=     1a
 Ene= -5.39487402926225E-01
 Spin= Alpha
 Occup= 2.000000
  1      -0.009849479917
  2       0.022041948388
  3      -0.148882108190
  4      -0.077008429324
  5      -0.106226553785
  6       0.006994975043
  7      -0.093625220279
  8      -0.036227302213
  9      -0.063822229936
 10      -0.188501520378
 11      -0.147644469201
 12      -0.005341091812
 13       0.013509723244
 14       0.222326247061
 15      -0.057297368388
 16       0.220654150129
 17      -0.004404027701
 18       0.134283673338
 19      -0.026000088352
 20       0.119639347393
 21       0.007767831182
 22      -0.015155579620
 23      -0.068807002356
 24       0.088099175888
 25      -0.098761266387
 26      -0.017351345181
 27      -0.042525144804
 28       0.056809422527
 29      -0.063814349965
 30      -0.035508018906
 31       0.079494681900
 32      -0.009984786913
 33       0.102649814418
 34      -0.074200196847
 35       0.072907435229
 36      -0.011824979662
 37       0.023710796504
 38      -0.013212490302
 39       0.007921289684
 40      -0.014362022835
 41       0.106947218942
 42       0.085581010121
 43       0.076994173080
 44      -0.016981384892
 45       0.069877242608
 46       0.063314695280
 47       0.047064962942
 48       0.128104505254
 49       0.092137724447
 50      -0.120202622618
 51      -0.091734013634
 52      -0.010805088243
 53      -0.011402112970
 54       0.169184046850
 55       0.131097550668
 56      -0.111096241931
 57      -0.076722519833
 58      -0.036012478714
 59      -0.045491935860
 60      -0.116811455266
 61      -0.079633166122
 Sym=     1a
 Ene= -5.06814132124423E-01
 Spin= Alpha
 Occup= 2.000000
  1      -0.011958217509
  2       0.027169123249