
                                 *****************
                                 * O   R   C   A *
                                 *****************

                                            #,                                       
                                            ###                                      
                                            ####                                     
                                            #####                                    
                                            ######                                   
                                           ########,                                 
                                     ,,################,,,,,                         
                               ,,#################################,,                 
                          ,,##########################################,,             
                       ,#########################################, ''#####,          
                    ,#############################################,,   '####,        
                  ,##################################################,,,,####,       
                ,###########''''           ''''###############################       
              ,#####''   ,,,,##########,,,,          '''####'''          '####       
            ,##' ,,,,###########################,,,                        '##       
           ' ,,###''''                  '''############,,,                           
         ,,##''                                '''############,,,,        ,,,,,,###''
      ,#''                                            '''#######################'''  
     '                                                          ''''####''''         
             ,#######,   #######,   ,#######,      ##                                
            ,#'     '#,  ##    ##  ,#'     '#,    #''#        ,####,    ,#,          
            ##       ##  ##   ,#'  ##            #'  '#       #'       ,# #          
            ##       ##  #######   ##           ,######,      #####,      #          
            '#,     ,#'  ##    ##  '#,     ,#' ,#      #,     #,   #      #          
             '#######'   ##     ##  '#######'  #'      '#     '####' #    #          



                #########################################################
                #                        -***-                          #
                #          Department of theory and spectroscopy        #
                #                                                       #
                #                      Frank Neese                      #
                #                                                       #
                #     Directorship, Architecture, Infrastructure        #
                #                    SHARK, DRIVERS                     #
                #        Core code/Algorithms in most modules           #
                #                                                       #
                #        Max Planck Institute fuer Kohlenforschung      #
                #                Kaiser Wilhelm Platz 1                 #
                #                 D-45470 Muelheim/Ruhr                 #
                #                      Germany                          #
                #                                                       #
                #                  All rights reserved                  #
                #                        -***-                          #
                #########################################################


                         Program Version 6.1.0  -  RELEASE   -
                                (GIT: $679e74b$)
                          ($2025-06-10 18:02:51 +0200$)


 With contributions from (in alphabetic order):
[Max-Planck-Institut fuer Kohlenforschung]                               
  Daniel Aravena         : Magnetic Suceptibility                        
  Michael Atanasov       : Ab Initio Ligand Field Theory (pilot matlab implementation)
  Alexander A. Auer      : GIAO ZORA, VPT2 properties, NMR spectrum      
  Ute Becker             : All parallelization in ORCA, NUMFREQ, NUMCALC 
  Giovanni Bistoni       : ED, misc. LED, open-shell LED, HFLD           
  Dmytro Bykov           : pre 5.0 version of the SCF Hessian            
  Marcos Casanova-Páez   : Triplet and SCS-CIS(D). UHF-(DLPNO)-IP/EA/STEOM-CCSD. UHF-CVS-IP/STEOM-CCSD   
  Vijay G. Chilkuri      : MRCI spin determinant printing, contributions to CSF-ICE 
  Pauline Colinet        : FMM embedding                                 
  Dipayan Datta          : RHF DLPNO-CCSD density                        
  Achintya Kumar Dutta   : EOM-CC, STEOM-CC                              
  Nicolas Foglia         : Exact transition moments, OPA infrastructure, MCD improvements    
  Dmitry Ganyushin       : Spin-Orbit,Spin-Spin,Magnetic field MRCI      
  Miquel Garcia-Rates    : C-PCM and meta-GGA Hessian, CCSD/C-PCM, Gaussian charge scheme 
  Tiago L. C. Gouveia    : GS-ROHF, GS-ROCIS                             
  Yang Guo               : DLPNO-NEVPT2, F12-NEVPT2, CIM, IAO-localization        
  Andreas Hansen         : Spin unrestricted coupled pair/coupled cluster methods 
  Ingolf Harden          : AUTO-CI MPn and infrastructure                
  Benjamin Helmich-Paris : MC-RPA, TRAH-(SCF,CASSCF), AVAS, COSX integrals, SCF dyn. polar., MC-PDFT, srDFT 
  Lee Huntington         : MR-EOM, pCC                                   
  Robert Izsak           : Overlap fitted RIJCOSX, COSX-SCS-MP3, EOM     
  Riya Kayal             : Wick's Theorem for AUTO-CI, AUTO-CI UHF-CCSDT 
  Emily Kempfer          : AUTO-CI RHF CISDT and CCSDT, approximate NEVPT4
  Christian Kollmar      : KDIIS, OOCD, Brueckner-CCSD(T), CCSD density, CASPT2, CASPT2-K, improved NEVPT2 
  Axel Koslowski         : Symmetry handling                             
  Simone Kossmann        : meta-GGA functionals, TD-DFT gradient, OOMP2, (MP2 Hessian; deprecated post 5.0) 
  Lucas Lang             : DCDCAS, Hyperfine gauge corrections, ICE-SOC+SSC
  Marvin Lechner         : AUTO-CI (C++ implementation), FIC-MRCC        
  Spencer Leger          : CASSCF response                               
  Dagmar Lenk            : GEPOL surface, SMD, ORCA-2-JSON               
  Dimitrios Liakos       : Extrapolation schemes; Compound Job, Property file
  Dimitrios Manganas     : Further ROCIS development; embedding schemes. LFT, Crystal Embedding 
  Dimitrios Pantazis     : SARC Basis sets                               
  Anastasios Papadopoulos: AUTO-CI, single reference methods and gradients 
  Taras Petrenko         : pre 6.0 DFT Hessian and TD-DFT gradient,  ECA, NRVS 
  Petra Pikulova         : Analytic Raman intensities                    
  Peter Pinski           : DLPNO-MP2, DLPNO-MP2 Gradient                 
  Shashank Vittal Rao    : ES-AILFT, MagRelax                            
  Christoph Reimann      : Effective Core Potentials                     
  Marius Retegan         : Local ZFS, SOC                                
  Christoph Riplinger    : Optimizer, TS searches, QM/MM, DLPNO-CCSD(T), (RO)-DLPNO pert. Triples 
  Michael Roemelt        : Original ROCIS implementation, recursive CI coupling coefficients
  Masaaki Saitow         : Open-shell DLPNO-CCSD energy and density      
  Barbara Sandhoefer     : DKH picture change effects                    
  Yorick L. A. Schmerwitz: GMF and freeze-and-release deltaSCF, NEB S-IDPP initial path                    
  Kantharuban Sivalingam : CASSCF convergence/infrastructure, NEVPT2, NEVPT3, NEVPT4(SD), FIC-MRCI and CEPA variants
  Bernardo de Souza      : ESD, SOC TD-DFT                               
  Georgi L. Stoychev     : AutoAux, RI-MP2 NMR, DLPNO-MP2 response, X2C  
  Van Anh Tran           : RI-MP2 g-tensors                              
  Willem Van den Heuvel  : Paramagnetic NMR                              
  Zikuan Wang            : NOTCH, Electric field optimization            
  Frank Wennmohs         : Technical directorship and infrastructure     
  Hang Xu                : AUTO-CI-Response properties                   
                                                                         
[FACCTs GmbH]                                                            
  Markus Bursch, Nicolas Foglia, Miquel Garcia-Rates, Ingolf Harden, Hagen Neugebauer, Anastasios Papadopoulos, 
  Christoph Riplinger, Bernardo de Souza, Georgi L. Stoychev                                                    
                                                                 
  APM, various basis sets, CI-OPT, improved COSX, DLPNO-Multilevel,           
  DOCKER, DRACO, updates on ESD, Fragmentator, GOAT, IRC, LR-CPCM, L-BFGS, MBIS, meta-GGA TD-DFT gradient, ML-optimized integration grids, 
  MM, NACMEs, nearIR, NEB, NEB-TS, NL-DFT gradient (VV10), 2- and 3-layer-ONIOM, interface openCOSMO-RS, QMMM,   
  Crystal-QMMM, RESP, rigid body optimization, SF, symmetry and pop. for TD-DFT, various functionals, SOLVATOR                                   
                                                                         
[Other institutions]                                                     
  V. Asgeirsson          : NEB                                           
  Christoph Bannwarth    : sTDA-DFT, sTD-DFT, PBEh-3c, B97-3c, D3        
  Giovanni Bistoni       : ETS/NOCV, ADLD/ADEX, COVALED                  
  Martin Brehm           : Molecular dynamics                            
  Ronald Cardenas        : ETS/NOCV                                      
  Martina Colucci        : COVALED                                       
  Sebastian Ehlert       : rSCAN, r2SCAN, r2SCAN-3c, D4, dhf basis sets  
  Marvin Friede          : D4 for Fr, Ra, Ac-Lr                          
  Lars Goerigk           : TD-DFT with DH, B97 family of functionals     
  Stefan Grimme          : VdW corrections, initial TS optimization, DFT functionals, gCP, sTDA/sTD-DF 
  Waldemar Hujo          : DFT-NL                                        
  H. Jonsson             : NEB                                           
  Holger Kruse           : gCP                                           
  Marcel Mueller         : wB97X-3c, vDZP basis set                      
  Hagen Neugebauer       : wr2SCAN, Native XTB                           
  Gianluca Regni         : ADLD/ADEX                                     
  Tobias Risthaus        : pre 6.0 range-separated hybrid DFT and stability analysis
  Lukas Wittmann         : regularized MP2, r2SCAN double-hybrids, wr2SCAN        
                                                                         
We gratefully acknowledge several colleagues who have allowed us to      
interface, adapt or use parts of their codes:                            
  Ed Valeev, F. Pavosevic, A. Kumar             : LibInt (2-el integral package), F12 methods 
  Garnet Chan, S. Sharma, J. Yang, R. Olivares  : DMRG                   
  Ulf Ekstrom                                   : XCFun DFT Library      
  Mihaly Kallay                                 : mrcc  (arbitrary order and MRCC methods)
  Frank Weinhold                                : gennbo (NPA and NBO analysis)           
  Simon Mueller                                 : openCOSMO-RS                            
  Christopher J. Cramer and Donald G. Truhlar   : smd solvation model                     
  S Lehtola, MJT Oliveira, MAL Marques          : LibXC Library                           
  Liviu Ungur et al                             : ANISO software                          


 Your calculation uses the libint2 library for the computation of 2-el integrals
 For citations please refer to: http://libint.valeyev.net

 Your ORCA version has been built with support for libXC version: 7.0.0
 For citations please refer to: https://libxc.gitlab.io

 This ORCA versions uses:
   CBLAS   interface :  Fast vector & matrix operations
   LAPACKE interface :  Fast linear algebra routines
   SCALAPACK package :  Parallel linear algebra routines
   Shared memory     :  Shared parallel matrices
   BLAS/LAPACK       :  OpenBLAS 0.3.29  USE64BITINT DYNAMIC_ARCH NO_AFFINITY Zen SINGLE_THREADED
        Core in use  :  Zen
   Copyright (c) 2011-2014, The OpenBLAS Project


  ***********************************
  * Starting time: Sun Apr  5 13:00:02 2026
  * Host name:     QC1
  * Process ID:    4105
  * Working dir.:  /home/user/QC/h-shift/split_2
  ***********************************

NOTE: MaxCore=1200 MB was set to SCF,MP2,MDCI,CIPSI,MRCI,RASCI and CIS
      => If you want to overwrite this, your respective input block should be placed after the MaxCore statement
================================================================================

----- Orbital basis set information -----
Your calculation utilizes the basis: 6-31G
   H-He, Li-Ne : W. J. Hehre, R. Ditchfield and J.A. Pople, J. Chem. Phys. 56, 2257 (1972).
                 Note: He and Ne are unpublished basis sets taken from the Gaussian program.
                 Note: Li and B from J. D. Dill and J. A. Pople, J. Chem. Phys. 62, 2921 (1975).
   Na - Ar     : M. M. Francl, W. J. Pietro, W. J. Hehre, J. S. Binkley, M. S. Gordon, 
                 D. J. DeFrees and J. A. Pople, J. Chem. Phys. 77, 3654 (1982).
   K - Zn      : V. A. Rassolov, J. A. Pople, M. A. Ratner, and T. L. Windus, J. Chem. Phys. 109, 1223 (1998).

================================================================================
                                        WARNINGS
                       Please study these warnings very carefully!
================================================================================


================================================================================
                                       INPUT FILE
================================================================================
NAME = h-shift_013.inp
|  1> ! HF 6-31G
|  2> %maxcore 1200
|  3> %pal nprocs 8 end
|  4> * xyz 0 1
|  5> C   -0.00476600   0.01068500  -0.17229200
|  6> H    1.01679700   0.01642700  -0.53155900
|  7> C    2.57904100   0.00822800   1.52999700
|  8> C    2.05213300  -1.18451000   1.79225600
|  9> C    0.65087000  -1.60799700   1.64752000
| 10> C   -0.23607000  -1.13041900   0.77561300
| 11> H   -0.66823100  -0.03323300  -1.02516900
| 12> H   -0.17362100   0.96243300   0.32471500
| 13> H    1.99260200   0.85929700   1.25172200
| 14> H    3.63810100   0.16892300   1.58943400
| 15> H    2.71702000  -1.96411500   2.12207500
| 16> H    0.35462500  -2.43642700   2.26824800
| 17> H   -1.20272800  -1.60133800   0.72782900
| 18> *
| 19> 
| 20>                          ****END OF INPUT****
================================================================================

                       ****************************
                       * Single Point Calculation *
                       ****************************

---------------------------------
CARTESIAN COORDINATES (ANGSTROEM)
---------------------------------
  C     -0.004766    0.010685   -0.172292
  H      1.016797    0.016427   -0.531559
  C      2.579041    0.008228    1.529997
  C      2.052133   -1.184510    1.792256
  C      0.650870   -1.607997    1.647520
  C     -0.236070   -1.130419    0.775613
  H     -0.668231   -0.033233   -1.025169
  H     -0.173621    0.962433    0.324715
  H      1.992602    0.859297    1.251722
  H      3.638101    0.168923    1.589434
  H      2.717020   -1.964115    2.122075
  H      0.354625   -2.436427    2.268248
  H     -1.202728   -1.601338    0.727829

----------------------------
CARTESIAN COORDINATES (A.U.)
----------------------------
  NO LB      ZA    FRAG     MASS         X           Y           Z
   0 C     6.0000    0    12.011   -0.009006    0.020192   -0.325585
   1 H     1.0000    0     1.008    1.921468    0.031043   -1.004501
   2 C     6.0000    0    12.011    4.873681    0.015549    2.891275
   3 C     6.0000    0    12.011    3.877969   -2.238400    3.386873
   4 C     6.0000    0    12.011    1.229966   -3.038674    3.113362
   5 C     6.0000    0    12.011   -0.446108   -2.136182    1.465696
   6 H     1.0000    0     1.008   -1.262774   -0.062801   -1.937289
   7 H     1.0000    0     1.008   -0.328096    1.818735    0.613622
   8 H     1.0000    0     1.008    3.765472    1.623836    2.365412
   9 H     1.0000    0     1.008    6.875015    0.319218    3.003595
  10 H     1.0000    0     1.008    5.134424   -3.711639    4.010141
  11 H     1.0000    0     1.008    0.670144   -4.604180    4.286368
  12 H     1.0000    0     1.008   -2.272827   -3.026090    1.375397

--------------------------------
INTERNAL COORDINATES (ANGSTROEM)
--------------------------------
 C      0   0   0     0.000000000000     0.00000000     0.00000000
 H      1   0   0     1.082911220194     0.00000000     0.00000000
 C      2   1   0     2.586636170835   107.77749234     0.00000000
 C      3   2   1     1.330051036686    85.45338009    63.76089029
 C      4   3   2     1.470995494226   128.03517550   320.28907161
 C      5   4   3     1.332278171529   126.53876231    28.97779835
 H      1   2   3     1.081440601271   108.50083104   182.64079697
 H      1   2   3     1.086900282721   107.07448462    66.87592908
 H      3   2   1     1.070357939713    57.27307925   289.03843098
 H      3   2   1     1.072829773820   129.78408930   191.01688372
 H      4   3   2     1.076401064453   117.72389495   138.06679047
 H      5   4   3     1.076736093437   115.26894725   204.21161432
 H      6   5   4     1.076325092238   118.04185723   174.58801205

---------------------------
INTERNAL COORDINATES (A.U.)
---------------------------
 C      0   0   0     0.000000000000     0.00000000     0.00000000
 H      1   0   0     2.046405633517     0.00000000     0.00000000
 C      2   1   0     4.888033970973   107.77749234     0.00000000
 C      3   2   1     2.513432203474    85.45338009    63.76089029
 C      4   3   2     2.779778628320   128.03517550   320.28907161
 C      5   4   3     2.517640878391   126.53876231    28.97779835
 H      1   2   3     2.043626566506   108.50083104   182.64079697
 H      1   2   3     2.053943869223   107.07448462    66.87592908
 H      3   2   1     2.022683371326    57.27307925   289.03843098
 H      3   2   1     2.027354460836   129.78408930   191.01688372
 H      4   3   2     2.034103222077   117.72389495   138.06679047
 H      5   4   3     2.034736335103   115.26894725   204.21161432
 H      6   5   4     2.033959655397   118.04185723   174.58801205

---------------------
BASIS SET INFORMATION
---------------------
There are 2 groups of distinct atoms

 Group   1 Type C   : 10s4p contracted to 3s2p pattern {631/31}
 Group   2 Type H   : 4s contracted to 2s pattern {31}

Atom   0C    basis set group =>   1
Atom   1H    basis set group =>   2
Atom   2C    basis set group =>   1
Atom   3C    basis set group =>   1
Atom   4C    basis set group =>   1
Atom   5C    basis set group =>   1
Atom   6H    basis set group =>   2
Atom   7H    basis set group =>   2
Atom   8H    basis set group =>   2
Atom   9H    basis set group =>   2
Atom  10H    basis set group =>   2
Atom  11H    basis set group =>   2
Atom  12H    basis set group =>   2


           ************************************************************
           *        Program running with 8 parallel MPI-processes     *
           *              working on a common directory               *
           ************************************************************
------------------------------------------------------------------------------
                             ORCA STARTUP CALCULATIONS
------------------------------------------------------------------------------
------------------------------------------------------------------------------
                   ___                                                        
                  /   \      - P O W E R E D   B Y -                         
                 /     \                                                     
                 |  |  |   _    _      __       _____    __    __             
                 |  |  |  | |  | |    /  \     |  _  \  |  |  /  |          
                  \  \/   | |  | |   /    \    | | | |  |  | /  /          
                 / \  \   | |__| |  /  /\  \   | |_| |  |  |/  /          
                |  |  |   |  __  | /  /__\  \  |    /   |      \           
                |  |  |   | |  | | |   __   |  |    \   |  |\   \          
                \     /   | |  | | |  |  |  |  | |\  \  |  | \   \       
                 \___/    |_|  |_| |__|  |__|  |_| \__\ |__|  \__/        
                                                                              
                      - O R C A' S   B I G   F R I E N D -                    
                                      &                                       
                       - I N T E G R A L  F E E D E R -                       
                                                                              
 v1 FN, 2020, v2 2021, v3 2022-2024                                           
------------------------------------------------------------------------------


----------------------
SHARK INTEGRAL PACKAGE
----------------------

Number of atoms                             ...     13
Number of basis functions                   ...     61
Number of shells                            ...     41
Maximum angular momentum                    ...      1
Integral batch strategy                     ... SHARK/LIBINT Hybrid
RI-J (if used) integral strategy            ... SPLIT-RIJ (Revised 2003 algorithm where possible)
Printlevel                                  ...      1
Contraction scheme used                     ... SEGMENTED contraction
Prescreening option                         ... SCHWARTZ
   Thresh                                   ... 1.000e-10
   Tcut                                     ... 1.000e-11
   Tpresel                                  ... 1.000e-11 
Coulomb Range Separation                    ... NOT USED
Exchange Range Separation                   ... NOT USED
Multipole approximations                    ... NOT USED
Finite Nucleus Model                        ... NOT USED
CABS basis                                  ... NOT available
Auxiliary Coulomb fitting basis             ... NOT available
Auxiliary J/K fitting basis                 ... NOT available
Auxiliary Correlation fitting basis         ... NOT available
Auxiliary 'external' fitting basis          ... NOT available

Checking pre-screening integrals            ... done (  0.0 sec) Dimension = 41
   => SHARK Basis and OBASIS are compatible. Storing Pre-screening
Shell pair information
Shell pair cut-off parameter TPreSel        ...   1.0e-11
Total number of shell pairs                 ...       861
Shell pairs after pre-screening             ...       846
Total number of primitive shell pairs       ...      5382
Primitive shell pairs kept                  ...      3729
          la=0 lb=0:    481 shell pairs
          la=1 lb=0:    310 shell pairs
          la=1 lb=1:     55 shell pairs

Checking whether 4 symmetric matrices of dimension 61 fit in memory
:Max Core in MB      =   1200.00
 MB in use           =      2.04
 MB left             =   1197.96
 MB needed           =      0.06
 Data fit in memory  = YES
Calculating Nuclear repulsion               ... done (  0.0 sec) ENN=    160.532964103358 Eh

Diagonalization of the overlap matrix:
Smallest eigenvalue                        ... 3.361e-03
Time for diagonalization                   ...    0.001 sec
Threshold for overlap eigenvalues          ... 1.000e-07
Number of eigenvalues below threshold      ... 0
Time for construction of square roots      ...    0.000 sec
Total time needed                          ...    0.001 sec

-------------------
DFT GRID GENERATION
-------------------

General Integration Accuracy     IntAcc      ... 4.388
Radial Grid Type                 RadialGrid  ... OptM3 with GC (2021)
Angular Grid (max. ang.)         AngularGrid ... 4 (Lebedev-302)
Angular grid pruning method      GridPruning ... 4 (adaptive)
Weight generation scheme         WeightScheme... mBecke (2022)
Basis function cutoff            BFCut       ... 1.0000e-10
Integration weight cutoff        WCut        ... 1.0000e-14
Partially contracted basis set               ... off
Rotationally invariant grid construction     ... off
Angular grids for H and He will be reduced by one unit

Total number of grid points                  ...    56055
Total number of batches                      ...      883
Average number of points per batch           ...       63
Average number of grid points per atom       ...     4312
Grids setup in   0.2 sec
Initializing property integral containers    ... done (  0.0 sec)

SHARK setup successfully completed in   0.3 seconds

Maximum memory used throughout the entire STARTUP-calculation: 11.8 MB


           ************************************************************
           *        Program running with 8 parallel MPI-processes     *
           *              working on a common directory               *
           ************************************************************
-------------------------------------------------------------------------------
                                 ORCA GUESS
                   Start orbitals & Density for SCF / CASSCF
-------------------------------------------------------------------------------

------------
SCF SETTINGS
------------
Hamiltonian:
 Ab initio Hamiltonian  Method          .... Hartree-Fock(GTOs)


General Settings:
 Integral files         IntName         .... h-shift_013
 Hartree-Fock type      HFTyp           .... RHF
 Total Charge           Charge          ....    0
 Multiplicity           Mult            ....    1
 Number of Electrons    NEL             ....   38
 Basis Dimension        Dim             ....   61
 Nuclear Repulsion      ENuc            ....    160.5329641034 Eh

Convergence Acceleration:
 AO-DIIS                CNVDIIS         .... on
   Start iteration      DIISMaxIt       ....    12
   Startup error        DIISStart       ....  0.200000
   # of expansion vecs  DIISMaxEq       ....     5
   Bias factor          DIISBfac        ....   1.050
   Max. coefficient     DIISMaxC        ....  10.000
 MO-DIIS                CNVKDIIS        .... off
 Trust-Rad. Augm. Hess. CNVTRAH         .... auto
   Auto Start mean grad. ratio tolernc. ....  1.125000
   Auto Start start iteration           ....    50
   Auto Start num. interpolation iter.  ....    10
   Max. Number of Micro iterations      ....    24
   Max. Number of Macro iterations      .... Maxiter - #DIIS iter
   Number of Davidson start vectors     ....     2
   Converg. threshold    (grad. norm)   ....   5.000e-05
   Grad. Scal. Fac. for Micro threshold ....   0.100
   Minimum threshold for Micro iter.    ....   1.000e-02
   NR start threshold (gradient norm)   ....   1.000e-04
   Initial trust radius                 ....   0.400
   Minimum AH scaling param. (alpha)    ....   1.000
   Maximum AH scaling param. (alpha)    .... 1000.000
   Quad. conv. algorithm                .... NR
   White noise on init. David. guess    .... on
   Maximum white noise                  ....   0.010
   Pseudo random numbers                .... off
   Inactive MOs                         .... canonical
   Orbital update algorithm             .... Taylor
   Preconditioner                       .... Diag
   Full preconditioner red. dimension   ....   250
 SOSCF                 CNVSOSCF           .... on
   Start iteration     SOSCFMaxIt         ....   150
   Startup grad/error  SOSCFStart         ....  0.003300
   Hessian update      SOSCFHessUp        .... L-BFGS
   Autom. constraints  SOSCFAutoConstrain .... off
 Level Shifting         CNVShift        .... on
   Level shift para.    LevelShift      ....    0.2500
   Turn off err/grad.   ShiftErr        ....    0.0010
 Zerner damping         CNVZerner       .... off
 Static damping         CNVDamp         .... on
   Fraction old density DampFac         ....    0.7000
   Max. Damping (<1)    DampMax         ....    0.9800
   Min. Damping (>=0)   DampMin         ....    0.0000
   Turn off err/grad.   DampErr         ....    0.1000

SCF Procedure:
 Maximum # iterations   MaxIter         ....   125
 SCF integral mode      SCFMode         .... Direct
   Integral package                     .... SHARK and LIBINT hybrid scheme
 Reset frequency        DirectResetFreq ....    20
 Integral Threshold     Thresh          ....  1.000e-10 Eh
 Primitive CutOff       TCut            ....  1.000e-11 Eh

Convergence Tolerance:
 Convergence Check Mode ConvCheckMode   .... Total+1el-Energy
 Convergence forced     ConvForced      .... 0
 Energy Change          TolE            ....  1.000e-06 Eh
 1-El. energy change                    ....  1.000e-03 Eh
 Orbital Gradient       TolG            ....  5.000e-05
 Orbital Rotation angle TolX            ....  5.000e-05
 DIIS Error             TolErr          ....  1.000e-06

------------------------------
INITIAL GUESS: MODEL POTENTIAL
------------------------------
Loading Hartree-Fock densities                     ... done
Calculating cut-offs                               ... done
Initializing the effective Hamiltonian             ... done
Setting up the integral package (SHARK)            ... done
Starting the Coulomb interaction                   ... done (   0.0 sec)
Making the grid                                    ... done (   0.1 sec)
Mapping shells                                     ... done
Starting the XC term evaluation                    ... done (   0.0 sec)
Transforming the Hamiltonian                       ... done (   0.0 sec)
Diagonalizing the Hamiltonian                      ... done (   0.0 sec)
Back transforming the eigenvectors                 ... done (   0.0 sec)
Now organizing SCF variables                       ... done
                      ------------------
                      INITIAL GUESS DONE (   0.1 sec)
                      ------------------
             **** ENERGY FILE WAS UPDATED (h-shift_013.en.tmp) ****
Finished Guess after   0.3 sec
Maximum memory used throughout the entire GUESS-calculation: 4.2 MB


           ************************************************************
           *        Program running with 8 parallel MPI-processes     *
           *              working on a common directory               *
           ************************************************************

-------------------------------------------------------------------------------------------
                                      ORCA LEAN-SCF
                              memory conserving SCF solver
-------------------------------------------------------------------------------------------

----------------------------------------D-I-I-S--------------------------------------------
Iteration    Energy (Eh)           Delta-E    RMSDP     MaxDP     DIISErr   Damp  Time(sec)
-------------------------------------------------------------------------------------------
               ***  Starting incremental Fock matrix formation  ***
    1    -193.6466402302351355     0.00e+00  1.57e-02  5.36e-02  1.90e-01  0.700   0.0
    2    -193.7276540014672435    -8.10e-02  1.25e-02  4.06e-02  1.24e-01  0.700   0.0
                               ***Turning on AO-DIIS***
    3    -193.7777543533823916    -5.01e-02  7.71e-03  2.04e-02  7.41e-02  0.700   0.0
    4    -193.8094161216526174    -3.17e-02  1.83e-02  4.34e-02  5.01e-02  0.000   0.0
                              *** Initializing SOSCF ***
---------------------------------------S-O-S-C-F--------------------------------------
Iteration    Energy (Eh)           Delta-E    RMSDP     MaxDP     MaxGrad    Time(sec)
--------------------------------------------------------------------------------------
    5    -193.8779102236245819    -6.85e-02  1.69e-03  2.82e-03  2.79e-03     0.0
               *** Restarting incremental Fock matrix formation ***
    6    -193.8780308224017688    -1.21e-04  8.65e-04  1.82e-03  1.35e-03     0.0
    7    -193.8780660124055260    -3.52e-05  5.36e-04  1.17e-03  5.46e-04     0.0
    8    -193.8780727184011710    -6.71e-06  7.02e-05  1.82e-04  1.33e-04     0.0
    9    -193.8780729309468427    -2.13e-07  3.17e-05  7.78e-05  3.42e-05     0.0
                 **** Energy Check signals convergence ****

               *****************************************************
               *                     SUCCESS                       *
               *           SCF CONVERGED AFTER   9 CYCLES          *
               *****************************************************

             **** ENERGY FILE WAS UPDATED (h-shift_013.en.tmp) ****

----------------
TOTAL SCF ENERGY
----------------

Total Energy       :       -193.87807298677578 Eh           -5275.69058 eV

Components:
Nuclear Repulsion  :        160.53296410335767 Eh            4368.32403 eV
Electronic Energy  :       -354.41103709013345 Eh           -9644.01461 eV
One Electron Energy:       -578.02687965373661 Eh          -15728.91104 eV
Two Electron Energy:        223.61584256360317 Eh            6084.89643 eV

Virial components:
Potential Energy   :       -388.04045688087916 Eh          -10559.11765 eV
Kinetic Energy     :        194.16238389410339 Eh            5283.42707 eV
Virial Ratio       :          1.99853570551811

---------------
SCF CONVERGENCE
---------------

  Last Energy change         ...    2.1255e-07  Tolerance :   1.0000e-06
  Last MAX-Density change    ...    7.7829e-05  Tolerance :   1.0000e-05
  Last RMS-Density change    ...    3.1696e-05  Tolerance :   1.0000e-06
  Last DIIS Error            ...    2.7912e-03  Tolerance :   1.0000e-06
  Last Orbital Gradient      ...    3.4210e-05  Tolerance :   5.0000e-05
  Last Orbital Rotation      ...    3.3466e-05  Tolerance :   5.0000e-05


----------------
ORBITAL ENERGIES
----------------

  NO   OCC          E(Eh)            E(eV) 
   0   2.0000     -11.236048      -305.7484 
   1   2.0000     -11.235407      -305.7310 
   2   2.0000     -11.227430      -305.5139 
   3   2.0000     -11.221656      -305.3568 
   4   2.0000     -11.215588      -305.1917 
   5   2.0000      -1.099783       -29.9266 
   6   2.0000      -1.021577       -27.7985 
   7   2.0000      -0.941065       -25.6077 
   8   2.0000      -0.814282       -22.1577 
   9   2.0000      -0.716841       -19.5062 
  10   2.0000      -0.666938       -18.1483 
  11   2.0000      -0.604053       -16.4371 
  12   2.0000      -0.584872       -15.9152 
  13   2.0000      -0.567377       -15.4391 
  14   2.0000      -0.540900       -14.7187 
  15   2.0000      -0.506860       -13.7924 
  16   2.0000      -0.468798       -12.7566 
  17   2.0000      -0.412514       -11.2251 
  18   2.0000      -0.315608        -8.5881 
  19   0.0000       0.132536         3.6065 
  20   0.0000       0.233379         6.3506 
  21   0.0000       0.253564         6.8998 
  22   0.0000       0.264530         7.1982 
  23   0.0000       0.291756         7.9391 
  24   0.0000       0.319851         8.7036 
  25   0.0000       0.337392         9.1809 
  26   0.0000       0.347095         9.4449 
  27   0.0000       0.358389         9.7523 
  28   0.0000       0.367605        10.0030 
  29   0.0000       0.428395        11.6572 
*Only the first 10 virtual orbitals were printed.

                    ********************************
                    * MULLIKEN POPULATION ANALYSIS *
                    ********************************

-----------------------
MULLIKEN ATOMIC CHARGES
-----------------------
   0 C :   -0.508228
   1 H :    0.181046
   2 C :   -0.361772
   3 C :   -0.151176
   4 C :   -0.196253
   5 C :   -0.148559
   6 H :    0.159511
   7 H :    0.170648
   8 H :    0.171491
   9 H :    0.161823
  10 H :    0.173428
  11 H :    0.174408
  12 H :    0.173631
Sum of atomic charges:    0.0000000

--------------------------------
MULLIKEN REDUCED ORBITAL CHARGES
--------------------------------
  0 C s       :     3.366450  s :     3.366450
      pz      :     1.032096  p :     3.141778
      px      :     1.111579
      py      :     0.998103

  1 H s       :     0.818954  s :     0.818954

  2 C s       :     3.266009  s :     3.266009
      pz      :     1.018754  p :     3.095763
      px      :     1.081661
      py      :     0.995349

  3 C s       :     3.194335  s :     3.194335
      pz      :     0.998619  p :     2.956841
      px      :     0.963465
      py      :     0.994757

  4 C s       :     3.192936  s :     3.192936
      pz      :     1.016723  p :     3.003317
      px      :     0.922047
      py      :     1.064546

  5 C s       :     3.210159  s :     3.210159
      pz      :     0.943025  p :     2.938399
      px      :     1.036996
      py      :     0.958378

  6 H s       :     0.840489  s :     0.840489

  7 H s       :     0.829352  s :     0.829352

  8 H s       :     0.828509  s :     0.828509

  9 H s       :     0.838177  s :     0.838177

 10 H s       :     0.826572  s :     0.826572

 11 H s       :     0.825592  s :     0.825592

 12 H s       :     0.826369  s :     0.826369



                     *******************************
                     * LOEWDIN POPULATION ANALYSIS *
                     *******************************

----------------------
LOEWDIN ATOMIC CHARGES
----------------------
   0 C :   -0.319010
   1 H :    0.124114
   2 C :   -0.245835
   3 C :   -0.114013
   4 C :   -0.149506
   5 C :   -0.107939
   6 H :    0.111224
   7 H :    0.117247
   8 H :    0.117444
   9 H :    0.116218
  10 H :    0.116549
  11 H :    0.117178
  12 H :    0.116329

-------------------------------
LOEWDIN REDUCED ORBITAL CHARGES
-------------------------------
  0 C s       :     2.976040  s :     2.976040
      pz      :     1.105324  p :     3.342970
      px      :     1.144356
      py      :     1.093291

  1 H s       :     0.875886  s :     0.875886

  2 C s       :     2.988272  s :     2.988272
      pz      :     1.035894  p :     3.257563
      px      :     1.114553
      py      :     1.107116

  3 C s       :     2.944988  s :     2.944988
      pz      :     0.987963  p :     3.169025
      px      :     1.071227
      py      :     1.109834

  4 C s       :     2.940427  s :     2.940427
      pz      :     1.074047  p :     3.209078
      px      :     1.064288
      py      :     1.070743

  5 C s       :     2.951387  s :     2.951387
      pz      :     1.032021  p :     3.156552
      px      :     1.092319
      py      :     1.032212

  6 H s       :     0.888776  s :     0.888776

  7 H s       :     0.882753  s :     0.882753

  8 H s       :     0.882556  s :     0.882556

  9 H s       :     0.883782  s :     0.883782

 10 H s       :     0.883451  s :     0.883451

 11 H s       :     0.882822  s :     0.882822

 12 H s       :     0.883671  s :     0.883671



                      *****************************
                      * MAYER POPULATION ANALYSIS *
                      *****************************

  NA   - Mulliken gross atomic population
  ZA   - Total nuclear charge
  QA   - Mulliken gross atomic charge
  VA   - Mayer's total valence
  BVA  - Mayer's bonded valence
  FA   - Mayer's free valence

  ATOM       NA         ZA         QA         VA         BVA        FA
  0 C      6.5082     6.0000    -0.5082     3.7719     3.7719     0.0000
  1 H      0.8190     1.0000     0.1810     0.9308     0.9308     0.0000
  2 C      6.3618     6.0000    -0.3618     3.8463     3.8463     0.0000
  3 C      6.1512     6.0000    -0.1512     3.8088     3.8088     0.0000
  4 C      6.1963     6.0000    -0.1963     3.8256     3.8256     0.0000
  5 C      6.1486     6.0000    -0.1486     3.7683     3.7683    -0.0000
  6 H      0.8405     1.0000     0.1595     0.9322     0.9322     0.0000
  7 H      0.8294     1.0000     0.1706     0.9223     0.9223    -0.0000
  8 H      0.8285     1.0000     0.1715     0.9392     0.9392    -0.0000
  9 H      0.8382     1.0000     0.1618     0.9439     0.9439    -0.0000
 10 H      0.8266     1.0000     0.1734     0.9372     0.9372    -0.0000
 11 H      0.8256     1.0000     0.1744     0.9388     0.9388     0.0000
 12 H      0.8264     1.0000     0.1736     0.9387     0.9387    -0.0000

  Mayer bond orders larger than 0.100000
B(  0-C ,  1-H ) :   0.9445 B(  0-C ,  5-C ) :   0.9578 B(  0-C ,  6-H ) :   0.9595 
B(  0-C ,  7-H ) :   0.9451 B(  2-C ,  3-C ) :   1.8814 B(  2-C ,  8-H ) :   0.9616 
B(  2-C ,  9-H ) :   0.9628 B(  3-C ,  4-C ) :   1.0448 B(  3-C , 10-H ) :   0.9577 
B(  4-C ,  5-C ) :   1.8842 B(  4-C , 11-H ) :   0.9567 B(  5-C , 12-H ) :   0.9580 


-------
TIMINGS
-------

Total SCF time: 0 days 0 hours 0 min 0 sec 

Total time                  ....       0.634 sec
Sum of individual times     ....       0.592 sec  ( 93.4%)

SCF preparation             ....       0.258 sec  ( 40.6%)
Fock matrix formation       ....       0.281 sec  ( 44.3%)
  Startup                   ....       0.001 sec  (  0.5% of F)
  Coulomb+Exchange Fock     ....       0.299 sec  (106.6% of F)
Diagonalization             ....       0.000 sec  (  0.0%)
Density matrix formation    ....       0.008 sec  (  1.2%)
Total Energy calculation    ....       0.005 sec  (  0.7%)
Population analysis         ....       0.005 sec  (  0.7%)
Orbital Transformation      ....       0.004 sec  (  0.7%)
Orbital Orthonormalization  ....       0.000 sec  (  0.0%)
DIIS solution               ....       0.019 sec  (  3.0%)
SOSCF solution              ....       0.013 sec  (  2.1%)
Finished LeanSCF after   0.6 sec

Maximum memory used throughout the entire LEANSCF-calculation: 6.4 MB

-------------------------   --------------------
FINAL SINGLE POINT ENERGY      -193.878072986776
-------------------------   --------------------



           ************************************************************
           *        Program running with 8 parallel MPI-processes     *
           *              working on a common directory               *
           ************************************************************

------------------------------------------------------------------------------
                              ORCA PROPERTY CALCULATIONS
------------------------------------------------------------------------------

GBWName                                 ... h-shift_013.gbw
Number of atoms                         ...     13
Number of basis functions               ...     61
Max core memory                         ...   1200 MB

Electric properties:
Dipole moment                           ... YES
Quadrupole moment                       ...  NO
Static polarizability (Dipole/Dipole)   ...  NO
Static polarizability (Dipole/Quad.)    ...  NO
Static polarizability (Quad./Quad.)     ...  NO
Static polarizability (Velocity)        ...  NO
Static hyperpolarizability              ...  NO

Atomic electric properties:
Dipole moment                           ...  NO
Quadrupole moment                       ...  NO
Static polarizability                   ...  NO

Choice of electric origin               ... Center of mass
Position of electric origin             ...     1.894356    -1.413469     2.045094

General magnetic properties:
Magnetizability                         ...  NO

EPR properties:
g-Tensor (aka g-matrix)                 ...  NO
Zero-Field splitting spin-orbit         ...  NO
Zero-field splitting spin-spin          ...  NO
Hyperfine couplings                     ...  NO (   0 nuclei)
Quadrupole couplings                    ...  NO (   0 nuclei)
Contact density                         ...  NO (   0 nuclei)

NMR properties:
Chemical shifts                         ...  NO (   0 nuclei)
Spin-rotation constants                 ...  NO (   0 nuclei)
Spin-spin couplings                     ...  NO (   0 nuclei,    0 pairs)

Choice of magnetic origin               ... GIAO
Position of magnetic origin             ...     0.000000     0.000000     0.000000

Properties with geometric perturbations:
SCF Hessian                             ...  NO
IR spectrum                             ...  NO
VCD spectrum                            ...  NO
X-ray spectroscopy properties:
SCF XES/XAS/RIXS spectra                ...  NO

SCF SOC stabilization energy            ...  NO
Diagonal Born-Oppenheimer correction    ...  NO

-------------
DIPOLE MOMENT
-------------

Method             : SCF
Type of density    : Electron Density
Multiplicity       :   1
Irrep              :   0
Energy             :  -193.8780729867757771 Eh
Basis              : AO
                                X                 Y                 Z
Electronic contribution:      0.265180168      -1.817527604       1.708637286
Nuclear contribution   :     -0.323705822       1.834859806      -1.811094833
                        -----------------------------------------
Total Dipole Moment    :     -0.058525653       0.017332202      -0.102457547
                        -----------------------------------------
Magnitude (a.u.)       :      0.119261084
Magnitude (Debye)      :      0.303137585



--------------------
Rotational spectrum 
--------------------
 
Rotational constants in cm-1:             0.287907             0.137734             0.096388 
Rotational constants in MHz :          8631.224146          4129.146847          2889.628976 

Dipole components along the rotational axes: 
x,y,z [a.u.] :     0.101512     0.046659    -0.041732 
x,y,z [Debye]:     0.258023     0.118597    -0.106073 

 

Dipole moment calculation done in   0.0 sec 

Maximum memory used throughout the entire PROP-calculation: 2.2 MB

--------------------------------
SUGGESTED CITATIONS FOR THIS RUN
--------------------------------

Below you find a list of papers that are relevant to this ORCA run
We neither can nor want to force you to cite these papers, but we appreciate if you do
You receive ORCA, which is the product of decades of hard work by many enthusiastic individuals, for free
The only thing we kindly ask in return is that you cite our papers,
We deeply appreciate it, if you show your appreciation for ORCA by not just citing the generic ORCA reference.

Please note that relegating all ORCA citations to the supporting information does *not* help us.
SI sections are not indexed - citations you put there will not count into any citation statistics
But we need these citations in order to attract the funding resources that allow us to do what we are doing

Therefore, if you are a happy ORCA user, please consider citing a few of the papers listed below in the main body of your paper

In addition to the list printed below, the program has created the file h-shift_013.bibtex that contains the list in bibtex format
You can import this file easily into all common literature databanks and citation aid programs


List of essential papers. We consider these as the minimum necessary citations

  1. Neese, F.
     Software update: the ORCA program system, version 6.0
     WIRES Comput. Molec. Sci. 2025 15(1), e70019
     doi.org/10.1002/wcms.7019

List of papers to cite with high priority. The work reported in these papers was absolutely
necessary for this run to complete.
Our perspective: the developers of density functionals and basis sets usually get cited in chemistry papers
Good! But without the algorithms to do something with them, the functionals or basis sets would not do anything.
Hence, in our opinion, the algorithm design and method developments papers are equally worthy of getting cited

  1. Neese, F.
     The SHARK Integral Generation and Digestion System
     J. Comp. Chem. 2022 44(3), 381
     doi.org/10.1002/jcc.26942

List of suggested additional citations. These are papers that are important in the 'surrounding' of 
of this run, or papers that preceded the highly important papers. If you like your results we are grateful for a citation.

  1. Neese, F.
     The ORCA program system
     WIRES Comput. Molec. Sci. 2012 2(1), 73-78
     doi.org/10.1002/wcms.81
  2. Neese, F.
     Software update: the ORCA program system, version 4.0
     WIRES Comput. Molec. Sci. 2018 8(1), 1-6
     doi.org/10.1002/wcms.1327
  3. Neese, F.; Wennmohs, F.; Becker, U.; Riplinger, C.
     The ORCA quantum chemistry program package
     J. Chem. Phys. 2020 152(22), 224108
     doi.org/10.1063/5.0004608
  4. Neese, F.
     Software update: The ORCA program system—Version 5.0
     WIRES Comput. Molec. Sci. 2022 12(1), e1606
     doi.org/10.1002/wcms.1606

List of optional additional citations

  1. Neese, F.
     Approximate second-order SCF convergence for spin unrestricted wavefunctions
     Chem. Phys. Lett. 2000 325(1-3), 93-98
     doi.org/10.1016/s0009-2614(00)00662-x

Timings for individual modules:

Sum of individual times          ...        2.264 sec (=   0.038 min)
Startup calculation              ...        0.680 sec (=   0.011 min)  30.0 %
SCF iterations                   ...        1.175 sec (=   0.020 min)  51.9 %
Property calculations            ...        0.408 sec (=   0.007 min)  18.0 %
                             ****ORCA TERMINATED NORMALLY****
TOTAL RUN TIME: 0 days 0 hours 0 minutes 2 seconds 736 msec
