[Molden Format]
[Title]
 Molden file created by orca_2mkl for BaseName=h-shift_072

[Atoms] AU
C    1   6         -0.7696079756         0.0256076788         0.0593506287 
H    2   1          3.9406629146         0.0177218517         0.0656037325 
C    3   6          4.6194808878         0.0197759840         1.9962386577 
C    4   6          3.5149246242        -2.1562625565         3.4415730145 
C    5   6          1.1721139729        -3.0321166045         3.1507743982 
C    6   6         -0.6178006061        -2.2160138071         1.1877722437 
H    7   1         -1.9585594083         0.3009880197        -1.5584193481 
H    8   1          0.2776347841         1.6465202702         0.6648264409 
H    9   1          4.0389683578         1.8054708045         2.8286516814 
H   10   1          6.6602906261        -0.0187895469         1.9681724452 
H   11   1          4.7392989733        -3.0836192005         4.7752340055 
H   12   1          0.5763872578        -4.6061583186         4.2949846750 
H   13   1         -1.8504443968        -3.6921941636         0.5254723666 
[GTO]
  1 0
s   6 1.0 
     3047.5249000000         0.5363343823
      457.3695100000         0.9894506076
      103.9486900000         1.5972822308
       29.2101550000         2.0791870615
        9.2866630000         1.7741742532
        3.1639270000         0.6125798260
s   3 1.0 
        7.8682724000        -0.3995563516
        1.8812885000        -0.1841552393
        0.5442493000         0.5163903794
p   3 1.0 
        7.8682724000         1.2960827175
        1.8812885000         0.9937536282
        0.5442493000         0.4959527138
s   1 1.0 
        0.1687144000         0.1876178721
p   1 1.0 
        0.1687144000         0.1541275509

  2 0
s   3 1.0 
       18.7311370000         0.2149354183
        2.8253937000         0.3645711272
        0.6401217000         0.4150514277
s   1 1.0 
        0.1612778000         0.1813806839

  3 0
s   6 1.0 
     3047.5249000000         0.5363343823
      457.3695100000         0.9894506076
      103.9486900000         1.5972822308
       29.2101550000         2.0791870615
        9.2866630000         1.7741742532
        3.1639270000         0.6125798260
s   3 1.0 
        7.8682724000        -0.3995563516
        1.8812885000        -0.1841552393
        0.5442493000         0.5163903794
p   3 1.0 
        7.8682724000         1.2960827175
        1.8812885000         0.9937536282
        0.5442493000         0.4959527138
s   1 1.0 
        0.1687144000         0.1876178721
p   1 1.0 
        0.1687144000         0.1541275509

  4 0
s   6 1.0 
     3047.5249000000         0.5363343823
      457.3695100000         0.9894506076
      103.9486900000         1.5972822308
       29.2101550000         2.0791870615
        9.2866630000         1.7741742532
        3.1639270000         0.6125798260
s   3 1.0 
        7.8682724000        -0.3995563516
        1.8812885000        -0.1841552393
        0.5442493000         0.5163903794
p   3 1.0 
        7.8682724000         1.2960827175
        1.8812885000         0.9937536282
        0.5442493000         0.4959527138
s   1 1.0 
        0.1687144000         0.1876178721
p   1 1.0 
        0.1687144000         0.1541275509

  5 0
s   6 1.0 
     3047.5249000000         0.5363343823
      457.3695100000         0.9894506076
      103.9486900000         1.5972822308
       29.2101550000         2.0791870615
        9.2866630000         1.7741742532
        3.1639270000         0.6125798260
s   3 1.0 
        7.8682724000        -0.3995563516
        1.8812885000        -0.1841552393
        0.5442493000         0.5163903794
p   3 1.0 
        7.8682724000         1.2960827175
        1.8812885000         0.9937536282
        0.5442493000         0.4959527138
s   1 1.0 
        0.1687144000         0.1876178721
p   1 1.0 
        0.1687144000         0.1541275509

  6 0
s   6 1.0 
     3047.5249000000         0.5363343823
      457.3695100000         0.9894506076
      103.9486900000         1.5972822308
       29.2101550000         2.0791870615
        9.2866630000         1.7741742532
        3.1639270000         0.6125798260
s   3 1.0 
        7.8682724000        -0.3995563516
        1.8812885000        -0.1841552393
        0.5442493000         0.5163903794
p   3 1.0 
        7.8682724000         1.2960827175
        1.8812885000         0.9937536282
        0.5442493000         0.4959527138
s   1 1.0 
        0.1687144000         0.1876178721
p   1 1.0 
        0.1687144000         0.1541275509

  7 0
s   3 1.0 
       18.7311370000         0.2149354183
        2.8253937000         0.3645711272
        0.6401217000         0.4150514277
s   1 1.0 
        0.1612778000         0.1813806839

  8 0
s   3 1.0 
       18.7311370000         0.2149354183
        2.8253937000         0.3645711272
        0.6401217000         0.4150514277
s   1 1.0 
        0.1612778000         0.1813806839

  9 0
s   3 1.0 
       18.7311370000         0.2149354183
        2.8253937000         0.3645711272
        0.6401217000         0.4150514277
s   1 1.0 
        0.1612778000         0.1813806839

 10 0
s   3 1.0 
       18.7311370000         0.2149354183
        2.8253937000         0.3645711272
        0.6401217000         0.4150514277
s   1 1.0 
        0.1612778000         0.1813806839

 11 0
s   3 1.0 
       18.7311370000         0.2149354183
        2.8253937000         0.3645711272
        0.6401217000         0.4150514277
s   1 1.0 
        0.1612778000         0.1813806839

 12 0
s   3 1.0 
       18.7311370000         0.2149354183
        2.8253937000         0.3645711272
        0.6401217000         0.4150514277
s   1 1.0 
        0.1612778000         0.1813806839

 13 0
s   3 1.0 
       18.7311370000         0.2149354183
        2.8253937000         0.3645711272
        0.6401217000         0.4150514277
s   1 1.0 
        0.1612778000         0.1813806839

[5D]
[7F]
[9G]
[MO]
 Sym=     1a
 Ene= -1.12359780348103E+01
 Spin= Alpha
 Occup= 2.000000
  1       0.055753844019
  2       0.000570731735
  3       0.000016744978
  4       0.000177042705
  5      -0.000127373567
  6       0.005423903191
  7       0.000778506913
  8      -0.001982007757
  9       0.001825292333
 10      -0.000119537306
 11       0.000605421007
 12       0.001245172008
 13      -0.000027616596
 14       0.000049217679
 15       0.000065402865
 16      -0.000032961734
 17       0.000243578378
 18      -0.000041375359
 19      -0.000373567039
 20       0.000504538969
 21       0.096095132979
 22       0.002118587973
 23       0.000156815970
 24       0.000039057161
 25       0.000105261820
 26      -0.001538678573
 27      -0.000512809836
 28      -0.000424960718
 29      -0.000165312564
 30       0.053636926235
 31       0.000634594465
 32       0.000113648278
 33      -0.000074129182
 34       0.000121688790
 35       0.004023148094
 36      -0.001318696096
 37       0.001416118014
 38      -0.001783305292
 39       0.988454499524
 40       0.024728851330
 41       0.000119545431
 42       0.000143130977
 43      -0.000029147668
 44      -0.017198971958
 45      -0.001481204475
 46      -0.001655629333
 47      -0.000517855812
 48      -0.000081042294
 49       0.000498545330
 50      -0.000269616305
 51      -0.000272676045
 52      -0.000005087352
 53       0.000040018603
 54      -0.000007072633
 55       0.000004538939
 56       0.000027184945
 57       0.000628828968
 58      -0.000088879085
 59       0.000445718468
 60      -0.000258341426
 61       0.002107989078
 Sym=     1a
 Ene= -1.12356891456190E+01
 Spin= Alpha
 Occup= 2.000000
  1       0.006170471049
  2       0.000090591840
  3       0.000019468033
  4       0.000039845430
  5       0.000018325346
  6       0.000179923942
  7      -0.000069083585
  8      -0.000317231465
  9      -0.000025416227
 10       0.000191924946
 11      -0.000133660570
 12      -0.015124251234
 13       0.000017415495
 14      -0.000005781720
 15      -0.000153658260
 16       0.000042353334
 17      -0.003651655421
 18       0.001154988923
 19       0.002178142429
 20      -0.000798017936
 21      -0.986219330506
 22      -0.024655813661
 23       0.000170289207
 24      -0.000036166065
 25       0.000104292032
 26       0.017234453544
 27      -0.001583227272
 28       0.000937463903
 29      -0.001729134694
 30      -0.096042494170
 31      -0.001462111725
 32       0.000225846925
 33       0.000122641949
 34       0.000008404010
 35      -0.005009632871
 36      -0.002604302126
 37      -0.001885266531
 38       0.000525266702
 39       0.100825273208
 40       0.002710443629
 41       0.000154506122
 42      -0.000039173850
 43       0.000107767289
 44      -0.001173046205
 45       0.000164216945
 46       0.000139290468
 47       0.000064697128
 48      -0.000013729415
 49      -0.000042051015
 50      -0.000026981253
 51       0.000366226772
 52       0.000202893511
 53      -0.000903785014
 54       0.000088937184
 55      -0.000181163566
 56       0.000269784493
 57      -0.002009242527
 58       0.000044329361
 59      -0.000763834538
 60      -0.000016955585
 61       0.000234261964
 Sym=     1a
 Ene= -1.12275109044727E+01
 Spin= Alpha
 Occup= 2.000000
  1       0.007212424257
  2       0.000327089241
  3       0.000049409554
  4      -0.000123930035
  5       0.000159674281
  6       0.000815959822
  7       0.000213599868
  8       0.000080789616
  9      -0.000156280336
 10      -0.000056544976
 11      -0.000172838354
 12       0.003252164569
 13       0.000072237396
 14      -0.000102558804
 15      -0.000107781435
 16       0.000098480413
 17       0.001748428236
 18      -0.000447053265
 19      -0.000659312119
 20       0.000022613652
 21       0.101468172365
 22       0.003566878524
 23      -0.000227556047
 24      -0.000027581363
 25      -0.000081445907
 26      -0.009444137643
 27       0.003284545414
 28      -0.000190964324
 29       0.001890459717
 30      -0.990066773033
 31      -0.025145757144
 32      -0.000144749178
 33      -0.000163570880
 34       0.000228826525
 35       0.019581954482
 36       0.001505265681
 37       0.002635412223
 38      -0.002268855502
 39       0.043728048590
 40       0.001732080037
 41       0.000125191679
 42      -0.000037722042
 43       0.000109181793
 44      -0.006065142803
 45      -0.002505355076
 46      -0.000010085974
 47      -0.001737811953
 48      -0.000049254381
 49      -0.000332669764
 50       0.000039477394
 51      -0.000295887143
 52      -0.000021500474
 53       0.000149567252
 54      -0.000060560648
 55      -0.000152853753
 56       0.000007868057
 57      -0.000336764237
 58       0.000296832800
 59      -0.001675290773
 60       0.000075221753
 61      -0.000351794769
 Sym=     1a
 Ene= -1.12212147110703E+01
 Spin= Alpha
 Occup= 2.000000
  1      -0.994531938442
  2      -0.024860639076
  3      -0.000089405003
  4       0.000206030695
  5      -0.000056538469
  6       0.016660453356
  7       0.000470468628
  8      -0.001680165585
  9       0.000858655119
 10       0.000166089597
 11      -0.001218809290
 12       0.000413931283
 13       0.000057166351
 14      -0.000109361459
 15       0.000011346019
 16       0.000065901274
 17      -0.000003338367
 18       0.000456774633
 19       0.000077794530
 20      -0.000826847411
 21      -0.000013937891
 22      -0.000041490223
 23      -0.000036766830
 24       0.000018418417
 25      -0.000022934002
 26       0.000237236259
 27       0.000281216217
 28       0.000454667158
 29      -0.000185527863
 30      -0.004754407175
 31      -0.000017469108
 32      -0.000068039624
 33       0.000081066344
 34      -0.000087484625
 35       0.000429837530
 36       0.000317142069
 37      -0.000028127586
 38       0.000243337398
 39       0.056935420778
 40       0.002253154726
 41      -0.000034986254
 42       0.000287894992
 43      -0.000127041646
 44      -0.006842153940
 45       0.000125161203
 46      -0.002806936498
 47       0.001370437391
 48       0.000210424670
 49      -0.002650340665
 50       0.000122121192
 51      -0.002736424905
 52      -0.000009350179
 53       0.000547497973
 54      -0.000031474795
 55      -0.000302288184
 56       0.000007988889
 57       0.000038569240
 58      -0.000037788721
 59      -0.000222383241
 60       0.000115322078
 61       0.000002163392
 Sym=     1a
 Ene= -1.12146170837828E+01
 Spin= Alpha
 Occup= 2.000000
  1       0.000411169717
  2      -0.000038521263
  3      -0.000093504356
  4      -0.000008713893
  5      -0.000113980935
  6       0.000285647836
  7       0.000431132776
  8      -0.000274891535
  9       0.000721862887
 10       0.000075506206
 11       0.003254546480
 12       0.996083420811
 13       0.026149203056
 14      -0.000083391869
 15       0.000004608589
 16       0.000069666076
 17      -0.019230948830
 18       0.000672010115
 19       0.000716007543
 20      -0.000592363229
 21      -0.015589399123
 22      -0.000819554146
 23      -0.000081721756
 24      -0.000108725457
 25       0.000075399187
 26       0.004073679879
 27       0.001532805413
 28       0.002218533984
 29      -0.001294291893
 30       0.001700855919
 31      -0.000157462643
 32      -0.000124190366
 33      -0.000091491625
 34       0.000029381349
 35       0.000649768665
 36       0.000766132119
 37       0.000409710629
 38       0.000012472707
 39       0.000138146793
 40       0.000013794707
 41      -0.000061080456
 42      -0.000042999118
 43      -0.000014263970
 44      -0.000534408720
 45      -0.000132251634
 46      -0.000413259290
 47       0.000112264601
 48       0.000065854636
 49       0.000510656446
 50      -0.000043015978
 51      -0.000092604236
 52       0.000073409202
 53       0.003329249318
 54       0.000035392216
 55       0.003094393880
 56      -0.000136546480
 57       0.000048169476
 58       0.000032221740
 59       0.000443207189
 60      -0.000024947440
 61      -0.000018389143
 Sym=     1a
 Ene= -1.10120255773012E+00
 Spin= Alpha
 Occup= 2.000000
  1      -0.075075013388
  2       0.146499684109
  3       0.012174128522
  4      -0.056096001755
  5       0.033311366416
  6       0.099784295819
  7       0.000525906201
  8      -0.002961096831
  9      -0.001491203767
 10       0.039262071355
 11       0.001234739774
 12      -0.069070879051
 13       0.128007409246
 14      -0.025050592137
 15      -0.032154948882
 16       0.016980513233
 17       0.121973814555
 18      -0.013245243530
 19      -0.003744720426
 20       0.000608825343
 21      -0.113881949466
 22       0.226125865958
 23      -0.063908236703
 24      -0.004213284969
 25      -0.027386367440
 26       0.136503851573
 27       0.000858810081
 28      -0.004249609586
 29       0.004224292167
 30      -0.125633485284
 31       0.247791938141
 32       0.039211387160
 33       0.041449055228
 34      -0.028303346368
 35       0.163473102411
 36       0.000251094721
 37       0.003858920689
 38      -0.005281131150
 39      -0.110147346718
 40       0.218385228541
 41       0.036044822000
 42       0.028925563016
 43       0.012840887464
 44       0.138727577044
 45       0.005957469361
 46       0.000078709132
 47       0.003269573571
 48       0.032858520849
 49       0.001533509397
 50       0.039659836935
 51       0.006988676163
 52       0.035181009773
 53       0.000192523903
 54       0.031944314388
 55       0.005346214446
 56       0.052732343167
 57       0.004122024090
 58       0.058422953488
 59       0.008110816423
 60       0.052882135128
 61       0.008253593059
 Sym=     1a
 Ene= -1.02056686176397E+00
 Spin= Alpha
 Occup= 2.000000
  1       0.122113712474
  2      -0.239576043129
  3       0.001123677549
  4       0.078880555595
  5      -0.033303720808
  6      -0.185366776603
  7      -0.001966216352
  8       0.003120681214
  9      -0.004019893336
 10       0.052967542893
 11       0.005343945893
 12      -0.099533706834
 13       0.189353844321
 14      -0.012926581912
 15      -0.030517171710
 16       0.022952994060
 17       0.176875822564
 18       0.000556296609
 19      -0.000887060521
 20       0.003509325249
 21      -0.101614279596
 22       0.201736294429
 23       0.002577403317
 24       0.021269772633
 25      -0.018545070557
 26       0.148875048138
 27       0.000683377896
 28       0.005830973684
 29      -0.004932202448
 30      -0.020917954403
 31       0.041608810103
 32       0.101311048824
 33       0.005854310569
 34       0.045902721004
 35       0.025699147592
 36       0.007525176501
 37      -0.011779392353
 38       0.012166255855
 39       0.116286253221
 40      -0.232240531012
 41       0.021691006192
 42      -0.076613196497
 43       0.052811611677
 44      -0.160934400842
 45       0.010495686642
 46       0.004651679409
 47       0.006930126084
 48      -0.069839354843
 49      -0.016081049482
 50      -0.061779721930
 51      -0.005846507828
 52       0.057669606045
 53       0.005481383006
 54       0.059071872023
 55       0.008772118500
 56       0.062456536495
 57       0.016583785330
 58       0.010241887326
 59      -0.003805273739
 60      -0.068971057264
 61      -0.011579138946
 Sym=     1a
 Ene= -9.41312687654501E-01
 Spin= Alpha
 Occup= 2.000000
  1      -0.078904451944
  2       0.154326200901
  3       0.000781877899
  4      -0.011545818118
  5       0.001859513921
  6       0.136012403858
  7       0.005269293461
  8       0.001900427237
  9       0.000156623902
 10       0.099340228098
 11       0.022276758263
 12      -0.139024153552
 13       0.261455408149
 14       0.012239832804
 15       0.020795921811
 16      -0.010265565258
 17       0.294369920609
 18      -0.004616371690
 19       0.002103668914
 20       0.000123846444
 21       0.029676808056
 22      -0.055836422523
 23       0.130855332418
 24       0.114176554240
 25      -0.039780966752
 26      -0.074161036730
 27       0.019120024235
 28       0.009470338569
 29      -0.000605439165
 30       0.118784875748
 31      -0.236285097950
 32      -0.035887691221
 33       0.012444308058
 34      -0.018308917732
 35      -0.184410914553
 36       0.005288435472
 37       0.015605936626
 38      -0.006779391468
 39      -0.002715222590
 40       0.004321975510
 41      -0.047546624288
 42       0.088545796438
 43      -0.083899849524
 44       0.001071545336
 45      -0.013485618961
 46       0.005725331670
 47      -0.014730023201
 48       0.057391926248
 49       0.018437087719
 50       0.059793510086
 51       0.017567569253
 52       0.099858251152
 53       0.024428139337
 54       0.101254608728
 55       0.028085314318
 56      -0.020502548113
 57      -0.007312920997
 58      -0.091037736887
 59      -0.025116197062
 60      -0.002284213882
 61      -0.004816008089
 Sym=     1a
 Ene= -8.13407442673959E-01
 Spin= Alpha
 Occup= 2.000000
  1      -0.102107517954
  2       0.203255435709
  3      -0.008739740683
  4       0.080107783901
  5      -0.044967455379
  6       0.190304512533
  7      -0.002634971829
  8       0.032141137073
  9      -0.017194303981
 10      -0.058713125630
 11      -0.023049732134
 12       0.060014099672
 13      -0.113852682483
 14      -0.031890269977
 15      -0.064040657387
 16       0.043905060461
 17      -0.145811306866
 18      -0.015860692966
 19      -0.014965912713
 20       0.008377676136
 21      -0.091813040080
 22       0.183897368200
 23      -0.015143287505
 24      -0.066664467825
 25       0.059503720841
 26       0.178558369472
 27       0.014416506585
 28      -0.010865874553
 29       0.019628518543
 30       0.030089324138
 31      -0.062735019068
 32       0.195756142991
 33       0.027407229147
 34       0.093998574480
 35      -0.052006130663
 36       0.046643558279
 37       0.007485888530
 38       0.021360300142
 39       0.086162068267
 40      -0.175995946708
 41      -0.019440861538
 42       0.151436116764
 43      -0.084210977493
 44      -0.163126178747
 45      -0.001601356149
 46       0.050477103529
 47      -0.023309850314
 48       0.113496975973
 49       0.048523212828
 50       0.109201364823
 51       0.042360228571
 52      -0.059811175863
 53      -0.024001781599
 54      -0.062429305448
 55      -0.021042645759
 56       0.107582661080
 57       0.043668392596
 58      -0.039771581796
 59      -0.017874564819
 60      -0.108871263672
 61      -0.045020431109
 Sym=     1a
 Ene= -7.17958368373054E-01
 Spin= Alpha
 Occup= 2.000000
  1      -0.038877509218
  2       0.077744528919
  3       0.064481383264
  4       0.197324823829
  5      -0.015302718596
  6       0.080521999950
  7       0.021609241174
  8       0.064516162286
  9      -0.008274187833
 10       0.079173453098
 11       0.043311361615
 12      -0.020877763530
 13       0.036421482921
 14      -0.025488341081
 15       0.109916227946
 16      -0.100491182597
 17       0.061433920731
 18      -0.013503839799
 19       0.039735458931
 20      -0.036508532975
 21       0.073782928038
 22      -0.150137368193
 23      -0.174655012768
 24      -0.002090762188
 25      -0.066505719866
 26      -0.154978961428
 27      -0.073390688008
 28       0.006406023815
 29      -0.032556851581
 30      -0.078032307590
 31       0.159569339257
 32      -0.029648421633
 33      -0.029797559988
 34       0.028656013753
 35       0.154826442091
 36      -0.029722079801
 37      -0.034722532693
 38       0.019092194767
 39       0.069846856723
 40      -0.141912377939
 41       0.131422515924
 42       0.026788019388
 43       0.124870010424
 44      -0.140555302821
 45       0.052175827804
 46       0.039712783136
 47       0.035223821016
 48       0.040454201169
 49       0.019752540643
 50       0.142222304523
 51       0.087247814306
 52       0.053911997114
 53       0.029465747774
 54       0.002933631274
 55      -0.001003569181
 56      -0.151956375734
 57      -0.076611387398
 58       0.102058695626
 59       0.041489378724
 60      -0.141371451893
 61      -0.067973010670
 Sym=     1a
 Ene= -6.67707877578230E-01
 Spin= Alpha
 Occup= 2.000000
  1       0.021688520843
  2      -0.043112566981
  3       0.115934147659
  4      -0.086368599824
  5       0.151670609569
  6      -0.061099183345
  7       0.049836980137
  8      -0.021457592734
  9       0.054561052709
 10       0.015886456707
 11       0.010135667771
 12       0.017042797799
 13      -0.031403299213
 14      -0.140512354119
 15      -0.068115072806
 16      -0.003094339926
 17      -0.050840256153
 18      -0.064719471656
 19      -0.023685006426
 20      -0.007696554464
 21      -0.023445199187
 22       0.049040433876
 23      -0.114167096733
 24       0.089894728203
 25      -0.125227726592
 26       0.034777637097
 27      -0.028361193063
 28       0.037299738813
 29      -0.043231786293
 30       0.021009312777
 31      -0.040486587295
 32       0.094233847479
 33       0.232004053922
 34      -0.153995221053
 35      -0.054351376165
 36       0.040246798280
 37       0.097269020948
 38      -0.061435725469
 39      -0.024852035612
 40       0.053070715766
 41       0.124745939577
 42       0.139722085497
 43       0.029795736469
 44       0.046242558040
 45       0.041571747636
 46       0.044071718393
 47       0.007664176785
 48      -0.136408923525
 49      -0.085573444846
 50      -0.000971904532
 51      -0.006170161380
 52      -0.027444374804
 53      -0.015895225337
 54      -0.096484102882
 55      -0.057900021650
 56      -0.083053516255
 57      -0.058400780304
 58      -0.188087467113
 59      -0.114084148565
 60      -0.080341000521
 61      -0.058839099413
 Sym=     1a
 Ene= -6.02855600981479E-01
 Spin= Alpha
 Occup= 2.000000
  1      -0.007631420470
  2       0.016849374385
  3       0.169275485384
  4       0.098147767797
  5       0.200973729077
  6       0.029980841738
  7       0.075380530683
  8       0.045926865878
  9       0.093803692812
 10      -0.096967042182
 11      -0.065549519233
 12       0.010625568199
 13      -0.020412347806
 14       0.110468229879
 15      -0.026990772910
 16       0.122177166993
 17      -0.030914214911
 18       0.042687192700
 19      -0.013229886902
 20       0.057358696501
 21       0.003469935554
 22      -0.009528724211
 23       0.246156490760
 24       0.019102720703
 25       0.122150130165
 26      -0.001840900243
 27       0.100314857885
 28      -0.000138060450
 29       0.060043058453
 30       0.009751998121
 31      -0.022003593229
 32      -0.225539592951
 33      -0.037241178308
 34      -0.037918892133
 35       0.011220484194
 36      -0.065477822759
 37       0.005327429532
 38      -0.013063693558
 39      -0.015379111354
 40       0.035563784036
 41       0.118679873774
 42       0.072952545150
 43       0.150358998553
 44       0.024574884212
 45       0.033062643527
 46       0.017633329151
 47       0.060119360064
 48      -0.143277696543
 49      -0.099922271790
 50       0.141382574827
 51       0.091297812872
 52      -0.009499947759
 53      -0.001504569071
 54       0.059265236242
 55       0.049958561990
 56       0.135021903056
 57       0.094010859547
 58       0.035110732114
 59       0.033380581457
 60      -0.089775646386
 61      -0.071780015234
 Sym=     1a
 Ene= -5.84698630453200E-01
 Spin= Alpha
 Occup= 2.000000
  1       0.007173669481
  2      -0.019218757790
  3      -0.022878073933
  4       0.285264262384
  5      -0.165869370331
  6       0.017207824215
  7      -0.003640544353
  8       0.102543020977
  9      -0.058100018649
 10      -0.018702038323
 11      -0.010982237380
 12       0.006807010815
 13      -0.008179330407
 14      -0.109229274837
 15      -0.178675110515
 16       0.064505326829
 17      -0.037547151477
 18      -0.047049057957
 19      -0.074701843816
 20       0.024421602806
 21      -0.024223480771
 22       0.049261265459
 23       0.113668120912
 24       0.141183595257
 25      -0.114672027747
 26       0.084121131479
 27       0.042509870711
 28       0.055007651015
 29      -0.051303143414
 30       0.010554040221
 31      -0.021042220971
 32      -0.116584422536
 33       0.047160596684
 34      -0.167436835712
 35      -0.021467304726
 36      -0.042523741059
 37       0.020123795194
 38      -0.072660165241
 39       0.007724508037
 40      -0.018424308181
 41       0.033446708356
 42      -0.307695440066
 43       0.132884892585
 44       0.004319547639
 45       0.004487913882
 46      -0.111455576426
 47       0.035982060105
 48       0.110946024890
 49       0.087380549221
 50       0.097645942767
 51       0.071122476931
 52      -0.067785094718
 53      -0.051168208162
 54      -0.075139411970
 55      -0.055192483712
 56      -0.014552701313
 57      -0.013670119446
 58      -0.073635844934
 59      -0.051000972199
 60       0.094903578779
 61       0.070691078056
 Sym=     1a
 Ene= -5.67463597276186E-01
 Spin= Alpha
 Occup= 2.000000
  1      -0.004758050373
  2       0.009353986704
  3       0.030650142499
  4      -0.021160951096
  5       0.005849428990
  6       0.013072270612
  7       0.017054129587
  8      -0.004142941340
  9      -0.006574037674
 10       0.142903284441
 11       0.112304091821
 12      -0.000459197674
 13       0.001947159232
 14       0.180097262380
 15      -0.241289623661
 16      -0.285521804678
 17       0.000584893051
 18       0.089640962052
 19      -0.123744718861
 20      -0.143921158662
 21       0.005697063389
 22      -0.009516352650
 23       0.051157414393
 24      -0.102251285705
 25      -0.071451930124
 26      -0.029458284628
 27       0.033032785193
 28      -0.048683950349
 29      -0.033859238042
 30      -0.003122176131
 31       0.004119011894
 32       0.015305100905
 33      -0.045050573271
 34      -0.055932713202
 35       0.021557428745
 36       0.020743028239
 37      -0.022175361406
 38      -0.037849746051
 39       0.001184460864
 40      -0.003100595509
 41       0.056026156729
 42       0.031289758539
 43      -0.007357492605
 44      -0.003782802221
 45       0.028015489756
 46       0.015904643301
 47      -0.005206784641
 48      -0.011110490302
 49      -0.011294777034
 50      -0.002930365115
 51      -0.012849077076
 52      -0.252638018701
 53      -0.196991283329
 54       0.127611917631
 55       0.098677530665
 56       0.013639217680
 57       0.011382011887
 58       0.002322808281
 59       0.005081238460
 60      -0.038533496337
 61      -0.028114372284
 Sym=     1a
 Ene= -5.42092464855575E-01
 Spin= Alpha
 Occup= 2.000000
  1       0.012508893551
  2      -0.027635358881
  3       0.133487540887
  4       0.071677501473
  5       0.110855321013
  6      -0.013904322209
  7       0.085466103481
  8       0.033005247411
  9       0.067215610644
 10       0.185096397132
 11       0.143615573720
 12       0.006134365220
 13      -0.016010438211
 14      -0.236723086286
 15       0.065017677801
 16      -0.206848786488
 17       0.007758327933
 18      -0.143384795792
 19       0.029236116975
 20      -0.110378941056
 21      -0.007855501020
 22       0.015748410690
 23       0.064916043906
 24      -0.101030146764
 25       0.090008557271
 26       0.015159739766
 27       0.043383307335
 28      -0.065935109901
 29       0.060079953005
 30       0.035095877456
 31      -0.078272687478
 32       0.020679582526
 33      -0.102577585095
 34       0.071923093977
 35      -0.071331654981
 36       0.014408671564
 37      -0.023351552574
 38       0.010613216303
 39      -0.007971178601
 40       0.014720069565
 41      -0.112057370227
 42      -0.087707553602
 43      -0.084588972369
 44       0.014902273312
 45      -0.071331008885
 46      -0.064290856746
 47      -0.051969042791
 48      -0.126150328146
 49      -0.089852944067
 50       0.111672683373
 51       0.086005247361
 52       0.023285448489
 53       0.019827632499
 54      -0.172509334612
 55      -0.132375896468
 56       0.109316464569
 57       0.072844544089
 58       0.032843109344
 59       0.042342638647
 60       0.121641318305
 61       0.082920722287
 Sym=     1a
 Ene= -5.07374887680832E-01
 Spin= Alpha
 Occup= 2.000000
  1      -0.011616887704
  2       0.026110455798