[Molden Format]
[Title]
 Molden file created by orca_2mkl for BaseName=h-shift_084

[Atoms] AU
C    1   6         -0.8617548013         0.0088495875         0.0555069257 
H    2   1          4.0959889542         0.0304623853         0.0515951926 
C    3   6          4.7034508686         0.0187876572         2.0072198563 
C    4   6          3.5071276141        -2.1182431564         3.4389255082 
C    5   6          1.1928858426        -3.0373454767         3.0719217958 
C    6   6         -0.6254634455        -2.2529182688         1.1220078845 
H    7   1         -2.1860389712         0.3238064628        -1.4476568302 
H    8   1          0.2242027777         1.6177284028         0.6288120402 
H    9   1          4.1708239988         1.8297065422         2.8168805773 
H   10   1          6.7439601404        -0.0943804820         2.0497802683 
H   11   1          4.6562171638        -2.9834712743         4.8786530476 
H   12   1          0.5932455047        -4.5978284058         4.2343131277 
H   13   1         -1.8712937452        -3.7342216728         0.4922717682 
[GTO]
  1 0
s   6 1.0 
     3047.5249000000         0.5363343823
      457.3695100000         0.9894506076
      103.9486900000         1.5972822308
       29.2101550000         2.0791870615
        9.2866630000         1.7741742532
        3.1639270000         0.6125798260
s   3 1.0 
        7.8682724000        -0.3995563516
        1.8812885000        -0.1841552393
        0.5442493000         0.5163903794
p   3 1.0 
        7.8682724000         1.2960827175
        1.8812885000         0.9937536282
        0.5442493000         0.4959527138
s   1 1.0 
        0.1687144000         0.1876178721
p   1 1.0 
        0.1687144000         0.1541275509

  2 0
s   3 1.0 
       18.7311370000         0.2149354183
        2.8253937000         0.3645711272
        0.6401217000         0.4150514277
s   1 1.0 
        0.1612778000         0.1813806839

  3 0
s   6 1.0 
     3047.5249000000         0.5363343823
      457.3695100000         0.9894506076
      103.9486900000         1.5972822308
       29.2101550000         2.0791870615
        9.2866630000         1.7741742532
        3.1639270000         0.6125798260
s   3 1.0 
        7.8682724000        -0.3995563516
        1.8812885000        -0.1841552393
        0.5442493000         0.5163903794
p   3 1.0 
        7.8682724000         1.2960827175
        1.8812885000         0.9937536282
        0.5442493000         0.4959527138
s   1 1.0 
        0.1687144000         0.1876178721
p   1 1.0 
        0.1687144000         0.1541275509

  4 0
s   6 1.0 
     3047.5249000000         0.5363343823
      457.3695100000         0.9894506076
      103.9486900000         1.5972822308
       29.2101550000         2.0791870615
        9.2866630000         1.7741742532
        3.1639270000         0.6125798260
s   3 1.0 
        7.8682724000        -0.3995563516
        1.8812885000        -0.1841552393
        0.5442493000         0.5163903794
p   3 1.0 
        7.8682724000         1.2960827175
        1.8812885000         0.9937536282
        0.5442493000         0.4959527138
s   1 1.0 
        0.1687144000         0.1876178721
p   1 1.0 
        0.1687144000         0.1541275509

  5 0
s   6 1.0 
     3047.5249000000         0.5363343823
      457.3695100000         0.9894506076
      103.9486900000         1.5972822308
       29.2101550000         2.0791870615
        9.2866630000         1.7741742532
        3.1639270000         0.6125798260
s   3 1.0 
        7.8682724000        -0.3995563516
        1.8812885000        -0.1841552393
        0.5442493000         0.5163903794
p   3 1.0 
        7.8682724000         1.2960827175
        1.8812885000         0.9937536282
        0.5442493000         0.4959527138
s   1 1.0 
        0.1687144000         0.1876178721
p   1 1.0 
        0.1687144000         0.1541275509

  6 0
s   6 1.0 
     3047.5249000000         0.5363343823
      457.3695100000         0.9894506076
      103.9486900000         1.5972822308
       29.2101550000         2.0791870615
        9.2866630000         1.7741742532
        3.1639270000         0.6125798260
s   3 1.0 
        7.8682724000        -0.3995563516
        1.8812885000        -0.1841552393
        0.5442493000         0.5163903794
p   3 1.0 
        7.8682724000         1.2960827175
        1.8812885000         0.9937536282
        0.5442493000         0.4959527138
s   1 1.0 
        0.1687144000         0.1876178721
p   1 1.0 
        0.1687144000         0.1541275509

  7 0
s   3 1.0 
       18.7311370000         0.2149354183
        2.8253937000         0.3645711272
        0.6401217000         0.4150514277
s   1 1.0 
        0.1612778000         0.1813806839

  8 0
s   3 1.0 
       18.7311370000         0.2149354183
        2.8253937000         0.3645711272
        0.6401217000         0.4150514277
s   1 1.0 
        0.1612778000         0.1813806839

  9 0
s   3 1.0 
       18.7311370000         0.2149354183
        2.8253937000         0.3645711272
        0.6401217000         0.4150514277
s   1 1.0 
        0.1612778000         0.1813806839

 10 0
s   3 1.0 
       18.7311370000         0.2149354183
        2.8253937000         0.3645711272
        0.6401217000         0.4150514277
s   1 1.0 
        0.1612778000         0.1813806839

 11 0
s   3 1.0 
       18.7311370000         0.2149354183
        2.8253937000         0.3645711272
        0.6401217000         0.4150514277
s   1 1.0 
        0.1612778000         0.1813806839

 12 0
s   3 1.0 
       18.7311370000         0.2149354183
        2.8253937000         0.3645711272
        0.6401217000         0.4150514277
s   1 1.0 
        0.1612778000         0.1813806839

 13 0
s   3 1.0 
       18.7311370000         0.2149354183
        2.8253937000         0.3645711272
        0.6401217000         0.4150514277
s   1 1.0 
        0.1612778000         0.1813806839

[5D]
[7F]
[9G]
[MO]
 Sym=     1a
 Ene= -1.12360000439724E+01
 Spin= Alpha
 Occup= 2.000000
  1       0.058848444460
  2       0.000619593829
  3       0.000001751050
  4       0.000174529640
  5      -0.000113097306
  6       0.005533496812
  7       0.000936630908
  8      -0.001993755838
  9       0.001772995561
 10      -0.000103094023
 11       0.000562652756
 12       0.000404051637
 13      -0.000015956750
 14       0.000049553110
 15       0.000047256386
 16      -0.000024742911
 17       0.000063875817
 18      -0.000024014953
 19      -0.000228393694
 20       0.000447713256
 21       0.037545412624
 22       0.000683980849
 23       0.000168309002
 24       0.000041282912
 25       0.000120451421
 26      -0.000656393756
 27      -0.000505336597
 28      -0.000406678669
 29      -0.000234342459
 30       0.047623731495
 31       0.000521552413
 32       0.000131934615
 33      -0.000068553369
 34       0.000125051410
 35       0.003923215141
 36      -0.001483775345
 37       0.001381346954
 38      -0.001809493714
 39       0.992536086393
 40       0.024849843202
 41       0.000104183364
 42       0.000160234339
 43       0.000008550429
 44      -0.017339336717
 45      -0.001463742487
 46      -0.001772856897
 47      -0.000660840840
 48      -0.000081173043
 49       0.000496247836
 50      -0.000275405216
 51      -0.000317730902
 52       0.000002937577
 53      -0.000008456650
 54      -0.000000150462
 55       0.000000689357
 56       0.000040567107
 57       0.000490324262
 58      -0.000085442872
 59       0.000443494554
 60      -0.000266769343
 61       0.002062266877
 Sym=     1a
 Ene= -1.12352768899437E+01
 Spin= Alpha
 Occup= 2.000000
  1       0.003047547790
  2       0.000073374453
  3       0.000025826549
  4       0.000029687146
  5       0.000032509952
  6      -0.000170097785
  7      -0.000184842736
  8      -0.000161567887
  9      -0.000161281038
 10       0.000199112778
 11      -0.000090331366
 12      -0.016410452308
 13       0.000003820508
 14      -0.000014668166
 15      -0.000161378533
 16       0.000041020736
 17      -0.003672838994
 18       0.001245108962
 19       0.002173382091
 20      -0.000746909399
 21      -0.989621970596
 22      -0.024711586817
 23       0.000146787931
 24      -0.000025766509
 25       0.000093286178
 26       0.017213560926
 27      -0.001405409761
 28       0.000877416196
 29      -0.001769874102
 30      -0.104147708593
 31      -0.001609305809
 32       0.000224934800
 33       0.000127486842
 34       0.000002905702
 35      -0.005201800738
 36      -0.002462960193
 37      -0.001990845574
 38       0.000629468931
 39       0.042316601495
 40       0.001218124734
 41       0.000149785783
 42      -0.000032368079
 43       0.000116214738
 44      -0.000011197605
 45       0.000316731937
 46       0.000222697311
 47       0.000085743386
 48      -0.000012548249
 49      -0.000102279068
 50       0.000003813154
 51       0.000345865845
 52       0.000199425743
 53      -0.000901903608
 54       0.000092275116
 55      -0.000197491604
 56       0.000266626806
 57      -0.002066240472
 58       0.000048120399
 59      -0.000797848358
 60      -0.000005740024
 61       0.000090473638
 Sym=     1a
 Ene= -1.12274679359198E+01
 Spin= Alpha
 Occup= 2.000000
  1      -0.008062706144
  2      -0.000361973359
  3      -0.000057261514
  4       0.000129429445
  5      -0.000155958614
  6      -0.000762911402
  7      -0.000208100133
  8      -0.000133203386
  9       0.000160744651
 10       0.000065079284
 11       0.000180385727
 12      -0.003776903924
 13      -0.000076234262
 14       0.000105893155
 15       0.000112754047
 16      -0.000091306808
 17      -0.001797071086
 18       0.000538496490
 19       0.000653426607
 20      -0.000033467114
 21      -0.106552677793
 22      -0.003707981779
 23       0.000226439170
 24       0.000034200864
 25       0.000094556705
 26       0.009492894815
 27      -0.003195170588
 28       0.000191465614
 29      -0.002054557416
 30       0.989549115832
 31       0.025125695188
 32       0.000125580475
 33       0.000172751135
 34      -0.000186853788
 35      -0.019566177961
 36      -0.001382716305
 37      -0.002691303119
 38       0.002135352067
 39      -0.043216553299
 40      -0.001727886131
 41      -0.000123527403
 42       0.000035350330
 43      -0.000109917901
 44       0.006021243931
 45       0.002532560879
 46       0.000050895431
 47       0.001749608984
 48       0.000045037370
 49       0.000329999662
 50      -0.000041164969
 51       0.000317390554
 52       0.000040682979
 53      -0.000150497275
 54       0.000058857373
 55       0.000112149001
 56       0.000003433917
 57       0.000342902822
 58      -0.000297033677
 59       0.001696009532
 60      -0.000066503064
 61       0.000344158260
 Sym=     1a
 Ene= -1.12218421103655E+01
 Spin= Alpha
 Occup= 2.000000
  1       0.994357212086
  2       0.024785427181
  3       0.000065634996
  4      -0.000201369210
  5       0.000060315195
  6      -0.016534857232
  7      -0.000405832854
  8       0.001674985498
  9      -0.000818503970
 10      -0.000154851533
 11       0.000986033867
 12      -0.000375763999
 13      -0.000036936750
 14       0.000084974160
 15      -0.000011294816
 16      -0.000060823274
 17       0.000027497435
 18      -0.000308951087
 19      -0.000052159903
 20       0.000695295576
 21      -0.000038511037
 22       0.000020379718
 23       0.000037654218
 24      -0.000018836762
 25       0.000020271561
 26      -0.000051262851
 27      -0.000351724442
 28      -0.000388751758
 29       0.000128539211
 30       0.005507111110
 31       0.000028460688
 32       0.000066343950
 33      -0.000080095966
 34       0.000083833939
 35      -0.000491855932
 36      -0.000352089704
 37      -0.000027526196
 38      -0.000248590094
 39      -0.059807078293
 40      -0.002333852879
 41       0.000038405662
 42      -0.000297269662
 43       0.000122553086
 44       0.006847614294
 45      -0.000243858826
 46       0.002842066216
 47      -0.001297285215
 48      -0.000210249400
 49       0.002651280648
 50      -0.000147907688
 51       0.002741124616
 52       0.000029384706
 53      -0.000488441501
 54       0.000010892323
 55       0.000210890238
 56      -0.000006012693
 57      -0.000011861337
 58       0.000035432960
 59       0.000197957381
 60      -0.000114159522
 61      -0.000006645306
 Sym=     1a
 Ene= -1.12158881300441E+01
 Spin= Alpha
 Occup= 2.000000
  1       0.000370863921
  2      -0.000019391646
  3      -0.000088817045
  4      -0.000002368040
  5      -0.000096299866
  6       0.000264013116
  7       0.000403116619
  8      -0.000319004808
  9       0.000583321177
 10       0.000075919294
 11       0.003197331197
 12       0.996063064671
 13       0.026117470678
 14      -0.000059548073
 15       0.000012060764
 16       0.000069771757
 17      -0.019223854709
 18       0.000623478502
 19       0.000721328863
 20      -0.000630233871
 21      -0.016889314220
 22      -0.000858051332
 23      -0.000084566758
 24      -0.000115493916
 25       0.000083027112
 26       0.004069846987
 27       0.001610377995
 28       0.002264368430
 29      -0.001333096752
 30       0.002015515813
 31      -0.000138964038
 32      -0.000129826468
 33      -0.000097758439
 34       0.000029538343
 35       0.000589813254
 36       0.000815614168
 37       0.000378901571
 38       0.000109402169
 39       0.000118126052
 40       0.000023733822
 41      -0.000052721158
 42      -0.000038041331
 43      -0.000013172084
 44      -0.000432354675
 45      -0.000092575901
 46      -0.000443846383
 47       0.000171223795
 48       0.000047569571
 49       0.000455693384
 50      -0.000051374142
 51       0.000003236221
 52       0.000070525579
 53       0.003306929910
 54       0.000043369046
 55       0.003125964317
 56      -0.000125090481
 57       0.000085440554
 58       0.000028859474
 59       0.000421506184
 60      -0.000028542841
 61      -0.000027987304
 Sym=     1a
 Ene= -1.09947055521929E+00
 Spin= Alpha
 Occup= 2.000000
  1       0.075812588048
  2      -0.148201931210
  3      -0.013562988478
  4       0.057425465943
  5      -0.032371847577
  6      -0.100685774233
  7      -0.000104468574
  8       0.003132171330
  9       0.001025245343
 10      -0.037669781123
 11      -0.001872943718
 12       0.067676981043
 13      -0.125883143647
 14       0.024858153235
 15       0.031358556044
 16      -0.016996481888
 17      -0.119057631748
 18       0.011552458559
 19       0.003567169553
 20      -0.000979405307
 21       0.113547889881
 22      -0.225493823004
 23       0.062057151435
 24       0.006559829010
 25       0.027889229831
 26      -0.137239649820
 27      -0.000336562952
 28       0.004427641087
 29      -0.004755104030
 30       0.126175753806
 31      -0.248989325159
 32      -0.036628554902
 33      -0.041954996262
 34       0.024499993660
 35      -0.163968730208
 36       0.000399192168
 37      -0.004170984769
 38       0.004990065938
 39       0.110979242892
 40      -0.220276552406
 41      -0.033510410984
 42      -0.031048082369
 43      -0.014333587895
 44      -0.139443018141
 45      -0.005319292713
 46       0.000211026223
 47      -0.003473960629
 48      -0.033281319841
 49      -0.001891095056
 50      -0.039731661419
 51      -0.007194478142
 52      -0.034299491454
 53      -0.000285494959
 54      -0.031720570047
 55      -0.004743423168
 56      -0.053162661260
 57      -0.004335078175
 58      -0.059450193316
 59      -0.008681115181
 60      -0.053332013924
 61      -0.008235211061
 Sym=     1a
 Ene= -1.02204319613266E+00
 Spin= Alpha
 Occup= 2.000000
  1       0.120986368452
  2      -0.237492403129
  3      -0.001453487705
  4       0.078839828053
  5      -0.032249950171
  6      -0.182760214257
  7      -0.002058171438
  8       0.002963209095
  9      -0.003828269827
 10       0.054472944767
 11       0.005524983396
 12      -0.100792101193
 13       0.191547708354
 14      -0.014047632395
 15      -0.029981434380
 16       0.022703880875
 17       0.179515974771
 18       0.000536943726
 19      -0.000887397727
 20       0.003336009657
 21      -0.102144929820
 22       0.202741656188
 23       0.004316607248
 24       0.020593834481
 25      -0.018555414589
 26       0.147928044600
 27       0.001877846100
 28       0.005991581179
 29      -0.004707957832
 30      -0.021051103097
 31       0.041919889912
 32       0.101072317539
 33       0.007574849182
 34       0.047687378885
 35       0.026616955442
 36       0.008282074121
 37      -0.011510217700
 38       0.012868462510
 39       0.115339935451
 40      -0.230332507446
 41       0.024993774560
 42      -0.077386133793
 43       0.048545647050
 44      -0.158954191741
 45       0.011151070554
 46       0.004302865698
 47       0.006431451736
 48      -0.068777073065
 49      -0.015679385292
 50      -0.061382219966
 51      -0.006071651599
 52       0.058431686425
 53       0.005612380442
 54       0.059843257435
 55       0.008716092386
 56       0.062828012449
 57       0.016502533690
 58       0.010297115451
 59      -0.003815324980
 60      -0.067923136892
 61      -0.011194844194
 Sym=     1a
 Ene= -9.40895499835194E-01
 Spin= Alpha
 Occup= 2.000000
  1      -0.079417356747
  2       0.155722730096
  3      -0.000579733176
  4      -0.014334435513
  5       0.002074376679
  6       0.135652321346
  7       0.004307905621
  8       0.001975440261
  9       0.000012678995
 10       0.098253215558
 11       0.022755088879
 12      -0.139093421114
 13       0.262007540605
 14       0.014608667823
 15       0.019950603785
 16      -0.008444058846
 17       0.293495134144
 18      -0.003127965400
 19       0.002147991037
 20       0.000936855356
 21       0.029871474646
 22      -0.056158096198
 23       0.133445591860
 24       0.114780890479
 25      -0.036889417842
 26      -0.074597926778
 27       0.019351823953
 28       0.010161993234
 29      -0.000225550267
 30       0.118385220772
 31      -0.235529464761
 32      -0.036414004711
 33       0.010792887648
 34      -0.022782530119
 35      -0.183182311770
 36       0.005577099370
 37       0.015299516906
 38      -0.007536907803
 39      -0.005341762066
 40       0.009475776399
 41      -0.051561207491
 42       0.088335796046
 43      -0.082097016344
 44       0.006045613833
 45      -0.014043884361
 46       0.005916756656
 47      -0.014339104055
 48       0.057898002313
 49       0.018634101113
 50       0.058356169064
 51       0.016465148907
 52       0.099886197323
 53       0.024646935802
 54       0.101717936193
 55       0.027997472045
 56      -0.020580204837
 57      -0.007342109126
 58      -0.091067278900
 59      -0.025273778735
 60      -0.000053914008
 61      -0.003995566812
 Sym=     1a
 Ene= -8.14433145981174E-01
 Spin= Alpha
 Occup= 2.000000
  1      -0.102342687804
  2       0.203804696309
  3      -0.011763961969
  4       0.080922096335
  5      -0.041896504383
  6       0.190261127046
  7      -0.004221185700
  8       0.032015328543
  9      -0.015970748570
 10      -0.059508505130
 11      -0.023275438632
 12       0.058910436674
 13      -0.111465268431
 14      -0.034192464946
 15      -0.062831367526
 16       0.044257053633
 17      -0.144801295925
 18      -0.015401454635
 19      -0.014329050660
 20       0.008151398391
 21      -0.091439381889
 22       0.182819006807
 23      -0.017519829715
 24      -0.063883890270
 25       0.059204068305
 26       0.177364019827
 27       0.013559469056
 28      -0.008605392117
 29       0.019108428171
 30       0.031129379422
 31      -0.065028908365
 32       0.195045732893
 33       0.031960176414
 34       0.096535816429
 35      -0.054272979514
 36       0.047086683247
 37       0.008279015395
 38       0.022854930488
 39       0.086352559112
 40      -0.176380766647
 41      -0.023801142289
 42       0.152164874378
 43      -0.083852741951
 44      -0.162614185023
 45      -0.002080856931
 46       0.050500321734
 47      -0.022547583434
 48       0.113261054939
 49       0.048402237468
 50       0.109624620174
 51       0.043246021424
 52      -0.059054410836
 53      -0.023718504909
 54      -0.060555717705
 55      -0.020548587323
 56       0.106331022586
 57       0.043647284223
 58      -0.041194390078
 59      -0.018641664076
 60      -0.108649283240
 61      -0.044672371188
 Sym=     1a
 Ene= -7.16125906609736E-01
 Spin= Alpha
 Occup= 2.000000
  1       0.039775320657
  2      -0.079891511166
  3      -0.060202165717
  4      -0.198556190224
  5       0.013437637457
  6      -0.081190124179
  7      -0.018355866055
  8      -0.065810544622
  9       0.007901558073
 10      -0.080388544278
 11      -0.044656281737
 12       0.022510915859
 13      -0.040164191394
 14       0.015608948637
 15      -0.108853488411
 16       0.103822172947
 17      -0.065179476656
 18       0.008399991174
 19      -0.038982633653
 20       0.037152486806
 21      -0.073577340343
 22       0.149769144210
 23       0.169928822424
 24       0.005591349336
 25       0.076694031877
 26       0.153173019689
 27       0.073213714671
 28      -0.003864435700
 29       0.037264123486
 30       0.077525420813
 31      -0.158659108779
 32       0.030053525035
 33       0.028607754441
 34      -0.026461484491
 35      -0.152063574629
 36       0.031361710965
 37       0.034717162724
 38      -0.017928759177
 39      -0.069672652617
 40       0.141808981323
 41      -0.136242461341
 42      -0.029014111107
 43      -0.121831215906
 44       0.140204599786
 45      -0.054654379327
 46      -0.041907038416
 47      -0.034044896524
 48      -0.041772784756
 49      -0.020136369851
 50      -0.142318399276
 51      -0.087381698992
 52      -0.053428930810
 53      -0.029673235062
 54      -0.005787223129
 55      -0.000009559151
 56       0.152003827920
 57       0.076831654982
 58      -0.100425342776
 59      -0.040799146302
 60       0.142875549202
 61       0.068547707538
 Sym=     1a
 Ene= -6.66554170950525E-01
 Spin= Alpha
 Occup= 2.000000
  1      -0.021503119870
  2       0.042677691486
  3      -0.129258577391
  4       0.090351067720
  5      -0.144881134424
  6       0.061295462513
  7      -0.054986470985
  8       0.022754172392
  9      -0.052335008610
 10      -0.016173556597
 11      -0.010096834006
 12      -0.015990813369
 13       0.028889814043
 14       0.137632997045
 15       0.066432612921
 16       0.008158444364
 17       0.049205157097
 18       0.062392696155
 19       0.022969524397
 20       0.010617914189
 21       0.024073547794
 22      -0.050673565840
 23       0.106191641643
 24      -0.086313673749
 25       0.131700001328
 26      -0.036274060828
 27       0.024668306929
 28      -0.037100269228
 29       0.044477404748
 30      -0.020240420049
 31       0.039040556898
 32      -0.091916135526
 33      -0.231045315494
 34       0.155077649829
 35       0.050090992439
 36      -0.040227960165
 37      -0.097116801114
 38       0.062305943796
 39       0.025571709006
 40      -0.054986848678
 41      -0.124982146104
 42      -0.143187277766
 43      -0.027616852930
 44      -0.047087615519
 45      -0.040943590291
 46      -0.044911439637
 47      -0.006644419524
 48       0.139116480850
 49       0.087210853459
 50      -0.000390835248
 51       0.004966010541
 52       0.029459783378
 53       0.016816346115
 54       0.092572275484
 55       0.056137171564
 56       0.081730233168
 57       0.058099430084
 58       0.187363062859
 59       0.114239797116
 60       0.080976349823
 61       0.059715373034
 Sym=     1a
 Ene= -6.04764924067461E-01
 Spin= Alpha
 Occup= 2.000000
  1       0.006919443714
  2      -0.015160036352
  3      -0.178136595171
  4      -0.102790644603
  5      -0.178989188241
  6      -0.028544349584
  7      -0.079129707467
  8      -0.046571902923
  9      -0.084097176415
 10       0.106092288423
 11       0.071237177013
 12      -0.010119799334
 13       0.019020510097
 14      -0.104713548854
 15       0.030773186883
 16      -0.140821407981
 17       0.031806910371
 18      -0.041899009727
 19       0.013967512184
 20      -0.065906290556
 21      -0.003351698363
 22       0.009559956067
 23      -0.241515597735
 24      -0.033612974069
 25      -0.130696253432
 26      -0.001577359028
 27      -0.095718086931
 28      -0.006973210677
 29      -0.061470258648
 30      -0.009856781133
 31       0.021843792228
 32       0.228892627716
 33       0.039772110597
 34       0.045918049854
 35      -0.008101561309
 36       0.067216357532
 37      -0.002581487329
 38       0.013949157918
 39       0.013765450802
 40      -0.031845612235
 41      -0.126339553468
 42      -0.060219665026
 43      -0.149712617008
 44      -0.022949433369
 45      -0.037518237208
 46      -0.013514142911
 47      -0.059268152434
 48       0.135333848263
 49       0.093880169211
 50      -0.141333019123
 51      -0.091415848754
 52       0.005813130612
 53      -0.000616926655
 54      -0.059801022907
 55      -0.049443642068
 56      -0.131781148019
 57      -0.092383091195
 58      -0.033834134272
 59      -0.031313238101
 60       0.087400158260
 61       0.069323344810
 Sym=     1a
 Ene= -5.85154085092593E-01
 Spin= Alpha
 Occup= 2.000000
  1      -0.007266771345
  2       0.019460186137
  3       0.042866882008
  4      -0.284330013602
  5       0.160607155859
  6      -0.016802035338
  7       0.011269167140
  8      -0.101506013976
  9       0.056707341191
 10       0.018078395186
 11       0.010427434427
 12      -0.006047516546
 13       0.006422977162
 14       0.118540532096
 15       0.178654484638
 16      -0.060685986868
 17       0.036528683095
 18       0.050705441547
 19       0.074890946024
 20      -0.022624788472
 21       0.024798100384
 22      -0.050701841338
 23      -0.108222705579
 24      -0.142598490401
 25       0.120574465821
 26      -0.085526804384
 27      -0.040331649117
 28      -0.056275339613
 29       0.054521405714
 30      -0.009458972640
 31       0.018466898246
 32       0.105409407709
 33      -0.044502573539
 34       0.167639597810
 35       0.019262052940
 36       0.038572679725
 37      -0.017941026607
 38       0.072681275970
 39      -0.008118592719
 40       0.019215577133
 41      -0.037048478260
 42       0.308470177318
 43      -0.122457652552
 44      -0.003589780687
 45      -0.005423160383
 46       0.111271256628
 47      -0.032451445166
 48      -0.115108378627
 49      -0.090594606022
 50      -0.092197711531
 51      -0.067586281007
 52       0.070087498957
 53       0.052667593753
 54       0.074683974221
 55       0.055234046364
 56       0.022896489512
 57       0.019542834352
 58       0.073660172902
 59       0.051475932182
 60      -0.097147949197
 61      -0.072643074545
 Sym=     1a
 Ene= -5.67165300891442E-01
 Spin= Alpha
 Occup= 2.000000
  1      -0.005342704328
  2       0.010909529125
  3       0.030210195905
  4      -0.019882932993
  5       0.008917680483
  6       0.014591730289
  7       0.015993985588
  8      -0.003529210826
  9      -0.004199708551
 10       0.132392804428
 11       0.103059046065
 12      -0.000490924173
 13       0.001904761226
 14       0.194428367237
 15      -0.254483446152
 16      -0.266345450803
 17       0.000632126641
 18       0.096019465179
 19      -0.130203669034
 20      -0.135287699177
 21       0.005474794931
 22      -0.008912254164
 23       0.057743711846
 24      -0.099353062975
 25      -0.066637223477
 26      -0.031083786347
 27       0.037184520433
 28      -0.046692739529
 29      -0.030819537649
 30      -0.003147683810
 31       0.004034873653
 32       0.014510338238
 33      -0.046438085459
 34      -0.051968938280
 35       0.023980646769
 36       0.022509221099
 37      -0.021605708185
 38      -0.034976990548
 39       0.000680028360
 40      -0.001628434344
 41       0.051604931500
 42       0.034512064915
 43      -0.006828598995
 44      -0.002646653002
 45       0.024631410974
 46       0.015613135310
 47      -0.004139624768
 48      -0.012796552635
 49      -0.012251481973
 50      -0.000503313444
 51      -0.010581050828
 52      -0.254745925641
 53      -0.198519110700
 54       0.137462173635
 55       0.107220949471
 56       0.012447377236
 57       0.010828429258
 58       0.004131165996
 59       0.006745092479
 60      -0.038042521212
 61      -0.028500199858
 Sym=     1a
 Ene= -5.39862239775880E-01
 Spin= Alpha
 Occup= 2.000000
  1      -0.010308747335
  2       0.022985799176
  3      -0.146730648155
  4      -0.075582943078
  5      -0.107047484091
  6       0.008191787100
  7      -0.092563537411
  8      -0.035446374147
  9      -0.064422926926
 10      -0.188172850986
 11      -0.147256843624
 12      -0.005516282450
 13       0.014079286032
 14       0.224174635971
 15      -0.057871798279
 16       0.218935637604
 17      -0.005139870706
 18       0.135673574829
 19      -0.026112715216
 20       0.118496059647
 21       0.007758510838
 22      -0.015205451877
 23      -0.068526736469
 24       0.090829450170
 25      -0.097156045378
 26      -0.016797239759
 27      -0.042972980818
 28       0.058700260904
 29      -0.063263715946
 30      -0.035430354557
 31       0.079294774445
 32      -0.011854626672
 33       0.102839553297
 34      -0.073722910156
 35       0.072371079180
 36      -0.012348543935
 37       0.023710407094
 38      -0.012591380698
 39       0.007963830791
 40      -0.014495996358
 41       0.107688210298
 42       0.085630209716
 43       0.078373340235
 44      -0.016644188526
 45       0.070196513215
 46       0.063371470219
 47       0.048008380526
 48       0.127947245635
 49       0.091934593282
 50      -0.118745360962
 51      -0.090762623819
 52      -0.012401350283
 53      -0.012404017722
 54       0.169311084610
 55       0.130927588451
 56      -0.110949184333
 57      -0.076201444631
 58      -0.035515141366
 59      -0.045024121399
 60      -0.117491251826
 61      -0.080069881952
 Sym=     1a
 Ene= -5.06903507543791E-01
 Spin= Alpha
 Occup= 2.000000
  1       0.011927196827
  2      -0.027053624559