[Molden Format]
[Title]
 Molden file created by orca_2mkl for BaseName=h-shift_030

[Atoms] AU
C    1   6          0.0683419456         0.0228241122        -0.2393697197 
H    2   1          2.0328785577         0.0090026553        -0.8125538917 
C    3   6          4.7923832701         0.0390058371         2.7959820960 
C    4   6          3.7947666084        -2.1799899578         3.4394697494 
C    5   6          1.1585022756        -3.0244405369         3.2054895286 
C    6   6         -0.4547002332        -2.1824957347         1.4623400023 
H    7   1         -1.0978552948         0.0346046650        -1.9123291482 
H    8   1         -0.2382339943         1.7909898332         0.7594658154 
H    9   1          3.6901475902         1.6746488437         2.3530775333 
H   10   1          6.7991061285         0.2688192117         2.6375021035 
H   11   1          5.0735877470        -3.6507562489         4.0179621621 
H   12   1          0.6227573577        -4.6224950010         4.3456501224 
H   13   1         -2.2123552973        -3.1691141903         1.1916839768 
[GTO]
  1 0
s   6 1.0 
     3047.5249000000         0.5363343823
      457.3695100000         0.9894506076
      103.9486900000         1.5972822308
       29.2101550000         2.0791870615
        9.2866630000         1.7741742532
        3.1639270000         0.6125798260
s   3 1.0 
        7.8682724000        -0.3995563516
        1.8812885000        -0.1841552393
        0.5442493000         0.5163903794
p   3 1.0 
        7.8682724000         1.2960827175
        1.8812885000         0.9937536282
        0.5442493000         0.4959527138
s   1 1.0 
        0.1687144000         0.1876178721
p   1 1.0 
        0.1687144000         0.1541275509

  2 0
s   3 1.0 
       18.7311370000         0.2149354183
        2.8253937000         0.3645711272
        0.6401217000         0.4150514277
s   1 1.0 
        0.1612778000         0.1813806839

  3 0
s   6 1.0 
     3047.5249000000         0.5363343823
      457.3695100000         0.9894506076
      103.9486900000         1.5972822308
       29.2101550000         2.0791870615
        9.2866630000         1.7741742532
        3.1639270000         0.6125798260
s   3 1.0 
        7.8682724000        -0.3995563516
        1.8812885000        -0.1841552393
        0.5442493000         0.5163903794
p   3 1.0 
        7.8682724000         1.2960827175
        1.8812885000         0.9937536282
        0.5442493000         0.4959527138
s   1 1.0 
        0.1687144000         0.1876178721
p   1 1.0 
        0.1687144000         0.1541275509

  4 0
s   6 1.0 
     3047.5249000000         0.5363343823
      457.3695100000         0.9894506076
      103.9486900000         1.5972822308
       29.2101550000         2.0791870615
        9.2866630000         1.7741742532
        3.1639270000         0.6125798260
s   3 1.0 
        7.8682724000        -0.3995563516
        1.8812885000        -0.1841552393
        0.5442493000         0.5163903794
p   3 1.0 
        7.8682724000         1.2960827175
        1.8812885000         0.9937536282
        0.5442493000         0.4959527138
s   1 1.0 
        0.1687144000         0.1876178721
p   1 1.0 
        0.1687144000         0.1541275509

  5 0
s   6 1.0 
     3047.5249000000         0.5363343823
      457.3695100000         0.9894506076
      103.9486900000         1.5972822308
       29.2101550000         2.0791870615
        9.2866630000         1.7741742532
        3.1639270000         0.6125798260
s   3 1.0 
        7.8682724000        -0.3995563516
        1.8812885000        -0.1841552393
        0.5442493000         0.5163903794
p   3 1.0 
        7.8682724000         1.2960827175
        1.8812885000         0.9937536282
        0.5442493000         0.4959527138
s   1 1.0 
        0.1687144000         0.1876178721
p   1 1.0 
        0.1687144000         0.1541275509

  6 0
s   6 1.0 
     3047.5249000000         0.5363343823
      457.3695100000         0.9894506076
      103.9486900000         1.5972822308
       29.2101550000         2.0791870615
        9.2866630000         1.7741742532
        3.1639270000         0.6125798260
s   3 1.0 
        7.8682724000        -0.3995563516
        1.8812885000        -0.1841552393
        0.5442493000         0.5163903794
p   3 1.0 
        7.8682724000         1.2960827175
        1.8812885000         0.9937536282
        0.5442493000         0.4959527138
s   1 1.0 
        0.1687144000         0.1876178721
p   1 1.0 
        0.1687144000         0.1541275509

  7 0
s   3 1.0 
       18.7311370000         0.2149354183
        2.8253937000         0.3645711272
        0.6401217000         0.4150514277
s   1 1.0 
        0.1612778000         0.1813806839

  8 0
s   3 1.0 
       18.7311370000         0.2149354183
        2.8253937000         0.3645711272
        0.6401217000         0.4150514277
s   1 1.0 
        0.1612778000         0.1813806839

  9 0
s   3 1.0 
       18.7311370000         0.2149354183
        2.8253937000         0.3645711272
        0.6401217000         0.4150514277
s   1 1.0 
        0.1612778000         0.1813806839

 10 0
s   3 1.0 
       18.7311370000         0.2149354183
        2.8253937000         0.3645711272
        0.6401217000         0.4150514277
s   1 1.0 
        0.1612778000         0.1813806839

 11 0
s   3 1.0 
       18.7311370000         0.2149354183
        2.8253937000         0.3645711272
        0.6401217000         0.4150514277
s   1 1.0 
        0.1612778000         0.1813806839

 12 0
s   3 1.0 
       18.7311370000         0.2149354183
        2.8253937000         0.3645711272
        0.6401217000         0.4150514277
s   1 1.0 
        0.1612778000         0.1813806839

 13 0
s   3 1.0 
       18.7311370000         0.2149354183
        2.8253937000         0.3645711272
        0.6401217000         0.4150514277
s   1 1.0 
        0.1612778000         0.1813806839

[5D]
[7F]
[9G]
[MO]
 Sym=     1a
 Ene= -1.12361568699041E+01
 Spin= Alpha
 Occup= 2.000000
  1       0.013611084077
  2      -0.000037598608
  3       0.000032431919
  4       0.000166753285
  5      -0.000051109047
  6       0.003421391000
  7      -0.000181440090
  8      -0.002157916897
  9       0.001394343996
 10      -0.000222498921
 11       0.000435219758
 12       0.015742524414
 13       0.000144913012
 14       0.000054758428
 15       0.000035650698
 16      -0.000037148899
 17       0.001898636374
 18      -0.000748854835
 19      -0.000462883956
 20       0.000216054481
 21       0.297142336855
 22       0.007235338023
 23       0.000143195623
 24       0.000095986135
 25       0.000001278924
 26      -0.005538062729
 27       0.000577523003
 28      -0.000748295051
 29       0.000409548868
 30       0.107139082530
 31       0.001556752396
 32       0.000066152034
 33      -0.000140253197
 34       0.000150502182
 35       0.006109616270
 36      -0.000246081638
 37       0.002229777983
 38      -0.002214006454
 39       0.944474504762
 40       0.023498057689
 41       0.000112868288
 42       0.000052692552
 43       0.000044073690
 44      -0.016434291616
 45      -0.001958513955
 46      -0.001065952343
 47      -0.000163432157
 48      -0.000082351438
 49       0.000157287615
 50      -0.000189213300
 51       0.000834509607
 52      -0.000069945495
 53      -0.000438889847
 54      -0.000020327892
 55       0.000216064315
 56      -0.000086690721
 57       0.000623787066
 58      -0.000077766657
 59       0.000848994401
 60      -0.000236041793
 61       0.002085599806
 Sym=     1a
 Ene= -1.12360573266729E+01
 Spin= Alpha
 Occup= 2.000000
  1       0.004575147486
  2       0.000020129110
  3       0.000012838177
  4      -0.000004636558
  5       0.000042750123
  6       0.001231181814
  7       0.000355499375
  8      -0.000512560523
  9       0.000264831859
 10       0.000036366216
 11      -0.000487272639
 12      -0.051737184990
 13      -0.000526324918
 14      -0.000077024969
 15      -0.000181058235
 16       0.000098502968
 17      -0.004987540041
 18       0.001720742455
 19       0.001960709167
 20      -0.000555848589
 21      -0.948177615751
 22      -0.023796637880
 23       0.000103931616
 24      -0.000094466991
 25       0.000154024686
 26       0.016256385594
 27      -0.001052192748
 28       0.001360057898
 29      -0.000862010827
 30      -0.013288937405
 31      -0.000052340839
 32       0.000205634516
 33       0.000020689982
 34       0.000081647648
 35      -0.001618280339
 36      -0.002457171292
 37      -0.000535925563
 38      -0.000932581745
 39       0.300672859818
 40       0.007798129570
 41       0.000232926610
 42      -0.000016520077
 43       0.000090501215
 44      -0.005470877322
 45      -0.001353494522
 46      -0.000029005447
 47      -0.000439413791
 48      -0.000026912899
 49       0.000066863054
 50      -0.000078504796
 51       0.000320980223
 52       0.000259706440
 53       0.000039382849
 54       0.000080832322
 55      -0.000450245654
 56       0.000235126642
 57      -0.002081634452
 58       0.000061818829
 59      -0.000088356046
 60      -0.000131094614
 61       0.000214971402
 Sym=     1a
 Ene= -1.12277815670250E+01
 Spin= Alpha
 Occup= 2.000000
  1       0.002921323130
  2       0.000073297223
  3      -0.000019689069
  4      -0.000103679235
  5       0.000142629303
  6       0.001691316961
  7       0.000213891457
  8      -0.000646784590
  9       0.000293102278
 10      -0.000045647353
 11      -0.000174097497
 12       0.006653139754
 13       0.000298424512
 14      -0.000152442890
 15      -0.000118433339
 16       0.000062863112
 17       0.000877635334
 18      -0.000043388839
 19       0.000016682192
 20      -0.000260567693
 21       0.044869171040
 22       0.001762962424
 23      -0.000165292144
 24      -0.000040757455
 25      -0.000037024210
 26      -0.006141994923
 27       0.002867016323
 28       0.000004221020
 29       0.000963350022
 30      -0.990295812868
 31      -0.025153204438
 32      -0.000111487525
 33      -0.000152873545
 34       0.000281611516
 35       0.019578299859
 36       0.000912797792
 37       0.002565706596
 38      -0.002667666588
 39       0.098737416325
 40       0.003480541914
 41       0.000193176014
 42      -0.000023900291
 43       0.000139147425
 44      -0.009373219084
 45      -0.003388642656
 46      -0.000174550846
 47      -0.001607152475
 48      -0.000062701386
 49      -0.000189166819
 50      -0.000005571978
 51       0.000142024704
 52       0.000032343429
 53      -0.000266784319
 54      -0.000050737035
 55      -0.000312395541
 56       0.000079715599
 57      -0.000354091788
 58       0.000291869612
 59      -0.001682586722
 60       0.000019478395
 61      -0.000314891470
 Sym=     1a
 Ene= -1.12208695948027E+01
 Spin= Alpha
 Occup= 2.000000
  1       0.000419577589
  2       0.000068313118
  3       0.000021568857
  4       0.000010152716
  5       0.000140851460
  6       0.000033939132
  7       0.000391902055
  8       0.000099465662
  9      -0.001001806774
 10       0.000161975783
 11      -0.001387394696
 12      -0.994651906734
 13      -0.024923994186
 14       0.000107325525
 15       0.000210806639
 16       0.000055974962
 17       0.016787075681
 18      -0.001021713618
 19      -0.001687075577
 20       0.000116250342
 21       0.054896654302
 22       0.002197027375
 23       0.000125805384
 24       0.000279849833
 25      -0.000053681398
 26      -0.006854651412
 27      -0.001171933285
 28      -0.002772104664
 29       0.000843302544
 30      -0.004225392664
 31      -0.000013063977
 32       0.000113494792
 33       0.000082057605
 34       0.000001148373
 35       0.000385349365
 36      -0.000359083848
 37      -0.000065150259
 38      -0.000093621870
 39      -0.000051383447
 40      -0.000056476510
 41       0.000041900348
 42       0.000018476734
 43       0.000012297617
 44       0.000363728292
 45       0.000038588580
 46       0.000497111736
 47      -0.000302003337
 48      -0.000049542101
 49      -0.000370187870
 50       0.000005900087
 51       0.000577323036
 52       0.000102180011
 53      -0.002729628457
 54       0.000206167945
 55      -0.002664558575
 56       0.000116532307
 57       0.000003103973
 58      -0.000038492444
 59      -0.000240115473
 60       0.000010173850
 61       0.000057445160
 Sym=     1a
 Ene= -1.12137189845281E+01
 Spin= Alpha
 Occup= 2.000000
  1       0.996095596792
  2       0.026175678347
  3       0.000007635639
  4      -0.000005938921
  5       0.000118233869
  6      -0.019252797511
  7       0.000007722302
  8       0.000729487978
  9      -0.000891356054
 10       0.000073959199
 11       0.003314316255
 12       0.000417763294
 13      -0.000051726680
 14       0.000153821957
 15      -0.000014742275
 16      -0.000001476715
 17       0.000313422115
 18      -0.000905038346
 19      -0.000235671493
 20       0.000152651655
 21       0.000148905323
 22       0.000007692144
 23       0.000051984216
 24      -0.000044607322
 25       0.000044049534
 26      -0.000602084752
 27       0.000027484038
 28      -0.000401237074
 29       0.000166133372
 30       0.001490987916
 31      -0.000171071102
 32       0.000049248247
 33      -0.000088623964
 34       0.000112262865
 35       0.000693507566
 36      -0.000407559950
 37       0.000446248413
 38      -0.000617862666
 39      -0.014738723909
 40      -0.000794709592
 41      -0.000007309055
 42      -0.000104658511
 43       0.000106407036
 44       0.004074045324
 45       0.000102965596
 46       0.002186262650
 47      -0.001952101118
 48       0.000030588556
 49       0.003075726642
 50       0.000074109260
 51       0.003338028392
 52      -0.000036766707
 53      -0.000161162214
 54       0.000079069829
 55       0.000531862297
 56      -0.000022474492
 57      -0.000011314869
 58       0.000035823803
 59       0.000461854913
 60      -0.000144990206
 61       0.000017725295
 Sym=     1a
 Ene= -1.10256403155352E+00
 Spin= Alpha
 Occup= 2.000000
  1      -0.070187695836
  2       0.129750310560
  3       0.001905029055
  4      -0.032907809701
  5       0.030275820023
  6       0.124238179605
  7       0.008488719206
  8      -0.003928094924
  9       0.011714982267
 10       0.040599815379
 11       0.000751364143
 12      -0.074471303582
 13       0.145099333683
 14      -0.033969351450
 15      -0.054938585323
 16       0.011629452360
 17       0.099269486364
 18       0.000838209725
 19      -0.002919958583
 20      -0.001835581196
 21      -0.109538116166
 22       0.217028670631
 23      -0.032062054951
 24       0.026878254653
 25      -0.023427164010
 26       0.138101833453
 27      -0.006306930339
 28       0.000117669738
 29      -0.003218914291
 30      -0.125186871379
 31       0.246856722752
 32       0.000223551133
 33       0.040833837280
 34      -0.051267339979
 35       0.162981708024
 36       0.003995269501
 37       0.003473503462
 38      -0.003823391127
 39      -0.114079668106
 40       0.226513630769
 41       0.060808913629
 42      -0.002364059012
 43       0.035530380046
 44       0.136035676229
 45      -0.003587629205
 46      -0.004202923934
 47       0.001297252837
 48       0.032161733007
 49       0.005771791295
 50       0.035806428072
 51       0.000131713252
 52       0.039494679487
 53       0.006768439874
 54       0.032554688598
 55       0.001296539966
 56       0.052628204731
 57       0.008246315892
 58       0.057720179597
 59       0.007671529762
 60       0.052440542205
 61       0.004034079626
 Sym=     1a
 Ene= -1.01957745808299E+00
 Spin= Alpha
 Occup= 2.000000
  1      -0.098703712977
  2       0.187935228913
  3      -0.010980870333
  4      -0.031215044419
  5       0.023538007744
  6       0.175150356518
  7      -0.003111436921
  8      -0.001053093068
  9       0.001724018056
 10       0.051800792575
 11       0.005206151071
 12       0.122817932859
 13      -0.240841422772
 14       0.025639219057
 15       0.078637816926
 16      -0.023066707719
 17      -0.187060993388
 18       0.004421319873
 19       0.003259898337
 20      -0.000936564787
 21       0.116986273075
 22      -0.233620072800
 23      -0.056306869437
 24      -0.075393039731
 25       0.018576328139
 26      -0.162661661764
 27      -0.011629164079
 28       0.004876108091
 29      -0.003529668083
 30      -0.020635695297
 31       0.040952715700
 32      -0.096668370904
 33       0.004393121089
 34      -0.054247462277
 35       0.025251258733
 36      -0.013403218577
 37      -0.011673380164
 38       0.001156242015
 39      -0.101238564303
 40       0.201084019623
 41       0.013889235878
 42       0.021863472226
 43      -0.012569896700
 44       0.149148634464
 45       0.003932937555
 46       0.005623870282
 47      -0.002992510162
 48       0.058578027098
 49       0.008849638308
 50       0.057033044133
 51       0.005440933225
 52      -0.062008090469
 53      -0.005803920476
 54      -0.070551890061
 55      -0.016332441041
 56      -0.069826404910
 57      -0.011966166203
 58       0.010077453507
 59      -0.003676057381
 60       0.062170041461
 61       0.016589553397
 Sym=     1a
 Ene= -9.41814324160532E-01
 Spin= Alpha
 Occup= 2.000000
  1       0.138747071939
  2      -0.260609933895
  3      -0.003047500355
  4      -0.021105299353
  5       0.015410201949
  6      -0.294576511120
  7      -0.004013445295
  8      -0.001938459804
  9      -0.004158811947
 10      -0.100059079883
 11      -0.021809531785
 12       0.078764191171
 13      -0.153689465966
 14       0.002597359148
 15       0.009526840956
 16       0.000503163239
 17      -0.136799013312
 18       0.003907726765
 19      -0.001867989908
 20       0.004692530712
 21       0.000725178453
 22      -0.000417427676
 23      -0.095087092113
 24      -0.088879110542
 25       0.015680964322
 26       0.002593456067
 27      -0.019853290030
 28      -0.005625418300
 29      -0.001451173889
 30      -0.119124638223
 31       0.236921718958
 32      -0.032971123547
 33      -0.013938030623
 34      -0.019271942620
 35       0.185451543431
 36      -0.001696739827
 37      -0.015855263161
 38       0.007690840971
 39      -0.029497648757
 40       0.055544685722
 41       0.044757246331
 42      -0.113717689817
 43       0.127807372862
 44       0.073775073033
 45       0.010786417588
 46      -0.008971753094
 47       0.015640275850
 48      -0.100737641145
 49      -0.028079014124
 50      -0.099606520248
 51      -0.024185451909
 52      -0.060996967184
 53      -0.018336475137
 54      -0.057131000019
 55      -0.018322993082
 56       0.004056490732
 57       0.005475586723
 58       0.091080343130
 59       0.025081561340
 60       0.020503442154
 61       0.007350372093
 Sym=     1a
 Ene= -8.12840924026159E-01
 Spin= Alpha
 Occup= 2.000000
  1      -0.061033775520
  2       0.115970186123
  3       0.016081005820
  4       0.065180143949
  5      -0.050387422941
  6       0.147206214123
  7      -0.002965611060
  8       0.015396002936
  9      -0.018006910786
 10       0.057884268232
 11       0.022797410198
 12       0.101880244647
 13      -0.202694919232
 14      -0.041529486065
 15      -0.078850120956
 16       0.023601709402
 17      -0.190400565554
 18      -0.015278352702
 19      -0.031975639850
 20       0.009951128216
 21      -0.085856162983
 22       0.175335799650
 23      -0.077467260151
 24      -0.150770987081
 25       0.038285708301
 26       0.163112322421
 27      -0.019999174045
 28      -0.050262361658
 29       0.013481477888
 30      -0.029167521737
 31       0.060689747819
 32       0.191745244087
 33      -0.023780511873
 34       0.101684139892
 35       0.049860430387
 36       0.044262637692
 37      -0.006826446048
 38       0.024837022735
 39       0.092163807697
 40      -0.184830413447
 41       0.038680782832
 42       0.069490143964
 43      -0.046471606307
 44      -0.179615600422
 45       0.024714898644
 46       0.012755306353
 47       0.000275620229
 48       0.064015344376
 49       0.021515230189
 50       0.060791437448
 51       0.024397613215
 52      -0.108823490564
 53      -0.041684492488
 54      -0.113342076821
 55      -0.048433237497
 56       0.108922627640
 57       0.045322099074
 58       0.038712787901
 59       0.017390274873
 60      -0.108461192902
 61      -0.043668423675
 Sym=     1a
 Ene= -7.19234457327740E-01
 Spin= Alpha
 Occup= 2.000000
  1      -0.019623644513
  2       0.033507267286
  3       0.097223074691
  4       0.111172580599
  5      -0.033204278448
  6       0.058893501029
  7       0.038891027952
  8       0.040295812322
  9      -0.007980796401
 10       0.078223280681
 11       0.042359615243
 12      -0.038217079248
 13       0.076118043641
 14      -0.026302645472
 15       0.196548945137
 16      -0.065229654777
 17       0.080438058095
 18      -0.007359628711
 19       0.063593357960
 20      -0.024698552026
 21       0.069964185199
 22      -0.141923609311
 23      -0.178143270044
 24       0.024592236816
 25      -0.026518624149
 26      -0.141326957090
 27      -0.058676136516
 28       0.037941764885
 29      -0.018755637705
 30      -0.078480310548
 31       0.160377825612
 32      -0.006375542198
 33      -0.031088235071
 34       0.040816614481
 35       0.157529929903
 36       0.001747657188
 37      -0.034872159986
 38       0.034246695166
 39       0.073854803816
 40      -0.150245671293
 41       0.153772675216
 42       0.000775695024
 43       0.106953129064
 44      -0.156376893000
 45       0.067066766465
 46       0.008320336555
 47       0.041309257655
 48       0.000887065964
 49      -0.001744738026
 50       0.054617684102
 51       0.029506364092
 52       0.142255345327
 53       0.087083049910
 54       0.039634026265
 55       0.019464487395
 56      -0.139950853230
 57      -0.067405823027
 58       0.103099382456
 59       0.041954585220
 60      -0.151708634195
 61      -0.076432255208
 Sym=     1a
 Ene= -6.68505933707498E-01
 Spin= Alpha
 Occup= 2.000000
  1      -0.017721226723
  2       0.033071391459
  3      -0.085530672697
  4       0.068941350394
  5      -0.114353088979
  6       0.051947450175
  7      -0.044315704410
  8       0.023998366076
  9      -0.049725331879
 10      -0.015677338852
 11      -0.010279505912
 12      -0.021836382824
 13       0.043406235302
 14       0.188460934727
 15       0.082971666172
 16      -0.009859929251
 17       0.061215212619
 18       0.072236157083
 19       0.020363431374
 20       0.002769866672
 21       0.024495273279
 22      -0.052027750367
 23       0.099623813705
 24      -0.137642813651
 25       0.081255704080
 26      -0.046423344052
 27       0.032077986391
 28      -0.043587222989
 29       0.028786914904
 30      -0.021263515270
 31       0.040823936818
 32      -0.063415301473
 33      -0.233745141577
 34       0.167125906759
 35       0.057098321380
 36      -0.023592450939
 37      -0.097584869412
 38       0.067841359281
 39       0.022823429980
 40      -0.047540734107
 41      -0.167731395743
 42      -0.093797766239
 43      -0.023887728134
 44      -0.033565055404
 45      -0.052454354988
 46      -0.037961930450
 47       0.000391795580
 48       0.099337078981
 49       0.059217449815
 50       0.025687873219
 51       0.015115529321
 52       0.002595232885
 53       0.007291741179
 54       0.134262043783
 55       0.084373052012
 56       0.080081622331
 57       0.058393451472
 58       0.188120118131
 59       0.113903806451
 60       0.084455038932
 61       0.058858398751
 Sym=     1a
 Ene= -6.01438382378024E-01
 Spin= Alpha
 Occup= 2.000000
  1       0.011037246154
  2      -0.021500210624
  3      -0.152519981357
  4      -0.026722143896
  5      -0.027301793236
  6      -0.030282178923
  7      -0.065288530503
  8      -0.013877610515
  9      -0.004039864420
 10      -0.088241091254
 11      -0.059905563392
 12      -0.008065435371
 13       0.017897329384
 14      -0.269641504610
 15       0.099390208612
 16       0.000293665278
 17       0.031409417046
 18      -0.123870462369
 19       0.047342216935
 20       0.002416198037
 21      -0.016572870960
 22       0.038350688998
 23      -0.188574719751
 24       0.079789244641
 25      -0.001144523283
 26       0.025763116937
 27      -0.066059058664
 28       0.019629679581
 29       0.012225109114
 30       0.009718652630
 31      -0.022257530586
 32       0.160993495746
 33      -0.035373963313
 34       0.156854435114
 35       0.013897459935
 36       0.049094177440
 37       0.007745983592
 38       0.042681614738
 39       0.003359171723
 40      -0.009007742853
 41      -0.241109519151
 42       0.006079787188
 43      -0.130622114699
 44      -0.004455549790
 45      -0.109236671266
 46      -0.006882564575
 47      -0.048316423844
 48       0.058909157461
 49       0.050489336254
 50      -0.014563967267
 51      -0.004814588541
 52       0.142776553557
 53       0.092079146954
 54      -0.148975439699
 55      -0.104253655690
 56      -0.090417138117
 57      -0.072930653518
 58       0.035019857324
 59       0.034389351976
 60       0.137409133036
 61       0.094980458489
 Sym=     1a
 Ene= -5.84425248789398E-01
 Spin= Alpha
 Occup= 2.000000
  1      -0.007287188711
  2       0.009254109130
  3      -0.013723274951
  4       0.182845348069
  5      -0.118838422100
  6       0.038243582268
  7      -0.008973083238
  8       0.076489133387
  9      -0.049110860910
 10       0.015116913613
 11       0.008512909393
 12      -0.007121601739
 13       0.019113203162
 14      -0.142114951354
 15      -0.282350900426
 16       0.096050638948
 17      -0.017207005232
 18      -0.046948360411
 19      -0.102029569741
 20       0.037495202955
 21      -0.007496979196
 22       0.018027016706
 23       0.129831476378
 24       0.305335035676
 25      -0.060696911642
 26      -0.004779916887
 27       0.032850243002
 28       0.110804169928
 29      -0.020299204983
 30      -0.011405063486
 31       0.023022919697
 32      -0.207289039221
 33      -0.049812724566
 34       0.000982544841
 35       0.023422322713
 36      -0.084843711520
 37      -0.021793501076
 38       0.007442582668
 39       0.023863025856
 40      -0.048405491550
 41      -0.018637217298
 42      -0.139535736102
 43       0.161776294387
 44      -0.083125723534
 45      -0.013085282104
 46      -0.053840439567
 47       0.065444204015
 48       0.075425134478
 49       0.055155854083
 50       0.070337373078
 51       0.053256080922
 52      -0.100180743110
 53      -0.072582044056
 54      -0.108170164408
 55      -0.085138123318
 56      -0.092978885219
 57      -0.069117848462
 58       0.073326565158
 59       0.050510749856
 60       0.009154795348
 61       0.009943830081
 Sym=     1a
 Ene= -5.67811600691401E-01
 Spin= Alpha
 Occup= 2.000000
  1       0.000436570370
  2      -0.001801075048
  3      -0.139871066907
  4       0.228722797360
  5       0.314700347898
  6      -0.000985694125
  7      -0.070056074134
  8       0.117768918556
  9       0.157848629550
 10      -0.152707628991
 11      -0.120786855774
 12       0.003991560770
 13      -0.007579339179
 14       0.022501862649
 15       0.028155698577
 16       0.022016526002
 17      -0.010479145430
 18       0.004335144273
 19       0.007255137952
 20       0.019232899536
 21      -0.001559557660
 22       0.004197123346
 23       0.024794615690
 24      -0.032092358533
 25       0.053546869345
 26       0.004836029212
 27       0.012082985331
 28      -0.017086781920
 29       0.028837613596
 30       0.003155236550
 31      -0.004361707043
 32      -0.032933854476
 33       0.045331898197
 34       0.049130708039
 35      -0.018964624235
 36      -0.018399001107
 37       0.023668750980
 38       0.039306675185
 39      -0.006475983231
 40       0.011368798815
 41      -0.034286037192
 42       0.106265347082
 43       0.078933143045
 44       0.029805543867
 45      -0.012231114874
 46       0.050745542094
 47       0.044065964578
 48      -0.119318846290
 49      -0.091381694150
 50       0.249124813857
 51       0.194350323943
 52       0.007594815020
 53       0.016365971068
 54       0.011089253810
 55       0.011609327490
 56       0.038896402521
 57       0.027826243216
 58      -0.002634924013
 59      -0.004654158028
 60      -0.013455409392
 61      -0.011077607421
 Sym=     1a
 Ene= -5.43465592569456E-01
 Spin= Alpha
 Occup= 2.000000
  1      -0.006409062395
  2       0.017074950280
  3      -0.305178650584
  4      -0.071478911468
  5      -0.079415266937
  6      -0.010213509847
  7      -0.172460681960
  8      -0.032304137765
  9      -0.057262340702
 10      -0.181800437858
 11      -0.140513810049
 12      -0.014210546836
 13       0.031268318940
 14       0.163627972879
 15      -0.068233891600
 16       0.030077320102
 17       0.018622261491
 18       0.103059086061
 19      -0.031065608332
 20       0.022140326817
 21       0.007857633045
 22      -0.014671471210
 23      -0.141939538614
 24       0.088210795676
 25      -0.039933597557
 26      -0.013181914769
 27      -0.087681865956
 28       0.064790300026
 29      -0.025566537607
 30      -0.034936075995
 31       0.077694413561
 32       0.073446411838
 33       0.103272381417
 34      -0.020371756897
 35       0.071172991078
 36       0.017408474105
 37       0.023440648422
 38       0.006964502062
 39       0.007944201351
 40      -0.016149447096
 41       0.102654560320
 42       0.107622982415
 43      -0.001688454193
 44      -0.014004760300
 45       0.070881311001
 46       0.071046514877
 47       0.000102162291
 48       0.175917767410
 49       0.134451485661
 50      -0.033148953277
 51      -0.026483956401
 52      -0.105234447593
 53      -0.081722705491
 54       0.124665555264
 55       0.088202914372
 56      -0.124933881053
 57      -0.085218895707
 58      -0.031497009208
 59      -0.040836760818
 60      -0.106781752840
 61      -0.069390398962
 Sym=     1a
 Ene= -5.07603652517342E-01
 Spin= Alpha
 Occup= 2.000000
  1       0.017161249596
  2      -0.038082943065