[Molden Format]
[Title]
 Molden file created by orca_2mkl for BaseName=h-shift_059

[Atoms] AU
C    1   6         -0.6382890168         0.0503328556         0.0723802904 
H    2   1          3.6986740345        -0.0207435238         0.1082189465 
C    3   6          4.4966203432         0.0281644783         1.9932850158 
C    4   6          3.5152609954        -2.1886656905         3.4538278885 
C    5   6          1.1373940347        -3.0124747910         3.2686309480 
C    6   6         -0.6173943149        -2.1509354185         1.2979999691 
H    7   1         -1.5555016110         0.2312155514        -1.7258226274 
H    8   1          0.3142690150         1.7074299230         0.7281417150 
H    9   1          3.8782036864         1.7974848219         2.8312935185 
H   10   1          6.5274390995         0.0688956354         1.8396011482 
H   11   1          4.8417372476        -3.2274859408         4.5945043775 
H   12   1          0.5715722356        -4.6474771805         4.3423714475 
H   13   1         -1.8266319578        -3.6248084194         0.5958004144 
[GTO]
  1 0
s   6 1.0 
     3047.5249000000         0.5363343823
      457.3695100000         0.9894506076
      103.9486900000         1.5972822308
       29.2101550000         2.0791870615
        9.2866630000         1.7741742532
        3.1639270000         0.6125798260
s   3 1.0 
        7.8682724000        -0.3995563516
        1.8812885000        -0.1841552393
        0.5442493000         0.5163903794
p   3 1.0 
        7.8682724000         1.2960827175
        1.8812885000         0.9937536282
        0.5442493000         0.4959527138
s   1 1.0 
        0.1687144000         0.1876178721
p   1 1.0 
        0.1687144000         0.1541275509

  2 0
s   3 1.0 
       18.7311370000         0.2149354183
        2.8253937000         0.3645711272
        0.6401217000         0.4150514277
s   1 1.0 
        0.1612778000         0.1813806839

  3 0
s   6 1.0 
     3047.5249000000         0.5363343823
      457.3695100000         0.9894506076
      103.9486900000         1.5972822308
       29.2101550000         2.0791870615
        9.2866630000         1.7741742532
        3.1639270000         0.6125798260
s   3 1.0 
        7.8682724000        -0.3995563516
        1.8812885000        -0.1841552393
        0.5442493000         0.5163903794
p   3 1.0 
        7.8682724000         1.2960827175
        1.8812885000         0.9937536282
        0.5442493000         0.4959527138
s   1 1.0 
        0.1687144000         0.1876178721
p   1 1.0 
        0.1687144000         0.1541275509

  4 0
s   6 1.0 
     3047.5249000000         0.5363343823
      457.3695100000         0.9894506076
      103.9486900000         1.5972822308
       29.2101550000         2.0791870615
        9.2866630000         1.7741742532
        3.1639270000         0.6125798260
s   3 1.0 
        7.8682724000        -0.3995563516
        1.8812885000        -0.1841552393
        0.5442493000         0.5163903794
p   3 1.0 
        7.8682724000         1.2960827175
        1.8812885000         0.9937536282
        0.5442493000         0.4959527138
s   1 1.0 
        0.1687144000         0.1876178721
p   1 1.0 
        0.1687144000         0.1541275509

  5 0
s   6 1.0 
     3047.5249000000         0.5363343823
      457.3695100000         0.9894506076
      103.9486900000         1.5972822308
       29.2101550000         2.0791870615
        9.2866630000         1.7741742532
        3.1639270000         0.6125798260
s   3 1.0 
        7.8682724000        -0.3995563516
        1.8812885000        -0.1841552393
        0.5442493000         0.5163903794
p   3 1.0 
        7.8682724000         1.2960827175
        1.8812885000         0.9937536282
        0.5442493000         0.4959527138
s   1 1.0 
        0.1687144000         0.1876178721
p   1 1.0 
        0.1687144000         0.1541275509

  6 0
s   6 1.0 
     3047.5249000000         0.5363343823
      457.3695100000         0.9894506076
      103.9486900000         1.5972822308
       29.2101550000         2.0791870615
        9.2866630000         1.7741742532
        3.1639270000         0.6125798260
s   3 1.0 
        7.8682724000        -0.3995563516
        1.8812885000        -0.1841552393
        0.5442493000         0.5163903794
p   3 1.0 
        7.8682724000         1.2960827175
        1.8812885000         0.9937536282
        0.5442493000         0.4959527138
s   1 1.0 
        0.1687144000         0.1876178721
p   1 1.0 
        0.1687144000         0.1541275509

  7 0
s   3 1.0 
       18.7311370000         0.2149354183
        2.8253937000         0.3645711272
        0.6401217000         0.4150514277
s   1 1.0 
        0.1612778000         0.1813806839

  8 0
s   3 1.0 
       18.7311370000         0.2149354183
        2.8253937000         0.3645711272
        0.6401217000         0.4150514277
s   1 1.0 
        0.1612778000         0.1813806839

  9 0
s   3 1.0 
       18.7311370000         0.2149354183
        2.8253937000         0.3645711272
        0.6401217000         0.4150514277
s   1 1.0 
        0.1612778000         0.1813806839

 10 0
s   3 1.0 
       18.7311370000         0.2149354183
        2.8253937000         0.3645711272
        0.6401217000         0.4150514277
s   1 1.0 
        0.1612778000         0.1813806839

 11 0
s   3 1.0 
       18.7311370000         0.2149354183
        2.8253937000         0.3645711272
        0.6401217000         0.4150514277
s   1 1.0 
        0.1612778000         0.1813806839

 12 0
s   3 1.0 
       18.7311370000         0.2149354183
        2.8253937000         0.3645711272
        0.6401217000         0.4150514277
s   1 1.0 
        0.1612778000         0.1813806839

 13 0
s   3 1.0 
       18.7311370000         0.2149354183
        2.8253937000         0.3645711272
        0.6401217000         0.4150514277
s   1 1.0 
        0.1612778000         0.1813806839

[5D]
[7F]
[9G]
[MO]
 Sym=     1a
 Ene= -1.12367229832755E+01
 Spin= Alpha
 Occup= 2.000000
  1       0.002102721077
  2       0.000021765818
  3      -0.000007444773
  4      -0.000006646593
  5      -0.000034592182
  6       0.000489846874
  7       0.000054086104
  8       0.000062571110
  9       0.000269526555
 10      -0.000201073328
 11       0.000370719462
 12       0.013380727059
 13      -0.000047271535
 14       0.000009510527
 15       0.000160934389
 16      -0.000056659066
 17       0.003597319379
 18      -0.001013270865
 19      -0.002214878669
 20       0.000999179059
 21       0.989806998414
 22       0.024701213278
 23      -0.000159005642
 24       0.000043576766
 25      -0.000111918510
 26      -0.017246019214
 27       0.001597340609
 28      -0.001039243701
 29       0.001581971436
 30       0.100524583304
 31       0.001523477317
 32      -0.000197261719
 33      -0.000128149402
 34       0.000001554029
 35       0.005364118099
 36       0.002426614059
 37       0.001947609739
 38      -0.000691990263
 39       0.047619213071
 40       0.000951732311
 41      -0.000124407626
 42       0.000077520049
 43      -0.000104017271
 44      -0.001065175063
 45      -0.000245680043
 46      -0.000385712480
 47      -0.000110717353
 48       0.000005352525
 49       0.000094518918
 50       0.000004420698
 51      -0.000402399533
 52      -0.000204136766
 53       0.000867381537
 54      -0.000085242240
 55       0.000166379150
 56      -0.000257762850
 57       0.002071728381
 58      -0.000064590420
 59       0.000768927642
 60      -0.000029128569
 61       0.000062598473
 Sym=     1a
 Ene= -1.12361196608739E+01
 Spin= Alpha
 Occup= 2.000000
  1      -0.052903789332
  2      -0.000551542168
  3      -0.000046115408
  4      -0.000188487234
  5       0.000145010232
  6      -0.005166244432
  7      -0.000492542865
  8       0.002043029994
  9      -0.001869160186
 10       0.000096254232
 11      -0.000638165586
 12       0.000940871923
 13       0.000024733341
 14      -0.000043051653
 15      -0.000052452640
 16       0.000035208027
 17       0.000400555062
 18      -0.000196486520
 19       0.000048902399
 20      -0.000380270196
 21       0.052368570145
 22       0.001636219080
 23      -0.000175971447
 24      -0.000028662341
 25      -0.000101105542
 26      -0.001296184517
 27       0.000873321619
 28       0.000212897062
 29       0.000426092336
 30      -0.043763494330
 31      -0.000550637705
 32      -0.000139721843
 33       0.000053624617
 34      -0.000119161984
 35      -0.002915056898
 36       0.001675005700
 37      -0.001009640167
 38       0.001589558947
 39      -0.992385677727
 40      -0.024854342687
 41      -0.000181259377
 42      -0.000097994817
 43       0.000061206121
 44       0.017077687335
 45       0.001449098530
 46       0.001399833698
 47       0.000237685288
 48       0.000085365876
 49      -0.000508871537
 50       0.000262836849
 51       0.000056052801
 52      -0.000034327694
 53       0.000106138523
 54      -0.000007997953
 55       0.000026557473
 56      -0.000066722233
 57      -0.000312261862
 58       0.000079841786
 59      -0.000268574071
 60       0.000238861079
 61      -0.002230556838
 Sym=     1a
 Ene= -1.12284343408105E+01
 Spin= Alpha
 Occup= 2.000000
  1       0.006318715424
  2       0.000277173210
  3       0.000030478150
  4      -0.000110313412
  5       0.000155912690
  6       0.000903744346
  7       0.000249825748
  8      -0.000042616585
  9      -0.000100887347
 10      -0.000032267475
 11      -0.000188702379
 12       0.002579668351
 13       0.000071926820
 14      -0.000097899391
 15      -0.000096117429
 16       0.000104514330
 17       0.001630882967
 18      -0.000294732630
 19      -0.000638607338
 20      -0.000009321327
 21       0.098763525014
 22       0.003458745653
 23      -0.000227165911
 24      -0.000024401307
 25      -0.000059466344
 26      -0.009321013786
 27       0.003335626108
 28      -0.000106612200
 29       0.001579977416
 30      -0.990116179308
 31      -0.025150256008
 32      -0.000170312843
 33      -0.000141293339
 34       0.000292446047
 35       0.019580466625
 36       0.001634427670
 37       0.002460834893
 38      -0.002402076802
 39       0.048726393815
 40       0.001854466479
 41       0.000133758752
 42      -0.000044790706
 43       0.000109845721
 44      -0.006222438764
 45      -0.002465048750
 46       0.000044758184
 47      -0.001691124234
 48      -0.000054212826
 49      -0.000290874898
 50       0.000029898968
 51      -0.000231024584
 52       0.000005246617
 53       0.000143153809
 54      -0.000064955060
 55      -0.000213330047
 56       0.000034809437
 57      -0.000272551726
 58       0.000279188894
 59      -0.001712383751
 60       0.000087588127
 61      -0.000339870118
 Sym=     1a
 Ene= -1.12207365152016E+01
 Spin= Alpha
 Occup= 2.000000
  1      -0.994723718454
  2      -0.025032782212
  3      -0.000151825136
  4       0.000215414199
  5      -0.000044295356
  6       0.017045520200
  7       0.000646378941
  8      -0.001691260603
  9       0.000905568520
 10       0.000142669917
 11      -0.001642961639
 12       0.000393621398
 13       0.000079544422
 14      -0.000143246409
 15       0.000015550850
 16       0.000069368920
 17       0.000103831624
 18       0.000686866137
 19       0.000074357114
 20      -0.001045590082
 21      -0.000088479018
 22      -0.000069144558
 23      -0.000033913714
 24       0.000018082262
 25      -0.000030725541
 26       0.000494410246
 27       0.000129228509
 28       0.000545406256
 29      -0.000232509248
 30      -0.003739225219
 31      -0.000006572639
 32      -0.000070966890
 33       0.000082419868
 34      -0.000091407633
 35       0.000327151368
 36       0.000256419109
 37      -0.000115315748
 38       0.000217473436
 39       0.053754804437
 40       0.002154358686
 41      -0.000033558646
 42       0.000268785634
 43      -0.000133663481
 44      -0.006885617582
 45      -0.000064552320
 46      -0.002743084189
 47       0.001503684792
 48       0.000192236803
 49      -0.002695924578
 50       0.000072687617
 51      -0.002761062988
 52       0.000021723344
 53       0.000642372820
 54      -0.000075787207
 55      -0.000455228383
 56       0.000014337529
 57       0.000081427019
 58      -0.000040040111
 59      -0.000263873935
 60       0.000118985587
 61       0.000004668168
 Sym=     1a
 Ene= -1.12124367456690E+01
 Spin= Alpha
 Occup= 2.000000
  1      -0.000392387935
  2       0.000068514879
  3       0.000082415467
  4       0.000022859057
  5       0.000130939618
  6      -0.000362720004
  7      -0.000379512939
  8       0.000190014823
  9      -0.000914783209
 10      -0.000071463366
 11      -0.003413394016
 12      -0.996108601488
 13      -0.026210854141
 14       0.000110564739
 15       0.000022229560
 16      -0.000055147775
 17       0.019315102331
 18      -0.000741922581
 19      -0.000759646388
 20       0.000466442252
 21       0.013763966327
 22       0.000770314980
 23       0.000079464933
 24       0.000101462956
 25      -0.000067146539
 26      -0.004090266238
 27      -0.001457574264
 28      -0.002146991374
 29       0.001253093865
 30      -0.001240920006
 31       0.000184428629
 32       0.000113660922
 33       0.000086744254
 34      -0.000025203713
 35      -0.000737412890
 36      -0.000700894230
 37      -0.000492357466
 38       0.000092623178
 39      -0.000159872835
 40      -0.000006729444
 41       0.000068680649
 42       0.000044271459
 43       0.000014472896
 44       0.000681590624
 45       0.000167194620
 46       0.000406235855
 47      -0.000035175560
 48      -0.000098426736
 49      -0.000527196957
 50       0.000032023043
 51       0.000230867134
 52      -0.000071276667
 53      -0.003337390987
 54      -0.000027140608
 55      -0.003066076458
 56       0.000153085811
 57       0.000008976968
 58      -0.000039158892
 59      -0.000476399154
 60       0.000020691310
 61       0.000011297972
 Sym=     1a
 Ene= -1.10457532904672E+00
 Spin= Alpha
 Occup= 2.000000
  1       0.074286413433
  2      -0.144320532707
  3      -0.010624589408
  4       0.054055736875
  5      -0.034880604108
  6      -0.099560205220
  7      -0.001921750616
  8       0.002774730266
  9       0.002081831211
 10      -0.042410197199
 11      -0.000014316237
 12       0.071245415585
 13      -0.131299765444
 14       0.025747864523
 15       0.033663899335
 16      -0.016368455217
 17      -0.126464431825
 18       0.015691172834
 19       0.004174649475
 20       0.000175087078
 21       0.113867790039
 22      -0.226053838841
 23       0.065619706490
 24       0.001112936237
 25       0.027582277325
 26      -0.134862622637
 27      -0.001319583982
 28       0.004106429553
 29      -0.002797635237
 30       0.124453948872
 31      -0.245336805418
 32      -0.041844225309
 33      -0.040441296905
 34       0.034579478476
 35      -0.162092751761
 36      -0.001157224730
 37      -0.003040052988
 38       0.005837008475
 39       0.109187030948
 40      -0.216032248130
 41      -0.040348875627
 42      -0.025423863357
 43      -0.010472275756
 44      -0.137940179392
 45      -0.006896594971
 46      -0.000317671917
 47      -0.002878151189
 48      -0.032343082436
 49      -0.001019993995
 50      -0.039589538985
 51      -0.006376779408
 52      -0.036145981829
 53      -0.000073808739
 54      -0.032296458705
 55      -0.006102239503
 56      -0.051829753570
 57      -0.003989204328
 58      -0.056701466720
 59      -0.007157658491
 60      -0.052358006107
 61      -0.008173687909
 Sym=     1a
 Ene= -1.01830509495929E+00
 Spin= Alpha
 Occup= 2.000000
  1       0.123240167148
  2      -0.241437412802
  3       0.004338463650
  4       0.078367281676
  5      -0.034894768344
  6      -0.188966431804
  7      -0.002068737161
  8       0.003547614108
  9      -0.004224393051
 10       0.050443114055
 11       0.005276721667
 12      -0.098184354814
 13       0.187162462427
 14      -0.011312308771
 15      -0.032274718753
 16       0.023184664883
 17       0.173873552709
 18       0.000346129689
 19      -0.001398393921
 20       0.003471595998
 21      -0.101314787876
 22       0.201412362673
 23       0.001092999628
 24       0.022068521802
 25      -0.019636399544
 26       0.149977826403
 27      -0.000380896618
 28       0.005014611508
 29      -0.004904892159
 30      -0.020479805232
 31       0.040539848507
 32       0.101800325548
 33       0.003390212628
 34       0.043177211042
 35       0.025385363180
 36       0.006856408842
 37      -0.011295063195
 38       0.010363601898
 39       0.117385134337
 40      -0.234393422082
 41       0.015941352544
 42      -0.074125719183
 43       0.058948077118
 44      -0.164133305233
 45       0.008818357642
 46       0.005299693811
 47       0.007289711206
 48      -0.070965931374
 49      -0.016418527888
 50      -0.062176436085
 51      -0.005851382183
 52       0.056349071815
 53       0.005448163245
 54       0.058349672960
 55       0.009053997479
 56       0.062130507160
 57       0.016508309460
 58       0.010048758548
 59      -0.003361691524
 60      -0.070434234547
 61      -0.012245522256
 Sym=     1a
 Ene= -9.42456144776720E-01
 Spin= Alpha
 Occup= 2.000000
  1      -0.078809882905
  2       0.153226852276
  3       0.003913439618
  4      -0.007176821891
  5       0.001457025033
  6       0.138935124114
  7       0.007209180805
  8       0.001823204772
  9       0.000288075023
 10       0.100782321604
 11       0.020937561798
 12      -0.138121571035
 13       0.259009592397
 14       0.008335456487
 15       0.020963845257
 16      -0.013913966617
 17       0.294253302697
 18      -0.007142136688
 19       0.001523371154
 20      -0.001927995799
 21       0.029458059030
 22      -0.055544003990
 23       0.126694700742
 24       0.113402833918
 25      -0.043175766856
 26      -0.073624156707
 27       0.018810183569
 28       0.008504941574
 29      -0.000958020504
 30       0.119654622737
 31      -0.237946546876
 32      -0.034711843451
 33       0.015134579779
 34      -0.010603372568
 35      -0.187234973049
 36       0.004856627236
 37       0.016161720942
 38      -0.004927201615
 39       0.001630044676
 40      -0.004261092054
 41      -0.041810096681
 42       0.089266454567
 43      -0.086670750728
 44      -0.006897441513
 45      -0.012443440631
 46       0.005331949072
 47      -0.015023088772
 48       0.056914189216
 49       0.018026477032
 50       0.062425512546
 51       0.018972240742
 52       0.099164973867
 53       0.024033704475
 54       0.099834743708
 55       0.027986081430
 56      -0.020582529525
 57      -0.007463318621
 58      -0.091088606693
 59      -0.025025820051
 60      -0.006156535398
 61      -0.006196718569
 Sym=     1a
 Ene= -8.11963483722855E-01
 Spin= Alpha
 Occup= 2.000000
  1       0.101740682853
  2      -0.202166772918
  3       0.002796602480
  4      -0.078281989851
  5       0.049336570038
  6      -0.191792362605
  7      -0.000419694505
  8      -0.031438519573
  9       0.019112565366
 10       0.056355340387
 11       0.022580446037
 12      -0.062315110422
 13       0.118620065541
 14       0.029570886353
 15       0.065658705772
 16      -0.042926539441
 17       0.149147469991
 18       0.016369282387
 19       0.015406035420
 20      -0.008741704388
 21       0.092261980976
 22      -0.185170162780
 23       0.012720994350
 24       0.072429387119
 25      -0.058202331739
 26      -0.180729326093
 27      -0.015533405565
 28       0.014451628589
 29      -0.019046730525
 30      -0.027851754695
 31       0.057796524413
 32      -0.196622101556
 33      -0.021411414639
 34      -0.090251319084
 35       0.047515286288
 36      -0.046304119984
 37      -0.006433206837
 38      -0.019834782466
 39      -0.085693947923
 40       0.174881781043
 41       0.012885043939
 42      -0.150209929336
 43       0.084268423469
 44       0.163919031249
 45       0.000898120816
 46      -0.049821279281
 47       0.023873708473
 48      -0.113277168488
 49      -0.048294457259
 50      -0.108763225762
 51      -0.041582461087
 52       0.062283368666
 53       0.025141324265
 54       0.065989753287
 55       0.022288728228
 56      -0.108934931014
 57      -0.043719837874
 58       0.037059650750
 59       0.016658838873
 60       0.109337997294
 61       0.045725209760
 Sym=     1a
 Ene= -7.20625313473250E-01
 Spin= Alpha
 Occup= 2.000000
  1       0.036909666044
  2      -0.072876040246
  3      -0.070205874019
  4      -0.195638391927
  5       0.018803564015
  6      -0.079956202580
  7      -0.026746211846
  8      -0.062614620577
  9       0.008952522097
 10      -0.077311032862
 11      -0.041022054504
 12       0.018440283959
 13      -0.030607228822
 14       0.038640628061
 15      -0.112258944849
 16       0.095384703173
 17      -0.057167531984
 18       0.020748998827
 19      -0.040607875299
 20       0.035517976111
 21      -0.074183772035
 22       0.150843717745
 23       0.181003328501
 24      -0.002711863771
 25       0.049313874391
 26       0.158852271111
 27       0.073133454448
 28      -0.009821285994
 29       0.024273739366
 30       0.079149912318
 31      -0.161562573644
 32       0.028170799645
 33       0.032915948454
 34      -0.030192251281
 35      -0.161251189203
 36       0.026723099198
 37       0.035188345690
 38      -0.018745099406
 39      -0.070080863080
 40       0.141870748968
 41      -0.124183234504
 42      -0.022466017154
 43      -0.129441137237
 44       0.142757731384
 45      -0.047537420063
 46      -0.036289130996
 47      -0.036784107666
 48      -0.038515802388
 49      -0.018830793469
 50      -0.141067230403
 51      -0.085861325405
 52      -0.056000470479
 53      -0.029908153527
 54       0.001046577567
 55       0.002426016388
 56       0.151444211612
 57       0.076293953580
 58      -0.104300750240
 59      -0.042685048081
 60       0.138472038651
 61       0.066721045883
 Sym=     1a
 Ene= -6.69300369013834E-01
 Spin= Alpha
 Occup= 2.000000
  1      -0.022187037278
  2       0.044148232760
  3      -0.092649126110
  4       0.079511425453
  5      -0.162141199822
  6       0.061839172804
  7      -0.040483987021
  8       0.019440406847
  9      -0.058123389270
 10      -0.016207534313
 11      -0.010994367176
 12      -0.018388790953
 13       0.034762078474
 14       0.144964899980
 15       0.069767385169
 16      -0.005773216992
 17       0.053029571549
 18       0.067995470483
 19       0.024379227930
 20       0.002267653622
 21       0.022094296546
 22      -0.045811746751
 23       0.125741264030
 24      -0.097167536206
 25       0.113270376078
 26      -0.032374027491
 27       0.034641784411
 28      -0.038484324779
 29       0.040949014785
 30      -0.021562090980
 31       0.041170048016
 32      -0.093948169306
 33      -0.236337399075
 34       0.147418996068
 35       0.060727479960
 36      -0.038627655952
 37      -0.098244090768
 38       0.057305769598
 39       0.023815911119
 40      -0.050205822946
 41      -0.123793488986
 42      -0.136779629589
 43      -0.033504821357
 44      -0.045790280794
 45      -0.043084559719
 46      -0.043509267099
 47      -0.009675817678
 48       0.132340887699
 49       0.083420145223
 50       0.004262650245
 51       0.008404946519
 52       0.025066760105
 53       0.015153095465
 54       0.101783701538
 55       0.060205595644
 56       0.085753070577
 57       0.059125102805
 58       0.187740678198
 59       0.113529442681
 60       0.080343260133
 61       0.058109184571
 Sym=     1a
 Ene= -6.00305388640292E-01
 Spin= Alpha
 Occup= 2.000000
  1       0.008507486659
  2      -0.019081363797
  3      -0.144981207741
  4      -0.097825897626
  5      -0.237270522315
  6      -0.031977757030
  7      -0.065277016271
  8      -0.047686022331
  9      -0.110333683268
 10       0.081188415680
 11       0.055961896706
 12      -0.011084363706
 13       0.022057498933
 14      -0.116791166150
 15       0.020161764715
 16      -0.089934227385
 17       0.028053623021
 18      -0.042096983838
 19       0.011639309346
 20      -0.043135577235
 21      -0.003567995398
 22       0.009133889321
 23      -0.248595532622
 24       0.006585076234
 25      -0.106783528568
 26       0.008012934652
 27      -0.106849088492
 28       0.013643490112
 29      -0.056707787828
 30      -0.009248223231
 31       0.021621714285
 32       0.215696026057
 33       0.035213096540
 34       0.026642586652
 35      -0.017751323057
 36       0.061622975993
 37      -0.009771463769
 38       0.012327783940
 39       0.017732393229
 40      -0.041198400928
 41      -0.104915330987
 42      -0.091997042285
 43      -0.148981906767
 44      -0.025678446421
 45      -0.024493888890
 46      -0.023627649589
 47      -0.059718605867
 48       0.155938380049
 49       0.109483613477
 50      -0.142757407906
 51      -0.092163230839
 52       0.015403449499
 53       0.005171832113
 54      -0.058623741324
 55      -0.051122133351
 56      -0.138736215211
 57      -0.095119104452
 58      -0.036154941598
 59      -0.036135919493
 60       0.091708946115
 61       0.074515598368
 Sym=     1a
 Ene= -5.84214313382459E-01
 Spin= Alpha
 Occup= 2.000000
  1      -0.006962788563
  2       0.018905370704
  3      -0.010058766410
  4      -0.280877891090
  5       0.169492289017
  6      -0.017960007478
  7      -0.009293303889
  8      -0.102342304501
  9       0.059116221316
 10       0.008203371850
 11       0.003840204414
 12      -0.008080563697
 13       0.010991992469
 14       0.094036276541
 15       0.190680333434
 16      -0.053628312458
 17       0.039565074892
 18       0.041033707303
 19       0.080018037876
 20      -0.018537057246
 21       0.023065734277
 22      -0.046685107609
 23      -0.126873881343
 24      -0.135053614016
 25       0.111051791438
 26      -0.080481699233
 27      -0.048807337966
 28      -0.051110619991
 29       0.048668069608
 30      -0.012359488828
 31       0.025294600167
 32       0.134940416406
 33      -0.049280643794
 34       0.165853423149
 35       0.024735963602
 36       0.048335887972
 37      -0.022481660945
 38       0.072344245831
 39      -0.006950929162
 40       0.017004553006
 41      -0.030176584591
 42       0.300738014462
 43      -0.148064883177
 44      -0.005753589787
 45      -0.004633690331
 46       0.109584344504
 47      -0.041357694359
 48      -0.102061000340
 49      -0.080320356206
 50      -0.104731778528
 51      -0.075188833222
 52       0.078840858151
 53       0.059547401993
 54       0.073181961011
 55       0.053131447591
 56       0.001201276716
 57       0.004587532743
 58       0.071576465257
 59       0.048855129230
 60      -0.088643353350
 61      -0.065665946046
 Sym=     1a
 Ene= -5.67960937474559E-01
 Spin= Alpha
 Occup= 2.000000
  1       0.003931270899
  2      -0.007364309054
  3      -0.030591296714
  4       0.043306628365
  5      -0.006143450656
  6      -0.008465190754
  7      -0.017785062271
  8       0.013455245907
  9       0.009281136073
 10      -0.154892960807
 11      -0.123977496696
 12       0.000460071331
 13      -0.001708536511
 14      -0.159013437230
 15       0.220916078810
 16       0.307099110657
 17      -0.000921607956
 18      -0.081630890050
 19       0.114390055453
 20       0.153135254790
 21      -0.008816586935
 22       0.016753747231
 23      -0.033417505872
 24       0.108166651075
 25       0.077220638173
 26       0.033585268274
 27      -0.020788061493
 28       0.050865269527
 29       0.039159475969
 30       0.004231465765
 31      -0.006915929062
 32      -0.021034544118
 33       0.046323213130
 34       0.053375792960
 35      -0.017394599287
 36      -0.018577566539
 37       0.026839457768
 38       0.036312615812
 39      -0.002262943691
 40       0.005946368413
 41      -0.064111637157
 42      -0.044125519952
 43       0.015995869406
 44       0.006563072883
 45      -0.035985094721
 46      -0.023588844810
 47       0.008292720458
 48       0.010914951372
 49       0.012379786562
 50       0.017154754685
 51       0.023793156549
 52       0.244748058705
 53       0.190976791912
 54      -0.119021478475
 55      -0.089704249199
 56      -0.010872077223
 57      -0.009941925489
 58      -0.006364868771
 59      -0.005808141842
 60       0.046851790804
 61       0.032754906119
 Sym=     1a
 Ene= -5.44267928945284E-01
 Spin= Alpha
 Occup= 2.000000
  1      -0.015876607741
  2       0.034941600065
  3      -0.110130106275
  4      -0.064194136275
  5      -0.118310359857
  6       0.022503168345
  7      -0.073595262059
  8      -0.029514589906
  9      -0.072961862215
 10      -0.182911115097
 11      -0.141534475201
 12      -0.006676305048
 13       0.018153596263
 14       0.252488685366
 15      -0.069485228350
 16       0.192007086492
 17      -0.013132202534
 18       0.153376360154
 19      -0.030814940065
 20       0.099295110635
 21       0.007564271929
 22      -0.015718538716
 23      -0.056231013328
 24       0.116509457825
 25      -0.073638462125
 26      -0.010409699901
 27      -0.042805367905
 28       0.077743638035
 29      -0.051742139139
 30      -0.034683992751
 31       0.077129784635
 32      -0.037356263111
 33       0.106399512532
 34      -0.068877827619
 35       0.069857067628
 36      -0.018729000656
 37       0.024351217248
 38      -0.007797014808
 39       0.007501050699
 40      -0.014052420400
 41       0.119629097437
 42       0.087690511122
 43       0.096959078552
 44      -0.010111525146
 45       0.073297033159
 46       0.065300718385
 47       0.059489478351
 48       0.124865245352
 49       0.088062604014
 50      -0.098584997389
 51      -0.076189377951
 52      -0.034462213466
 53      -0.026044032396
 54       0.174167482282
 55       0.132489152542
 56      -0.103808329932
 57      -0.065781579031
 58      -0.031167787038
 59      -0.040325986920
 60      -0.126962150071
 61      -0.086494960783
 Sym=     1a
 Ene= -5.08082320517359E-01
 Spin= Alpha
 Occup= 2.000000
  1       0.011693688189
  2      -0.025841745288