[Molden Format]
[Title]
 Molden file created by orca_2mkl for BaseName=h-shift_021

[Atoms] AU
C    1   6          0.0289940681         0.0205602203        -0.2850746359 
H    2   1          1.9759618963         0.0226597061        -0.9154286927 
C    3   6          4.8354709157         0.0267056097         2.8445027042 
C    4   6          3.8385742397        -2.2121474274         3.4096895552 
C    5   6          1.1964045126        -3.0335660244         3.1567421533 
C    6   6         -0.4506732268        -2.1609471876         1.4619828441 
H    7   1         -1.1856292942        -0.0133112309        -1.9256290407 
H    8   1         -0.2837026948         1.8022885057         0.6877488189 
H    9   1          3.7273090546         1.6454695825         2.3540205067 
H   10   1          6.8432387926         0.3001848861         2.8362446010 
H   11   1          5.1072777845        -3.6831102501         4.0122306227 
H   12   1          0.6449654192        -4.6094917955         4.3195945784 
H   13   1         -2.2488629165        -3.0946892162         1.2877482048 
[GTO]
  1 0
s   6 1.0 
     3047.5249000000         0.5363343823
      457.3695100000         0.9894506076
      103.9486900000         1.5972822308
       29.2101550000         2.0791870615
        9.2866630000         1.7741742532
        3.1639270000         0.6125798260
s   3 1.0 
        7.8682724000        -0.3995563516
        1.8812885000        -0.1841552393
        0.5442493000         0.5163903794
p   3 1.0 
        7.8682724000         1.2960827175
        1.8812885000         0.9937536282
        0.5442493000         0.4959527138
s   1 1.0 
        0.1687144000         0.1876178721
p   1 1.0 
        0.1687144000         0.1541275509

  2 0
s   3 1.0 
       18.7311370000         0.2149354183
        2.8253937000         0.3645711272
        0.6401217000         0.4150514277
s   1 1.0 
        0.1612778000         0.1813806839

  3 0
s   6 1.0 
     3047.5249000000         0.5363343823
      457.3695100000         0.9894506076
      103.9486900000         1.5972822308
       29.2101550000         2.0791870615
        9.2866630000         1.7741742532
        3.1639270000         0.6125798260
s   3 1.0 
        7.8682724000        -0.3995563516
        1.8812885000        -0.1841552393
        0.5442493000         0.5163903794
p   3 1.0 
        7.8682724000         1.2960827175
        1.8812885000         0.9937536282
        0.5442493000         0.4959527138
s   1 1.0 
        0.1687144000         0.1876178721
p   1 1.0 
        0.1687144000         0.1541275509

  4 0
s   6 1.0 
     3047.5249000000         0.5363343823
      457.3695100000         0.9894506076
      103.9486900000         1.5972822308
       29.2101550000         2.0791870615
        9.2866630000         1.7741742532
        3.1639270000         0.6125798260
s   3 1.0 
        7.8682724000        -0.3995563516
        1.8812885000        -0.1841552393
        0.5442493000         0.5163903794
p   3 1.0 
        7.8682724000         1.2960827175
        1.8812885000         0.9937536282
        0.5442493000         0.4959527138
s   1 1.0 
        0.1687144000         0.1876178721
p   1 1.0 
        0.1687144000         0.1541275509

  5 0
s   6 1.0 
     3047.5249000000         0.5363343823
      457.3695100000         0.9894506076
      103.9486900000         1.5972822308
       29.2101550000         2.0791870615
        9.2866630000         1.7741742532
        3.1639270000         0.6125798260
s   3 1.0 
        7.8682724000        -0.3995563516
        1.8812885000        -0.1841552393
        0.5442493000         0.5163903794
p   3 1.0 
        7.8682724000         1.2960827175
        1.8812885000         0.9937536282
        0.5442493000         0.4959527138
s   1 1.0 
        0.1687144000         0.1876178721
p   1 1.0 
        0.1687144000         0.1541275509

  6 0
s   6 1.0 
     3047.5249000000         0.5363343823
      457.3695100000         0.9894506076
      103.9486900000         1.5972822308
       29.2101550000         2.0791870615
        9.2866630000         1.7741742532
        3.1639270000         0.6125798260
s   3 1.0 
        7.8682724000        -0.3995563516
        1.8812885000        -0.1841552393
        0.5442493000         0.5163903794
p   3 1.0 
        7.8682724000         1.2960827175
        1.8812885000         0.9937536282
        0.5442493000         0.4959527138
s   1 1.0 
        0.1687144000         0.1876178721
p   1 1.0 
        0.1687144000         0.1541275509

  7 0
s   3 1.0 
       18.7311370000         0.2149354183
        2.8253937000         0.3645711272
        0.6401217000         0.4150514277
s   1 1.0 
        0.1612778000         0.1813806839

  8 0
s   3 1.0 
       18.7311370000         0.2149354183
        2.8253937000         0.3645711272
        0.6401217000         0.4150514277
s   1 1.0 
        0.1612778000         0.1813806839

  9 0
s   3 1.0 
       18.7311370000         0.2149354183
        2.8253937000         0.3645711272
        0.6401217000         0.4150514277
s   1 1.0 
        0.1612778000         0.1813806839

 10 0
s   3 1.0 
       18.7311370000         0.2149354183
        2.8253937000         0.3645711272
        0.6401217000         0.4150514277
s   1 1.0 
        0.1612778000         0.1813806839

 11 0
s   3 1.0 
       18.7311370000         0.2149354183
        2.8253937000         0.3645711272
        0.6401217000         0.4150514277
s   1 1.0 
        0.1612778000         0.1813806839

 12 0
s   3 1.0 
       18.7311370000         0.2149354183
        2.8253937000         0.3645711272
        0.6401217000         0.4150514277
s   1 1.0 
        0.1612778000         0.1813806839

 13 0
s   3 1.0 
       18.7311370000         0.2149354183
        2.8253937000         0.3645711272
        0.6401217000         0.4150514277
s   1 1.0 
        0.1612778000         0.1813806839

[5D]
[7F]
[9G]
[MO]
 Sym=     1a
 Ene= -1.12360474792725E+01
 Spin= Alpha
 Occup= 2.000000
  1      -0.001273236627
  2       0.000028146029
  3       0.000003886914
  4      -0.000064195240
  5       0.000057786640
  6      -0.000265141560
  7       0.000366430678
  8       0.000377184794
  9      -0.000336474185
 10       0.000118334790
 11      -0.000587244919
 12      -0.055505475917
 13      -0.000561091119
 14      -0.000092114515
 15      -0.000176401086
 16       0.000088706826
 17      -0.005433407356
 18       0.001931808124
 19       0.001975099525
 20      -0.000470580286
 21      -0.988338992452
 22      -0.024722126813
 23       0.000046883639
 24      -0.000140475840
 25       0.000111063312
 26       0.017202693031
 27      -0.001304334428
 28       0.001649195346
 29      -0.000885043598
 30      -0.053479020569
 31      -0.000621486748
 32       0.000166344720
 33       0.000076006758
 34       0.000016422162
 35      -0.004076983267
 36      -0.002210226526
 37      -0.001442767744
 38       0.000044384610
 39      -0.097508479786
 40      -0.002157803863
 41       0.000178485055
 42      -0.000038955670
 43       0.000062642569
 44       0.001599663165
 45      -0.000412540484
 46       0.000425511988
 47      -0.000299333193
 48       0.000007970501
 49      -0.000004436608
 50       0.000006267930
 51      -0.000042050177
 52       0.000270939889
 53       0.000278242089
 54       0.000081016890
 55      -0.000495478364
 56       0.000258450923
 57      -0.002107738251
 58       0.000087238558
 59      -0.000452774139
 60      -0.000025839020
 61      -0.000624115455
 Sym=     1a
 Ene= -1.12357657180945E+01
 Spin= Alpha
 Occup= 2.000000
  1       0.015175630074
  2      -0.000016045008
  3       0.000030785037
  4       0.000153659893
  5      -0.000029973106
  6       0.003650946699
  7       0.000060343001
  8      -0.002180566790
  9       0.001398792581
 10      -0.000192416506
 11       0.000142057296
 12      -0.006219055034
 13      -0.000090166215
 14       0.000024887980
 15      -0.000040923212
 16       0.000005152803
 17      -0.000185603019
 18      -0.000052502708
 19       0.000325062415
 20      -0.000044401486
 21      -0.102169004941
 22      -0.002741810605
 23       0.000179414793
 24       0.000038872683
 25       0.000059202707
 26       0.001191995577
 27       0.000150192459
 28      -0.000132035643
 29       0.000091361079
 30       0.094978504063
 31       0.001437062076
 32       0.000143502677
 33      -0.000122463663
 34       0.000175726114
 35       0.005009962477
 36      -0.001154266305
 37       0.001881916070
 38      -0.002390327785
 39       0.986184079956
 40       0.024654400099
 41       0.000184132750
 42       0.000037917571
 43       0.000072361514
 44      -0.017231208654
 45      -0.002326086875
 46      -0.000950019990
 47      -0.000223337218
 48      -0.000088349878
 49       0.000179165788
 50      -0.000203096667
 51       0.000902924652
 52       0.000029148178
 53      -0.000371930218
 54       0.000013162823
 55       0.000036566129
 56       0.000018082700
 57      -0.000232682614
 58      -0.000043929695
 59       0.000760163270
 60      -0.000269934413
 61       0.002010119623
 Sym=     1a
 Ene= -1.12275327204541E+01
 Spin= Alpha
 Occup= 2.000000
  1       0.003256670337
  2       0.000073643027
  3      -0.000015290449
  4      -0.000108730120
  5       0.000142271239
  6       0.001746624187
  7       0.000247297590
  8      -0.000655625271
  9       0.000361795398
 10      -0.000055872735
 11      -0.000171622798
 12       0.007199245086
 13       0.000324014503
 14      -0.000157178171
 15      -0.000124623620
 16       0.000056432165
 17       0.000841151632
 18      -0.000023309435
 19       0.000070110855
 20      -0.000261619269
 21       0.043541177917
 22       0.001735193021
 23      -0.000163875832
 24      -0.000037856409
 25      -0.000034749312
 26      -0.006098134394
 27       0.002899015972
 28      -0.000025213268
 29       0.000970327102
 30      -0.990178082382
 31      -0.025145178829
 32      -0.000095614112
 33      -0.000162386543
 34       0.000249868112
 35       0.019572363676
 36       0.000902129120
 37       0.002640214246
 38      -0.002554438443
 39       0.100452187650
 40       0.003540623888
 41       0.000201617703
 42      -0.000026422022
 43       0.000132037459
 44      -0.009412874861
 45      -0.003481063494
 46      -0.000204315936
 47      -0.001481024977
 48      -0.000060929004
 49      -0.000158576870
 50      -0.000020196284
 51       0.000146597283
 52       0.000035860392
 53      -0.000296372253
 54      -0.000048099608
 55      -0.000324247898
 56       0.000073101804
 57      -0.000354955647
 58       0.000297533255
 59      -0.001677365554
 60       0.000007788892
 61      -0.000339159744
 Sym=     1a
 Ene= -1.12212589874127E+01
 Spin= Alpha
 Occup= 2.000000
  1       0.000414513232
  2       0.000056272441
  3       0.000013064735
  4       0.000009449620
  5       0.000125453327
  6      -0.000007849139
  7       0.000378561316
  8       0.000087594277
  9      -0.000848029053
 10       0.000164641450
 11      -0.001193001558
 12      -0.994545321287
 13      -0.024850740307
 14       0.000096028568
 15       0.000204828283
 16       0.000033293128
 17       0.016637964710
 18      -0.000958666678
 19      -0.001678171089
 20       0.000156163591
 21       0.056691652081
 22       0.002249343276
 23       0.000123553815
 24       0.000288320958
 25      -0.000050657891
 26      -0.006835335532
 27      -0.001175287057
 28      -0.002802443587
 29       0.000734844072
 30      -0.004763041397
 31      -0.000019746104
 32       0.000110863079
 33       0.000081506821
 34       0.000001424787
 35       0.000438493740
 36      -0.000386706476
 37      -0.000022979992
 38      -0.000112724917
 39      -0.000015606192
 40      -0.000041202463
 41       0.000040157082
 42       0.000018696680
 43       0.000015261726
 44       0.000226121960
 45      -0.000028849650
 46       0.000450747664
 47      -0.000338723627
 48      -0.000029764003
 49      -0.000296282692
 50      -0.000009680282
 51       0.000535833203
 52       0.000124768050
 53      -0.002730247060
 54       0.000210688292
 55      -0.002652277150
 56       0.000115095594
 57       0.000002939248
 58      -0.000037361076
 59      -0.000221250980
 60       0.000007742457
 61       0.000036101786
 Sym=     1a
 Ene= -1.12147403512396E+01
 Spin= Alpha
 Occup= 2.000000
  1      -0.996082442120
  2      -0.026148835042
  3       0.000004593190
  4      -0.000003957512
  5      -0.000108830102
  6       0.019228254795
  7      -0.000067749289
  8      -0.000719825055
  9       0.000891938138
 10      -0.000075342719
 11      -0.003250933161
 12      -0.000411627476
 13       0.000037825119
 14      -0.000146830549
 15       0.000008608350
 16      -0.000006569981
 17      -0.000287865716
 18       0.000831372637
 19       0.000276648755
 20      -0.000087077997
 21      -0.000136428712
 22      -0.000013854905
 23      -0.000048659305
 24       0.000042850050
 25      -0.000040343862
 26       0.000532695732
 27       0.000016846870
 28       0.000415174818
 29      -0.000175305075
 30      -0.001715584487
 31       0.000157436088
 32      -0.000051397523
 33       0.000092139026
 34      -0.000116943592
 35      -0.000647132650
 36       0.000475095063
 37      -0.000412977206
 38       0.000608392475
 39       0.015641570418
 40       0.000820804281
 41       0.000010435611
 42       0.000109147646
 43      -0.000110386529
 44      -0.004073056615
 45      -0.000097425525
 46      -0.002222536814
 47       0.002000239036
 48      -0.000035626608
 49      -0.003093957866
 50      -0.000073494201
 51      -0.003328526996
 52       0.000042565225
 53       0.000091284866
 54      -0.000064141933
 55      -0.000510085401
 56       0.000025100194
 57       0.000016991955
 58      -0.000032852597
 59      -0.000445933298
 60       0.000136608990
 61      -0.000045825771
 Sym=     1a
 Ene= -1.10099504043151E+00
 Spin= Alpha
 Occup= 2.000000
  1       0.069208041943
  2      -0.128299051484
  3      -0.001595189189
  4       0.032259165800
  5      -0.030183607392
  6      -0.122178382004
  7      -0.007450077422
  8       0.003760699193
  9      -0.010911045072
 10      -0.039278846508
 11      -0.001315541969
 12       0.074936420836
 13      -0.146265815096
 14       0.033879318818
 15       0.055906643011
 16      -0.010511878082
 17      -0.099701695869
 18      -0.000853815834
 19       0.003037822306
 20       0.001219177590
 21       0.110088047719
 22      -0.218338726380
 23       0.031863524728
 24      -0.028535026898
 25       0.021124760428
 26      -0.138558598507
 27       0.006159505428
 28       0.000040449968
 29       0.002724275175
 30       0.125636180660
 31      -0.247839003095
 32       0.001105980912
 33      -0.041327771800
 34       0.048032513669
 35      -0.163461642510
 36      -0.004063629886
 37      -0.003835649635
 38       0.003309393459
 39       0.113919580483
 40      -0.226226528422
 41      -0.060195641929
 42       0.003930361865
 43      -0.034407857815
 44      -0.136721930380
 45       0.003827765884
 46       0.004299540891
 47      -0.001910726631
 48      -0.032031342383
 49      -0.005357802857
 50      -0.035294768814
 51      -0.000207856506
 52      -0.039587313895
 53      -0.007015609146
 54      -0.032845028357
 55      -0.001570815021
 56      -0.052933562169
 57      -0.008266293927
 58      -0.058537964776
 59      -0.008142492630
 60      -0.052838120001
 61      -0.004157315968
 Sym=     1a
 Ene= -1.02062831618706E+00
 Spin= Alpha
 Occup= 2.000000
  1       0.099699413935
  2      -0.189652090993
  3       0.010413337525
  4       0.030586334466
  5      -0.024107970962
  6      -0.177297521635
  7       0.003109133587
  8       0.000915708163
  9      -0.001679499925
 10      -0.053133131825
 11      -0.005302587038
 12      -0.122009343711
 13       0.239395232003
 14      -0.025980174312
 15      -0.078652980461
 16       0.021242739106
 17       0.185076890984
 18      -0.004331416400
 19      -0.003076745575
 20       0.000862639727
 21      -0.116346626434
 22       0.232361310450
 23       0.055159565882
 24       0.076204946826
 25      -0.014531311664
 26       0.161142646366
 27       0.011816555589
 28      -0.004512233793
 29       0.004233046304
 30       0.020573334228
 31      -0.040898514669
 32       0.097612403410
 33      -0.005641696767
 34       0.053154095985
 35      -0.025365190641
 36       0.014274714360
 37       0.011668074320
 38      -0.001209556031
 39       0.101471509539
 40      -0.201474031829
 41      -0.012980848076
 42      -0.021623910542
 43       0.013426297161
 44      -0.148448697372
 45      -0.003440261237
 46      -0.005877830801
 47       0.003538446325
 48      -0.059162350732
 49      -0.008786550716
 50      -0.057779206663
 51      -0.005498843432
 52       0.061736193794
 53       0.005833452322
 54       0.069829909034
 55       0.016077701979
 56       0.069096380407
 57       0.011674572026
 58      -0.010044590657
 59       0.003808557537
 60      -0.062405933010
 61      -0.016576619539
 Sym=     1a
 Ene= -9.41330542084725E-01
 Spin= Alpha
 Occup= 2.000000
  1       0.138801994502
  2      -0.261054035758
  3      -0.000698610061
  4      -0.020821738893
  5       0.015926439045
  6      -0.293919313245
  7      -0.002660900431
  8      -0.002106016783
  9      -0.003749323027
 10      -0.099192889478
 11      -0.022320327989
 12       0.079171488393
 13      -0.154890437026
 14       0.001949931418
 15       0.011616827095
 16      -0.000685536617
 17      -0.136215958756
 18       0.003295064224
 19      -0.001925468532
 20       0.004074587407
 21       0.002837488810
 22      -0.004564485926
 23      -0.095888639203
 24      -0.088779479929
 25       0.012596537775
 26      -0.001366559474
 27      -0.019986604609
 28      -0.005867109828
 29      -0.001939398911
 30      -0.118843305796
 31       0.236417159859
 32      -0.036193434488
 33      -0.012630396679
 34      -0.017425932358
 35       0.184416773641
 36      -0.002223271097
 37      -0.015590577664
 38       0.008323689033
 39      -0.029746286300
 40       0.055972796342
 41       0.047386252140
 42      -0.114130853993
 43       0.128111893888
 44       0.074351778662
 45       0.011116152507
 46      -0.009451756058
 47       0.015633844191
 48      -0.101119592599
 49      -0.028054368494
 50      -0.099683907655
 51      -0.024357734269
 52      -0.059985711235
 53      -0.017646332006
 54      -0.057606644678
 55      -0.018543694815
 56       0.002191526915
 57       0.004795323737
 58       0.091190094427
 59       0.025196904063
 60       0.020623064438
 61       0.007377551082
 Sym=     1a
 Ene= -8.13623649583304E-01
 Spin= Alpha
 Occup= 2.000000
  1      -0.060119716392
  2       0.114031934740
  3       0.015604434867
  4       0.064362439228
  5      -0.051766420984
  6       0.146138354779
  7      -0.002924696863
  8       0.015061794136
  9      -0.017673835532
 10       0.058859595789
 11       0.023017276921
 12       0.102054432859
 13      -0.203170082173
 14      -0.041231874536
 15      -0.079746251759
 16       0.020175534899
 17      -0.190030610315
 18      -0.015318290356
 19      -0.032126029884
 20       0.008298120595
 21      -0.086058215255
 22       0.175801400985
 23      -0.079131280176
 24      -0.151282434016
 25       0.035707676373
 26       0.162740898359
 27      -0.019774890994
 28      -0.050413383436
 29       0.012966291446
 30      -0.030044303771
 31       0.062660487904
 32       0.192973656896
 33      -0.026936485621
 34       0.100037088710
 35       0.051659753227
 36       0.045120204662
 37      -0.007379257465
 38       0.024463526822
 39       0.091923683120
 40      -0.184148071046
 41       0.038061338892
 42       0.067020438233
 43      -0.047862967926
 44      -0.178685250988
 45       0.024322586886
 46       0.010990621180
 47      -0.000274139914
 48       0.062482568158
 49       0.021034438364
 50       0.059923951944
 51       0.024018250688
 52      -0.109100484371
 53      -0.042181167509
 54      -0.113332873632
 55      -0.048439216262
 56       0.108725332596
 57       0.044986003285
 58       0.039768242714
 59       0.017887447619
 60      -0.107712800730
 61      -0.043675700990
 Sym=     1a
 Ene= -7.17994313617108E-01
 Spin= Alpha
 Occup= 2.000000
  1       0.020851681176
  2      -0.036374132354
  3      -0.095335360967
  4      -0.110194655613
  5       0.040088639092
  6      -0.061370324811
  7      -0.037161891263
  8      -0.039807776811
  9       0.011152980200
 10      -0.079176008791
 11      -0.043426827001
 12       0.038990906640
 13      -0.078038009893
 14       0.026029742865
 15      -0.197202228957
 16       0.062027474855
 17      -0.080609974702
 18       0.006152140063
 19      -0.064446341512
 20       0.022570856615
 21      -0.069861122062
 22       0.141953024078
 23       0.178555795484
 24      -0.026420196158
 25       0.030923057231
 26       0.140653523276
 27       0.059364285381
 28      -0.039548878213
 29       0.021035504081
 30       0.078011082198
 31      -0.159547823740
 32       0.005163117128
 33       0.029805152958
 34      -0.040508091880
 35      -0.154809512793
 36      -0.002758004110
 37       0.034703065998
 38      -0.035145364162
 39      -0.073692268724
 40       0.149968728660
 41      -0.158473907098
 42       0.001799080219
 43      -0.099308077858
 44       0.154728362404
 45      -0.070203176352
 46      -0.006463009160
 47      -0.038963369878
 48      -0.002832000448
 49       0.001065570761
 50      -0.053922865743
 51      -0.029464631449
 52      -0.142488500053
 53      -0.087469502647
 54      -0.040510179631
 55      -0.019769107611
 56       0.141344034366
 57       0.067943265714
 58      -0.101932799788
 59      -0.041374558171
 60       0.151925484972
 61       0.076605588363
 Sym=     1a
 Ene= -6.67694971856135E-01
 Spin= Alpha
 Occup= 2.000000
  1      -0.017025300772
  2       0.031355168519
  3      -0.087457035145
  4       0.068167612372
  5      -0.110071987574
  6       0.050863744263
  7      -0.045280104792
  8       0.023662364513
  9      -0.046891918780
 10      -0.015687932001
 11      -0.010023575518
 12      -0.021663925359
 13       0.043036738610
 14       0.190905378381
 15       0.086487373246
 16       0.001898506705
 17       0.061083301250
 18       0.073507324628
 19       0.021465773323
 20       0.007237983419
 21       0.025026918794
 22      -0.053467310930
 23       0.098567560664
 24      -0.139464109761
 25       0.082729805857
 26      -0.046805216261
 27       0.030971572168
 28      -0.043990156512
 29       0.028848729711
 30      -0.020897884894
 31       0.040258952633
 32      -0.065745961385
 33      -0.232204422365
 34       0.167824993161
 35       0.053935651433
 36      -0.024553068749
 37      -0.097266883778
 38       0.069072812263
 39       0.023453401578
 40      -0.049082610785
 41      -0.168503164177
 42      -0.090406653877
 43      -0.015711016343
 44      -0.034892845285
 45      -0.051470347649
 46      -0.037471670321
 47       0.003428050328
 48       0.096590398253
 49       0.057996679201
 50       0.027158200234
 51       0.015707026505
 52       0.001153283370
 53       0.006270717277
 54       0.136382328428
 55       0.085546546953
 56       0.080293277967
 57       0.058876298656
 58       0.188032758868
 59       0.114110657425
 60       0.083086862015
 61       0.058445403723
 Sym=     1a
 Ene= -6.02751661813914E-01
 Spin= Alpha
 Occup= 2.000000
  1      -0.010728554255
  2       0.020563853677
  3       0.163490043549
  4       0.029277970548
  5       0.014953540980
  6       0.031363770207
  7       0.071167502349
  8       0.014264485764
  9      -0.000256734190
 10       0.096397068126
 11       0.065016616020
 12       0.007622212130
 13      -0.016790506795
 14       0.261201003290
 15      -0.100831374223
 16       0.018219184021
 17      -0.030410348106
 18       0.119893144780
 19      -0.046933684894
 20       0.005589868832
 21       0.015333233456
 22      -0.035445088191
 23       0.192721382039
 24      -0.069802947440
 25       0.006102362558
 26      -0.024840373495
 27       0.068293196506
 28      -0.016472069129
 29      -0.009035982733
 30      -0.009842305467
 31       0.022190708329
 32      -0.168106440554
 33       0.036578790127
 34      -0.156382476243
 35      -0.010998058549
 36      -0.050510091656
 37      -0.005599397645
 38      -0.043816949888
 39      -0.003335700960
 40       0.009216052675
 41       0.245686357689
 42      -0.018549041968
 43       0.124145457179
 44       0.001724778229
 45       0.108405397046
 46       0.000422052138
 47       0.044615698562
 48      -0.059501392581
 49      -0.050158848699
 50       0.011131912460
 51       0.002673008806
 52      -0.142474457388
 53      -0.091953242842
 54       0.142521434161
 55       0.099368784105
 56       0.089067916060
 57       0.071314106626
 58      -0.034169414987
 59      -0.032782447966
 60      -0.135134712303
 61      -0.094045417448
 Sym=     1a
 Ene= -5.84646785753000E-01
 Spin= Alpha
 Occup= 2.000000
  1      -0.006674009416
  2       0.007882291088
  3      -0.016463829101
  4       0.179403954726
  5      -0.126043460460
  6       0.037306391828
  7      -0.009741160010
  8       0.075025563081
  9      -0.052187014689
 10       0.017947991121
 11       0.010414444143
 12      -0.007226269361
 13       0.019322494679
 14      -0.149399089201
 15      -0.283410875715
 16       0.081710229876
 17      -0.016761365399
 18      -0.050070823815
 19      -0.101804426557
 20       0.032121474473
 21      -0.007877444134
 22       0.018747646823
 23       0.124795315575
 24       0.307524260398
 25      -0.054699086080
 26      -0.003900638452
 27       0.030875451077
 28       0.111269260994
 29      -0.018601865543
 30      -0.010473600512
 31       0.020839519949
 32      -0.202288247982
 33      -0.048220811801
 34       0.008261526586
 35       0.021774063788
 36      -0.083142239555
 37      -0.020311582195
 38       0.009725623967
 39       0.024342255652
 40      -0.049530691082
 41      -0.024608532038
 42      -0.142024655696
 43       0.158810137563
 44      -0.084518080692
 45      -0.016212598902
 46      -0.055477059518
 47       0.064368427493
 48       0.075929520167
 49       0.055868456197
 50       0.067797848802
 51       0.051259101048
 52      -0.096149177728
 53      -0.070078274889
 54      -0.112203019926
 55      -0.088288479610
 56      -0.095385458177
 57      -0.071120847944
 58       0.073821073040
 59       0.051233757123
 60       0.015859731937
 61       0.014563057779
 Sym=     1a
 Ene= -5.67591431657678E-01
 Spin= Alpha
 Occup= 2.000000
  1       0.000465473675
  2      -0.001921238773
  3      -0.122128905550
  4       0.239359592835
  5       0.316348929774
  6      -0.000801278035
  7      -0.062318449141
  8       0.122821471825
  9       0.158439134288
 10      -0.145165855950
 11      -0.113973760286
 12       0.004552625299
 13      -0.008929521474
 14       0.022934984078
 15       0.021281335943
 16       0.021180238320
 17      -0.012700676359
 18       0.005107571377
 19       0.004360213801
 20       0.017791461429
 21      -0.001107797211
 22       0.002916987059
 23       0.025845829261
 24      -0.029889937455
 25       0.049270433602
 26       0.003782869748
 27       0.011595691481
 28      -0.015030482309
 29       0.025447596819
 30       0.002970584435
 31      -0.003784081813
 32      -0.034450659293
 33       0.045215082881
 34       0.046734978326
 35      -0.021288070193
 36      -0.017536551584
 37       0.022082048415
 38       0.039805823605
 39      -0.005568838485
 40       0.009226802998
 41      -0.026925707220
 42       0.102913873821
 43       0.083385018772
 44       0.029258224305
 45      -0.007223425787
 46       0.049075040191
 47       0.046607361169
 48      -0.125586718845
 49      -0.097147034373
 50       0.252360108898
 51       0.196725772592
 52       0.002808995926
 53       0.012621213025
 54       0.011373032509
 55       0.011384145476
 56       0.037141386600
 57       0.027171714642
 58      -0.002173205957
 59      -0.005067938626
 60      -0.013799824475
 61      -0.011368267431
 Sym=     1a
 Ene= -5.42264317027630E-01
 Spin= Alpha
 Occup= 2.000000
  1       0.006130186118
  2      -0.015985078783
  3       0.306901146603
  4       0.067047668315
  5       0.066187676483
  6       0.007623343539
  7       0.174044400602
  8       0.030369142210
  9       0.048803470193
 10       0.183815946367
 11       0.142607460117
 12       0.012562751012
 13      -0.027730468007
 14      -0.168150341365
 15       0.071744105493
 16      -0.041236151961
 17      -0.014287658961
 18      -0.104680527697
 19       0.032851753900
 20      -0.028423145683
 21      -0.008020744549
 22       0.014851192240
 23       0.135202257315
 24      -0.087781143542
 25       0.040304714258
 26       0.015128088889
 27       0.084362073735
 28      -0.064267189479
 29       0.026833785822
 30       0.035171379296
 31      -0.078375653952
 32      -0.069762857553
 33      -0.102190848795
 34       0.026947642882
 35      -0.071890051467
 36      -0.017156869761
 37      -0.023173213276
 38      -0.004858794351
 39      -0.007986481473
 40       0.015973452002
 41      -0.110500818766
 42      -0.100559214581
 43       0.002752996975
 44       0.015798360066
 45      -0.073706895964
 46      -0.065663414518
 47       0.001785141408
 48      -0.173752264945
 49      -0.133365078994
 50       0.025516855927
 51       0.021590834776
 52       0.111675349284
 53       0.086260614890
 54      -0.125936555690
 55      -0.089634690298
 56       0.122150418735
 57       0.083279075424
 58       0.032627899716
 59       0.042156972832
 60       0.109135327778
 61       0.072638176702
 Sym=     1a
 Ene= -5.07179338404873E-01
 Spin= Alpha
 Occup= 2.000000
  1       0.016907143226
  2      -0.037742448099