[Molden Format]
[Title]
 Molden file created by orca_2mkl for BaseName=h-shift_001

[Atoms] AU
C    1   6         -0.0501722289         0.0199706258        -0.3673703193 
H    2   1          1.8641297934         0.0390285138        -1.0909275588 
C    3   6          4.9140665154         0.0048981701         2.9433429399 
C    4   6          3.9156032563        -2.2612576302         3.3671329227 
C    5   6          1.2631628678        -3.0383602596         3.0736414465 
C    6   6         -0.4405216180        -2.1066364585         1.4715297405 
H    7   1         -1.3376331953        -0.1217021425        -1.9498723373 
H    8   1         -0.3813032701         1.8386128215         0.5289419038 
H    9   1          3.8094460010         1.6102356387         2.3968322522 
H   10   1          6.9044829269         0.3263878287         3.1574394622 
H   11   1          5.1588125059        -3.7423134801         4.0030408846 
H   12   1          0.6967533639        -4.5993874298         4.2494800697 
H   13   1         -2.2874983673        -2.9588708195         1.4611589235 
[GTO]
  1 0
s   6 1.0 
     3047.5249000000         0.5363343823
      457.3695100000         0.9894506076
      103.9486900000         1.5972822308
       29.2101550000         2.0791870615
        9.2866630000         1.7741742532
        3.1639270000         0.6125798260
s   3 1.0 
        7.8682724000        -0.3995563516
        1.8812885000        -0.1841552393
        0.5442493000         0.5163903794
p   3 1.0 
        7.8682724000         1.2960827175
        1.8812885000         0.9937536282
        0.5442493000         0.4959527138
s   1 1.0 
        0.1687144000         0.1876178721
p   1 1.0 
        0.1687144000         0.1541275509

  2 0
s   3 1.0 
       18.7311370000         0.2149354183
        2.8253937000         0.3645711272
        0.6401217000         0.4150514277
s   1 1.0 
        0.1612778000         0.1813806839

  3 0
s   6 1.0 
     3047.5249000000         0.5363343823
      457.3695100000         0.9894506076
      103.9486900000         1.5972822308
       29.2101550000         2.0791870615
        9.2866630000         1.7741742532
        3.1639270000         0.6125798260
s   3 1.0 
        7.8682724000        -0.3995563516
        1.8812885000        -0.1841552393
        0.5442493000         0.5163903794
p   3 1.0 
        7.8682724000         1.2960827175
        1.8812885000         0.9937536282
        0.5442493000         0.4959527138
s   1 1.0 
        0.1687144000         0.1876178721
p   1 1.0 
        0.1687144000         0.1541275509

  4 0
s   6 1.0 
     3047.5249000000         0.5363343823
      457.3695100000         0.9894506076
      103.9486900000         1.5972822308
       29.2101550000         2.0791870615
        9.2866630000         1.7741742532
        3.1639270000         0.6125798260
s   3 1.0 
        7.8682724000        -0.3995563516
        1.8812885000        -0.1841552393
        0.5442493000         0.5163903794
p   3 1.0 
        7.8682724000         1.2960827175
        1.8812885000         0.9937536282
        0.5442493000         0.4959527138
s   1 1.0 
        0.1687144000         0.1876178721
p   1 1.0 
        0.1687144000         0.1541275509

  5 0
s   6 1.0 
     3047.5249000000         0.5363343823
      457.3695100000         0.9894506076
      103.9486900000         1.5972822308
       29.2101550000         2.0791870615
        9.2866630000         1.7741742532
        3.1639270000         0.6125798260
s   3 1.0 
        7.8682724000        -0.3995563516
        1.8812885000        -0.1841552393
        0.5442493000         0.5163903794
p   3 1.0 
        7.8682724000         1.2960827175
        1.8812885000         0.9937536282
        0.5442493000         0.4959527138
s   1 1.0 
        0.1687144000         0.1876178721
p   1 1.0 
        0.1687144000         0.1541275509

  6 0
s   6 1.0 
     3047.5249000000         0.5363343823
      457.3695100000         0.9894506076
      103.9486900000         1.5972822308
       29.2101550000         2.0791870615
        9.2866630000         1.7741742532
        3.1639270000         0.6125798260
s   3 1.0 
        7.8682724000        -0.3995563516
        1.8812885000        -0.1841552393
        0.5442493000         0.5163903794
p   3 1.0 
        7.8682724000         1.2960827175
        1.8812885000         0.9937536282
        0.5442493000         0.4959527138
s   1 1.0 
        0.1687144000         0.1876178721
p   1 1.0 
        0.1687144000         0.1541275509

  7 0
s   3 1.0 
       18.7311370000         0.2149354183
        2.8253937000         0.3645711272
        0.6401217000         0.4150514277
s   1 1.0 
        0.1612778000         0.1813806839

  8 0
s   3 1.0 
       18.7311370000         0.2149354183
        2.8253937000         0.3645711272
        0.6401217000         0.4150514277
s   1 1.0 
        0.1612778000         0.1813806839

  9 0
s   3 1.0 
       18.7311370000         0.2149354183
        2.8253937000         0.3645711272
        0.6401217000         0.4150514277
s   1 1.0 
        0.1612778000         0.1813806839

 10 0
s   3 1.0 
       18.7311370000         0.2149354183
        2.8253937000         0.3645711272
        0.6401217000         0.4150514277
s   1 1.0 
        0.1612778000         0.1813806839

 11 0
s   3 1.0 
       18.7311370000         0.2149354183
        2.8253937000         0.3645711272
        0.6401217000         0.4150514277
s   1 1.0 
        0.1612778000         0.1813806839

 12 0
s   3 1.0 
       18.7311370000         0.2149354183
        2.8253937000         0.3645711272
        0.6401217000         0.4150514277
s   1 1.0 
        0.1612778000         0.1813806839

 13 0
s   3 1.0 
       18.7311370000         0.2149354183
        2.8253937000         0.3645711272
        0.6401217000         0.4150514277
s   1 1.0 
        0.1612778000         0.1813806839

[5D]
[7F]
[9G]
[MO]
 Sym=     1a
 Ene= -1.12361129510122E+01
 Spin= Alpha
 Occup= 2.000000
  1       0.000290258488
  2      -0.000011257433
  3      -0.000011679043
  4       0.000041732421
  5      -0.000051588780
  6       0.000050991297
  7      -0.000323774369
  8      -0.000203131796
  9       0.000283508407
 10      -0.000097782707
 11       0.000537156533
 12       0.059209045031
 13       0.000619645816
 14       0.000089382887
 15       0.000173288493
 16      -0.000062006437
 17       0.005566591518
 18      -0.001999283246
 19      -0.001991781145
 20       0.000264443173
 21       0.992850479014
 22       0.024856075545
 23      -0.000073327607
 24       0.000162070820
 25      -0.000064781545
 26      -0.017369834162
 27       0.001434769603
 28      -0.001803727020
 29       0.000748737700
 30       0.046259951476
 31       0.000484125393
 32      -0.000182701135
 33      -0.000069324311
 34      -0.000031640535
 35       0.003977343111
 36       0.002355072873
 37       0.001404754449
 38       0.000094497244
 39       0.029556439430
 40       0.000496100724
 41      -0.000200875985
 42       0.000042040819
 43      -0.000061434063
 44      -0.000582942714
 45       0.000460592917
 46      -0.000406061845
 47       0.000235555057
 48       0.000000790379
 49       0.000000227834
 50       0.000003081625
 51      -0.000013915966
 52      -0.000277837543
 53      -0.000334232452
 54      -0.000080939504
 55       0.000495892879
 56      -0.000268666309
 57       0.002049718582
 58      -0.000083325008
 59       0.000453100958
 60       0.000041109827
 61       0.000460027550
 Sym=     1a
 Ene= -1.12352145729503E+01
 Spin= Alpha
 Occup= 2.000000
  1       0.016807316583
  2       0.000000601284
  3       0.000021614648
  4       0.000162685365
  5      -0.000037881573
  6       0.003666780006
  7       0.000194868327
  8      -0.002160992599
  9       0.001449643559
 10      -0.000200420470
 11       0.000074671529
 12      -0.002599398329
 13      -0.000072197120
 14       0.000045139039
 15      -0.000028511706
 16       0.000001705514
 17       0.000219093706
 18      -0.000273475584
 19       0.000134843562
 20      -0.000063433497
 21      -0.034285388355
 22      -0.001007581765
 23       0.000184572484
 24       0.000028401548
 25       0.000048748712
 26      -0.000166891870
 27       0.000276957973
 28      -0.000230957174
 29       0.000225659792
 30       0.105494224724
 31       0.001634588005
 32       0.000139197619
 33      -0.000128552472
 34       0.000178839126
 35       0.005210869155
 36      -0.000958875214
 37       0.002003077349
 38      -0.002319989398
 39       0.989783452582
 40       0.024706545732
 41       0.000154774519
 42       0.000018657236
 43       0.000057064941
 44      -0.017177178805
 45      -0.002221178883
 46      -0.000847111232
 47      -0.000004692683
 48      -0.000092901970
 49       0.000201353592
 50      -0.000198356229
 51       0.000896019193
 52      -0.000010351306
 53      -0.000335737868
 54       0.000013410553
 55       0.000115609520
 56       0.000004854709
 57      -0.000066221214
 58      -0.000048256109
 59       0.000799898378
 60      -0.000265449490
 61       0.002086696179
 Sym=     1a
 Ene= -1.12274854552418E+01
 Spin= Alpha
 Occup= 2.000000
  1       0.003958427281
  2       0.000078057089
  3      -0.000004607858
  4      -0.000114740357
  5       0.000139691310
  6       0.001802181612
  7       0.000312245090
  8      -0.000641633176
  9       0.000465975467
 10      -0.000066179868
 11      -0.000186277865
 12       0.008266983761
 13       0.000369059371
 14      -0.000158792143
 15      -0.000131151663
 16       0.000045401761
 17       0.000763107564
 18      -0.000011693374
 19       0.000137228300
 20      -0.000261308333
 21       0.042651593641
 22       0.001721780829
 23      -0.000163070447
 24      -0.000034696518
 25      -0.000032594771
 26      -0.006017145945
 27       0.002923353332
 28      -0.000078773563
 29       0.000984241548
 30      -0.989469230793
 31      -0.025118827199
 32      -0.000064565308
 33      -0.000172106687
 34       0.000196816377
 35       0.019542197606
 36       0.000848344821
 37       0.002696955665
 38      -0.002312054662
 39       0.107496576192
 40       0.003733511236
 41       0.000214261870
 42      -0.000036693800
 43       0.000121070207
 44      -0.009471717463
 45      -0.003571011484
 46      -0.000189550803
 47      -0.001257730791
 48      -0.000058593393
 49      -0.000103050979
 50      -0.000046479561
 51       0.000146702945
 52       0.000038677510
 53      -0.000320092019
 54      -0.000042660106
 55      -0.000319734383
 56       0.000062259991
 57      -0.000343951487
 58       0.000296640255
 59      -0.001715014249
 60      -0.000006143941
 61      -0.000341349522
 Sym=     1a
 Ene= -1.12220593504480E+01
 Spin= Alpha
 Occup= 2.000000
  1       0.000355649737
  2       0.000028883552
  3      -0.000000945011
  4       0.000010077787
  5       0.000095248337
  6      -0.000029595813
  7       0.000360308679
  8       0.000048082566
  9      -0.000591228006
 10       0.000145935655
 11      -0.000897928788
 12      -0.994334407415
 13      -0.024761000049
 14       0.000082043516
 15       0.000197922418
 16       0.000009087589
 17       0.016494518405
 18      -0.000870931214
 19      -0.001669275660
 20       0.000180557964
 21       0.060151030078
 22       0.002346149585
 23       0.000121380208
 24       0.000299996310
 25      -0.000042324460
 26      -0.006839280767
 27      -0.001190780507
 28      -0.002848054819
 29       0.000547873606
 30      -0.005730288826
 31      -0.000033364236
 32       0.000105833167
 33       0.000080322769
 34       0.000002475975
 35       0.000516187495
 36      -0.000417196005
 37       0.000048433115
 38      -0.000141668352
 39       0.000053107683
 40      -0.000012958363
 41       0.000038389824
 42       0.000019314016
 43       0.000017920384
 44      -0.000018331211
 45      -0.000142888157
 46       0.000361794260
 47      -0.000359719699
 48      -0.000004257451
 49      -0.000177684349
 50      -0.000036002133
 51       0.000459579844
 52       0.000157234749
 53      -0.002742988810
 54       0.000209435162
 55      -0.002659843187
 56       0.000113902788
 57       0.000008112982
 58      -0.000034238197
 59      -0.000191114619
 60       0.000005425707
 61       0.000001249287
 Sym=     1a
 Ene= -1.12163656208432E+01
 Spin= Alpha
 Occup= 2.000000
  1      -0.996056273820
  2      -0.026107253277
  3       0.000024796706
  4      -0.000013168044
  5      -0.000080729868
  6       0.019224098371
  7      -0.000145033844
  8      -0.000728507782
  9       0.000864959835
 10      -0.000074358406
 11      -0.003186773897
 12      -0.000349625019
 13       0.000012763867
 14      -0.000122235922
 15       0.000000620198
 16      -0.000014245882
 17      -0.000261683351
 18       0.000656473694
 19       0.000331240248
 20      -0.000015150209
 21      -0.000108431526
 22      -0.000027606461
 23      -0.000039678889
 24       0.000035427909
 25      -0.000031860790
 26       0.000392416011
 27       0.000110020411
 28       0.000458590848
 29      -0.000176373944
 30      -0.002138963530
 31       0.000132043891
 32      -0.000055925431
 33       0.000100759902
 34      -0.000122718910
 35      -0.000566540750
 36       0.000620499463
 37      -0.000372018723
 38       0.000577811230
 39       0.017303182971
 40       0.000870011988
 41       0.000016372534
 42       0.000117363210
 43      -0.000119275259
 44      -0.004061466102
 45      -0.000077684582
 46      -0.002279757989
 47       0.002117999807
 48      -0.000046794386
 49      -0.003140510792
 50      -0.000069275115
 51      -0.003296355568
 52       0.000054104999
 53      -0.000035753152
 54      -0.000040917668
 55      -0.000430075076
 56       0.000029989883
 57       0.000032420946
 58      -0.000027972753
 59      -0.000415095539
 60       0.000120905024
 61      -0.000096376300
 Sym=     1a
 Ene= -1.09866155640619E+00
 Spin= Alpha
 Occup= 2.000000
  1       0.067194569451
  2      -0.125153473144
  3      -0.001501465851
  4       0.031082995228
  5      -0.029890767197
  6      -0.118058682044
  7      -0.005665088670
  8       0.003518176041
  9      -0.009373251815
 10      -0.037200568976
 11      -0.002100398033
 12       0.075930278803
 13      -0.148531786635
 14       0.033990179050
 15       0.057636264296
 16      -0.008176003405
 17      -0.100967500794
 18      -0.000698610047
 19       0.003277291466
 20       0.000474752218
 21       0.111172067226
 22      -0.220776009676
 23       0.031432257857
 24      -0.031341877278
 25       0.017232469868
 26      -0.139631649999
 27       0.005931125003
 28       0.000411544796
 29       0.001920509702
 30       0.126433646388
 31      -0.249578625721
 32       0.003136654267
 33      -0.041837415024
 34       0.042294756134
 35      -0.164168844477
 36      -0.004244324010
 37      -0.004154233305
 38       0.002386468357
 39       0.113464459027
 40      -0.225346203139
 41      -0.059217028243
 42       0.007451643556
 43      -0.032134939009
 44      -0.137744571518
 45       0.003912592846
 46       0.004539241185
 47      -0.002844520772
 48      -0.031689828337
 49      -0.004521733981
 50      -0.033984615394
 51      -0.000325638481
 52      -0.039696449467
 53      -0.007284680465
 54      -0.033449948561
 55      -0.002026666152
 56      -0.053551758893
 57      -0.008246578868
 58      -0.060051296517
 59      -0.008901940119
 60      -0.053494659318
 61      -0.004481114165
 Sym=     1a
 Ene= -1.02243812765917E+00
 Spin= Alpha
 Occup= 2.000000
  1       0.101215844953
  2      -0.192279643165
  3       0.009195762370
  4       0.029799622935
  5      -0.024938776311
  6      -0.180463473198
  7       0.002930377560
  8       0.000934470676
  9      -0.001545794276
 10      -0.055099919456
 11      -0.005614558933
 12      -0.120582827140
 13       0.236758834678
 14      -0.026889666914
 15      -0.078529692536
 16       0.017467084737
 17       0.181779051052
 18      -0.004231228616
 19      -0.002906082745
 20       0.000585215243
 21      -0.115020127779
 22       0.229682273433
 23       0.053341166907
 24       0.077230302398
 25      -0.007657024640
 26       0.158454490161
 27       0.011803949097
 28      -0.004038897585
 29       0.005259398204
 30       0.020968088878
 31      -0.041738344337
 32       0.099337936431
 33      -0.007958108026
 34       0.051511840669
 35      -0.027036357591
 36       0.015731335024
 37       0.011282738708
 38      -0.000898313446
 39       0.102227150624
 40      -0.202912976167
 41      -0.011549817640
 42      -0.020252254537
 43       0.015156155139
 44      -0.147190707058
 45      -0.002189975760
 46      -0.006079390308
 47       0.004715207360
 48      -0.060173915122
 49      -0.008729060641
 50      -0.058646726805
 51      -0.005683653214
 52       0.061324784154
 53       0.006232706134
 54       0.068534827912
 55       0.015575537669
 56       0.067680711899
 57       0.011163736960
 58      -0.010284444502
 59       0.003778703991
 60      -0.063051668315
 61      -0.016513936806
 Sym=     1a
 Ene= -9.40900660300529E-01
 Spin= Alpha
 Occup= 2.000000
  1      -0.139097419515
  2       0.262166757247
  3      -0.002959370912
  4       0.019551771398
  5      -0.017129029279
  6       0.292984010441
  7       0.000623902948
  8       0.002148628814
  9       0.002742022671
 10       0.098095944341
 11       0.022928720277
 12      -0.079699364478
 13       0.156401689491
 14      -0.001129203128
 15      -0.015251718148
 16       0.002145175170
 17       0.135594506377
 18      -0.002398157953
 19       0.002017308060
 20      -0.003213144813
 21      -0.006296345509
 22       0.011349977509
 23       0.096858696265
 24       0.088218711961
 25      -0.006815571496
 26       0.007979773179
 27       0.019889872437
 28       0.006084949450
 29       0.002802236368
 30       0.118150328274
 31      -0.235067798565
 32       0.041383914844
 33       0.010577133569
 34       0.014426835320
 35      -0.182577426791
 36       0.002701942987
 37       0.015120271115
 38      -0.009123601290
 39       0.029901890504
 40      -0.056215386785
 41      -0.052470610721
 42       0.114836393549
 43      -0.128505192256
 44      -0.074541847816
 45      -0.011591455308
 46       0.010486090230
 47      -0.015612497931
 48       0.101855283065
 49       0.027934981241
 50       0.099779051465
 51       0.024668127250
 52       0.057958701121
 53       0.016102069203
 54       0.058186876510
 55       0.018742236916
 56       0.000716756394
 57      -0.003696878183
 58      -0.091228813757
 59      -0.025426261938
 60      -0.020666271712
 61      -0.007350164405
 Sym=     1a
 Ene= -8.15015939312960E-01
 Spin= Alpha
 Occup= 2.000000
  1      -0.058593694766
  2       0.110771747784
  3       0.014133698179
  4       0.062473915190
  5      -0.054590606851
  6       0.144601157005
  7      -0.002770412893
  8       0.014087505987
  9      -0.016958519426
 10       0.059863101738
 11       0.023368143869
 12       0.102394490717
 13      -0.203945906934
 14      -0.040376376238
 15      -0.080898928977
 16       0.014605392026
 17      -0.190078839152
 18      -0.015259017920
 19      -0.031858774307
 20       0.005677997832
 21      -0.086353158998
 22       0.176388903596
 23      -0.082120076073
 24      -0.152252815314
 25       0.030517900556
 26       0.162083773166
 27      -0.019230018580
 28      -0.050396933620
 29       0.011732780512
 30      -0.031493296673
 31       0.065807218916
 32       0.194880439071
 33      -0.033318604170
 34       0.097118211963
 35       0.054940155350
 36       0.047260975573
 37      -0.008416736230
 38       0.023673245110
 39       0.091387243302
 40      -0.182606534081
 41       0.035973907396
 42       0.063339908173
 43      -0.049993218712
 44      -0.176972746102
 45       0.022959841176
 46       0.007875411358
 47      -0.000614145104
 48       0.059866043224
 49       0.020353863208
 50       0.058851242017
 51       0.023647281323
 52      -0.109728837052
 53      -0.043490207292
 54      -0.113102334692
 55      -0.048293734788
 56       0.108541125868
 57       0.044570519244
 58       0.041805019867
 59       0.019020881468
 60      -0.106119006435
 61      -0.043742744803
 Sym=     1a
 Ene= -7.15558644446361E-01
 Spin= Alpha
 Occup= 2.000000
  1       0.023078636353
  2      -0.041494156160
  3      -0.090709966959
  4      -0.108570131562
  5       0.053628187432
  6      -0.066490574324
  7      -0.033618024342
  8      -0.038685760918
  9       0.017255986416
 10      -0.080883500833
 11      -0.045171931089
 12       0.040177854689
 13      -0.080831153157
 14       0.024285956462
 15      -0.198841442224
 16       0.055334280496
 17      -0.081644427590
 18       0.003899208109
 19      -0.066203734057
 20       0.018667033547
 21      -0.069701198827
 22       0.141956557855
 23       0.178873068119
 24      -0.029541304609
 25       0.037963538291
 26       0.140531969705
 27       0.059878550877
 28      -0.042524509444
 29       0.024272837945
 30       0.077450479591
 31      -0.158554210724
 32       0.002720521123
 33       0.028816559844
 34      -0.039383422704
 35      -0.151499956196
 36      -0.005407407481
 37       0.034853966561
 38      -0.035854483952
 39      -0.073458056763
 40       0.149547033296
 41      -0.165309722085
 42       0.006388336350
 43      -0.086132058368
 44       0.152434671448
 45      -0.074875261854
 46      -0.003013423467
 47      -0.035092212347
 48      -0.006670382447
 49      -0.000276958962
 50      -0.053244966685
 51      -0.029756448966
 52      -0.142346977461
 53      -0.087343938288
 54      -0.042476577496
 55      -0.020362172855
 56       0.143262145349
 57       0.068673876132
 58      -0.100244405447
 59      -0.040742169225
 60       0.152081249286
 61       0.076963513915
 Sym=     1a
 Ene= -6.66193869666516E-01
 Spin= Alpha
 Occup= 2.000000
  1       0.015566843316
  2      -0.027904779315
  3       0.090444893825
  4      -0.065254424131
  5       0.102729783842
  6      -0.048552294600
  7       0.046396730772
  8      -0.022466265529
  9       0.041980262668
 10       0.016230946103
 11       0.010092927707
 12       0.021403069182
 13      -0.042445083968
 14      -0.194321448470
 15      -0.091093967778
 16      -0.021019437400
 17      -0.061276088998
 18      -0.075196638022
 19      -0.022981900048
 20      -0.014234092495
 21      -0.025889507015
 22       0.055797175107
 23      -0.096727936945
 24       0.144283765722
 25      -0.084182171322
 26       0.047840983676
 27      -0.029575940452
 28       0.045231529934
 29      -0.028918471405
 30       0.019698247849
 31      -0.037966268361
 32       0.068688120123
 33       0.231511815412
 34      -0.165902217307
 35      -0.047935800977
 36       0.025439238754
 37       0.097111945713
 38      -0.069383630699
 39      -0.024267589682
 40       0.051183951363
 41       0.169150023707
 42       0.085542909263
 43       0.002526281919
 44       0.037010155639
 45       0.049965216391
 46       0.037262786252
 47      -0.008200781741
 48      -0.091098939480
 49      -0.055478905666
 50      -0.029833506704
 51      -0.016929035159
 52       0.000936571605
 53      -0.004428766003
 54      -0.139989382237
 55      -0.087735734688
 56      -0.081293745971
 57      -0.060104746052
 58      -0.187113129906
 59      -0.114367546056
 60      -0.081526440578
 61      -0.058121317207
 Sym=     1a
 Ene= -6.05480763076958E-01
 Spin= Alpha
 Occup= 2.000000
  1       0.009937018470
  2      -0.018568488092
  3      -0.178620389043
  4      -0.033153191826
  5       0.006433891131
  6      -0.031912198100
  7      -0.079568592589
  8      -0.014744057971
  9       0.008225332735
 10      -0.108765533763
 11      -0.072760572050
 12      -0.006671514968
 13       0.014561364137
 14      -0.245421480912
 15       0.106330966339
 16      -0.042395338928
 17       0.028358233948
 18      -0.112673577978
 19       0.047539534995
 20      -0.016068320152
 21      -0.013198896316
 22       0.030548705310
 23      -0.196828241338
 24       0.054600922295
 25      -0.014130984711
 26       0.022429123861
 27      -0.070396939587
 28       0.011549426669
 29       0.003929776646
 30       0.009872081358
 31      -0.021766989555
 32       0.177661491811
 33      -0.040618299919
 34       0.153460969633
 35       0.007179246388
 36       0.052369248336
 37       0.001806018984
 38       0.045038167222
 39       0.003327769275
 40      -0.009539896027
 41      -0.250383415092
 42       0.037299021652
 43      -0.111405792626
 44       0.002267429086
 45      -0.105907311479
 46       0.008732691391
 47      -0.038198507042
 48       0.060408702962
 49       0.049613259443
 50      -0.005305280195
 51       0.000753948327
 52       0.142157784185
 53       0.091971258450
 54      -0.132698903349
 55      -0.091824782293
 56      -0.086043524596
 57      -0.068147981372
 58       0.033032569604
 59       0.030438625094
 60       0.130400194784
 61       0.091551184082
 Sym=     1a
 Ene= -5.85128476033600E-01
 Spin= Alpha
 Occup= 2.000000
  1       0.005751586851
  2      -0.005755297487
  3       0.027941807318
  4      -0.179437415915
  5       0.131879743597
  6      -0.036070191083
  7       0.014698630223
  8      -0.075388689046
  9       0.054225548493
 10      -0.016905180028
 11      -0.009576832723
 12       0.007328403766
 13      -0.019596251151
 14       0.157763160847
 15       0.282660298626
 16      -0.056189617461
 17       0.016260621048
 18       0.053776551902
 19       0.100726522679
 20      -0.022885433432
 21       0.008299810419
 22      -0.019592468543
 23      -0.117862914206
 24      -0.308107703378
 25       0.041974603122
 26       0.003126078857
 27      -0.028442231693
 28      -0.110986572953
 29       0.014580126560
 30       0.009042606170
 31      -0.017502339677
 32       0.194425502194
 33       0.044559563528
 34      -0.019743629881
 35      -0.018418777334
 36       0.080252542381
 37       0.017473745987
 38      -0.013898356793
 39      -0.025083088598
 40       0.051368205477
 41       0.034065469098
 42       0.143070827826
 43      -0.158765415670
 44       0.086338500282
 45       0.020637085263
 46       0.056859571573
 47      -0.065265612461
 48      -0.074466560814
 49      -0.055240840686
 50      -0.071756538429
 51      -0.053866156884
 52       0.089718363265
 53       0.065960813650
 54       0.116763931682
 55       0.091844716124
 56       0.097848636430
 57       0.073300136927
 58      -0.073804095628
 59      -0.051773828647
 60      -0.026034732927
 61      -0.021776137271
 Sym=     1a
 Ene= -5.67060390548507E-01
 Spin= Alpha
 Occup= 2.000000
  1       0.000432491079
  2      -0.001755598948
  3      -0.090813150050
  4       0.257722763215
  5       0.315033196765
  6      -0.000376366230
  7      -0.048314309059
  8       0.131828625511
  9       0.157770456355
 10      -0.131213549699
 11      -0.101617405358
 12       0.005336886655
 13      -0.011019657938
 14       0.027192305915
 15       0.020582220919
 16       0.018299615835
 17      -0.014644128937
 18       0.007331699540
 19       0.003888929458
 20       0.014789253881
 21      -0.000410279383
 22       0.000929384483
 23       0.022851585937
 24      -0.035648605625
 25       0.044120469885
 26       0.002102644384
 27       0.010260357686
 28      -0.015208802731
 29       0.021046535675
 30       0.002916500228
 31      -0.003501817406
 32      -0.030565245445
 33       0.047741595263
 34       0.041718755769
 35      -0.024117057015
 36      -0.012723954261
 37       0.021742138538
 38       0.038810970742
 39      -0.005496773594
 40       0.008964542448
 41      -0.015543317170
 42       0.099208568750
 43       0.086276611051
 44       0.031838102489
 45      -0.000394185202
 46       0.046392593383
 47       0.048430341961
 48      -0.138771269226
 49      -0.108635048751
 50       0.255060446332
 51       0.198763584909
 52      -0.000247016099
 53       0.009755896544
 54       0.014413403227
 55       0.013324849702
 56       0.037065424889
 57       0.028120020795
 58      -0.005383154328
 59      -0.007772729982
 60      -0.012655995849
 61      -0.011022180582
 Sym=     1a
 Ene= -5.39315953845399E-01
 Spin= Alpha
 Occup= 2.000000
  1       0.005220916468
  2      -0.013161236433
  3       0.310173524287
  4       0.057890657875
  5       0.044029943335
  6       0.004028737804
  7       0.176435041468
  8       0.026492229298
  9       0.034498929872
 10       0.188162769849
 11       0.147556051005
 12       0.009587008727
 13      -0.021477211067
 14      -0.174415954583
 15       0.076728518363
 16      -0.056992914933
 17      -0.006510557944
 18      -0.107183257772
 19       0.036105077790
 20      -0.037435565900
 21      -0.007940698191
 22       0.014397285474
 23       0.124933430018
 24      -0.084471891581
 25       0.040214500396
 26       0.017232581999
 27       0.078927145968
 28      -0.062820951668
 29       0.028391207871
 30       0.035604309730
 31      -0.079699943201
 32      -0.064624432641
 33      -0.102957235932
 34       0.038213830379
 35      -0.073503057683
 36      -0.017804982879
 37      -0.023903900486
 38      -0.000717955154
 39      -0.007816773441
 40       0.015175574207
 41      -0.120995168822
 42      -0.086252397600
 43       0.004523049905
 44       0.017991894030
 45      -0.076474122429
 46      -0.055668114912
 47       0.004737187706
 48      -0.170158205450
 49      -0.132017015143
 50       0.011059361723
 51       0.011714803118
 52       0.120538319558
 53       0.092054214839
 54      -0.128187644409
 55      -0.092276011731
 56       0.116103743980
 57       0.079141498627
 58       0.036678709944
 59       0.046048524647
 60       0.111129047624
 61       0.076974046944
 Sym=     1a
 Ene= -5.06596047151733E-01
 Spin= Alpha
 Occup= 2.000000
  1      -0.016160808467
  2       0.036420830645