[Molden Format]
[Title]
 Molden file created by orca_2mkl for BaseName=h-shift_010

[Atoms] AU
C    1   6         -0.0243850260         0.0199970819        -0.3413109960 
H    2   1          1.9005429263         0.0338298772        -1.0371100482 
C    3   6          4.8888726865         0.0112287527         2.9099665969 
C    4   6          3.8913391728        -2.2469240575         3.3789796158 
C    5   6          1.2427387077        -3.0392654384         3.0977713596 
C    6   6         -0.4437417113        -2.1256754493         1.4679638273 
H    7   1         -1.2908492454        -0.0832858999        -1.9413799081 
H    8   1         -0.3464000284         1.8261576365         0.5835493199 
H    9   1          3.7808865700         1.6176244679         2.3737738139 
H   10   1          6.8856234601         0.3235759162         3.0627490651 
H   11   1          5.1441898050        -3.7229721332         4.0090369856 
H   12   1          0.6800822000        -4.6029703506         4.2725989792 
H   13   1         -2.2795652970        -3.0007131356         1.4077817191 
[GTO]
  1 0
s   6 1.0 
     3047.5249000000         0.5363343823
      457.3695100000         0.9894506076
      103.9486900000         1.5972822308
       29.2101550000         2.0791870615
        9.2866630000         1.7741742532
        3.1639270000         0.6125798260
s   3 1.0 
        7.8682724000        -0.3995563516
        1.8812885000        -0.1841552393
        0.5442493000         0.5163903794
p   3 1.0 
        7.8682724000         1.2960827175
        1.8812885000         0.9937536282
        0.5442493000         0.4959527138
s   1 1.0 
        0.1687144000         0.1876178721
p   1 1.0 
        0.1687144000         0.1541275509

  2 0
s   3 1.0 
       18.7311370000         0.2149354183
        2.8253937000         0.3645711272
        0.6401217000         0.4150514277
s   1 1.0 
        0.1612778000         0.1813806839

  3 0
s   6 1.0 
     3047.5249000000         0.5363343823
      457.3695100000         0.9894506076
      103.9486900000         1.5972822308
       29.2101550000         2.0791870615
        9.2866630000         1.7741742532
        3.1639270000         0.6125798260
s   3 1.0 
        7.8682724000        -0.3995563516
        1.8812885000        -0.1841552393
        0.5442493000         0.5163903794
p   3 1.0 
        7.8682724000         1.2960827175
        1.8812885000         0.9937536282
        0.5442493000         0.4959527138
s   1 1.0 
        0.1687144000         0.1876178721
p   1 1.0 
        0.1687144000         0.1541275509

  4 0
s   6 1.0 
     3047.5249000000         0.5363343823
      457.3695100000         0.9894506076
      103.9486900000         1.5972822308
       29.2101550000         2.0791870615
        9.2866630000         1.7741742532
        3.1639270000         0.6125798260
s   3 1.0 
        7.8682724000        -0.3995563516
        1.8812885000        -0.1841552393
        0.5442493000         0.5163903794
p   3 1.0 
        7.8682724000         1.2960827175
        1.8812885000         0.9937536282
        0.5442493000         0.4959527138
s   1 1.0 
        0.1687144000         0.1876178721
p   1 1.0 
        0.1687144000         0.1541275509

  5 0
s   6 1.0 
     3047.5249000000         0.5363343823
      457.3695100000         0.9894506076
      103.9486900000         1.5972822308
       29.2101550000         2.0791870615
        9.2866630000         1.7741742532
        3.1639270000         0.6125798260
s   3 1.0 
        7.8682724000        -0.3995563516
        1.8812885000        -0.1841552393
        0.5442493000         0.5163903794
p   3 1.0 
        7.8682724000         1.2960827175
        1.8812885000         0.9937536282
        0.5442493000         0.4959527138
s   1 1.0 
        0.1687144000         0.1876178721
p   1 1.0 
        0.1687144000         0.1541275509

  6 0
s   6 1.0 
     3047.5249000000         0.5363343823
      457.3695100000         0.9894506076
      103.9486900000         1.5972822308
       29.2101550000         2.0791870615
        9.2866630000         1.7741742532
        3.1639270000         0.6125798260
s   3 1.0 
        7.8682724000        -0.3995563516
        1.8812885000        -0.1841552393
        0.5442493000         0.5163903794
p   3 1.0 
        7.8682724000         1.2960827175
        1.8812885000         0.9937536282
        0.5442493000         0.4959527138
s   1 1.0 
        0.1687144000         0.1876178721
p   1 1.0 
        0.1687144000         0.1541275509

  7 0
s   3 1.0 
       18.7311370000         0.2149354183
        2.8253937000         0.3645711272
        0.6401217000         0.4150514277
s   1 1.0 
        0.1612778000         0.1813806839

  8 0
s   3 1.0 
       18.7311370000         0.2149354183
        2.8253937000         0.3645711272
        0.6401217000         0.4150514277
s   1 1.0 
        0.1612778000         0.1813806839

  9 0
s   3 1.0 
       18.7311370000         0.2149354183
        2.8253937000         0.3645711272
        0.6401217000         0.4150514277
s   1 1.0 
        0.1612778000         0.1813806839

 10 0
s   3 1.0 
       18.7311370000         0.2149354183
        2.8253937000         0.3645711272
        0.6401217000         0.4150514277
s   1 1.0 
        0.1612778000         0.1813806839

 11 0
s   3 1.0 
       18.7311370000         0.2149354183
        2.8253937000         0.3645711272
        0.6401217000         0.4150514277
s   1 1.0 
        0.1612778000         0.1813806839

 12 0
s   3 1.0 
       18.7311370000         0.2149354183
        2.8253937000         0.3645711272
        0.6401217000         0.4150514277
s   1 1.0 
        0.1612778000         0.1813806839

 13 0
s   3 1.0 
       18.7311370000         0.2149354183
        2.8253937000         0.3645711272
        0.6401217000         0.4150514277
s   1 1.0 
        0.1612778000         0.1813806839

[5D]
[7F]
[9G]
[MO]
 Sym=     1a
 Ene= -1.12360959956653E+01
 Spin= Alpha
 Occup= 2.000000
  1      -0.000364997903
  2       0.000017000924
  3       0.000010210466
  4      -0.000046093665
  5       0.000053051171
  6      -0.000066928005
  7       0.000335771719
  8       0.000224736986
  9      -0.000280008326
 10       0.000101412224
 11      -0.000547976833
 12      -0.058079807369
 13      -0.000599636701
 14      -0.000089906714
 15      -0.000174393225
 16       0.000069949114
 17      -0.005538928322
 18       0.001982510346
 19       0.001990915873
 20      -0.000326787739
 21      -0.992713209564
 22      -0.024849260137
 23       0.000068163105
 24      -0.000156828573
 25       0.000080062816
 26       0.017339571564
 27      -0.001400707874
 28       0.001760436167
 29      -0.000794782155
 30      -0.046641286557
 31      -0.000493176412
 32       0.000179910102
 33       0.000069775412
 34       0.000029551673
 35      -0.003950088913
 36      -0.002328932432
 37      -0.001396041781
 38      -0.000081880166
 39      -0.035258075942
 40      -0.000628951492
 41       0.000197036691
 42      -0.000040609420
 43       0.000063023685
 44       0.000645160108
 45      -0.000477112059
 46       0.000399378043
 47      -0.000256671904
 48       0.000000821566
 49       0.000001033491
 50      -0.000002978423
 51       0.000009935647
 52       0.000276342436
 53       0.000317536119
 54       0.000080900866
 55      -0.000494695674
 56       0.000266232305
 57      -0.002063758200
 58       0.000083569424
 59      -0.000442942991
 60      -0.000040661967
 61      -0.000479725840
 Sym=     1a
 Ene= -1.12353415573610E+01
 Spin= Alpha
 Occup= 2.000000
  1       0.016337831798
  2      -0.000004218156
  3       0.000024470960
  4       0.000160497297
  5      -0.000035621461
  6       0.003668950734
  7       0.000147358433
  8      -0.002176528277
  9       0.001438263546
 10      -0.000200094223
 11       0.000103198974
 12      -0.002864304868
 13      -0.000070269799
 14       0.000040066098
 15      -0.000030165126
 16       0.000001301407
 17       0.000185297823
 18      -0.000237218124
 19       0.000165166231
 20      -0.000050914816
 21      -0.039882733994
 22      -0.001156996848
 23       0.000182542454
 24       0.000033496250
 25       0.000050156360
 26      -0.000029484556
 27       0.000264082872
 28      -0.000222596024
 29       0.000200792064
 30       0.102797840530
 31       0.001574231506
 32       0.000137304828
 33      -0.000127872429
 34       0.000177828479
 35       0.005234408459
 36      -0.000978311025
 37       0.001996877524
 38      -0.002346333666
 39       0.989866844516
 40       0.024718578264
 41       0.000162410351
 42       0.000026612179
 43       0.000062029954
 44      -0.017225891863
 45      -0.002257754042
 46      -0.000892450002
 47      -0.000068766265
 48      -0.000091515239
 49       0.000193832977
 50      -0.000200427210
 51       0.000901674273
 52      -0.000002042882
 53      -0.000357437189
 54       0.000011609187
 55       0.000097954373
 56       0.000005416653
 57      -0.000082863646
 58      -0.000047853653
 59       0.000796999365
 60      -0.000266730205
 61       0.002067481606
 Sym=     1a
 Ene= -1.12274221830394E+01
 Spin= Alpha
 Occup= 2.000000
  1       0.003748100651
  2       0.000076487139
  3      -0.000008284267
  4      -0.000113421171
  5       0.000140689944
  6       0.001793115594
  7       0.000291927965
  8      -0.000650754842
  9       0.000437948989
 10      -0.000063971925
 11      -0.000179912489
 12       0.007939311429
 13       0.000355211674
 14      -0.000158780141
 15      -0.000130058445
 16       0.000048752973
 17       0.000793978852
 18      -0.000017114023
 19       0.000119279704
 20      -0.000261834379
 21       0.042550702313
 22       0.001718212100
 23      -0.000163149182
 24      -0.000035392094
 25      -0.000033167050
 26      -0.006051326273
 27       0.002922718047
 28      -0.000064833503
 29       0.000983542594
 30      -0.989737089454
 31      -0.025131947781
 32      -0.000073380644
 33      -0.000172081014
 34       0.000213820095
 35       0.019571769967
 36       0.000867631458
 37       0.002699327934
 38      -0.002395234364
 39       0.105063148182
 40       0.003670461774
 41       0.000210943078
 42      -0.000032815565
 43       0.000124126110
 44      -0.009473898360
 45      -0.003558680200
 46      -0.000202573818
 47      -0.001326745393
 48      -0.000059214962
 49      -0.000119804070
 50      -0.000038794249
 51       0.000148152481
 52       0.000037854483
 53      -0.000318404162
 54      -0.000044259829
 55      -0.000322221328
 56       0.000065218137
 57      -0.000349417939
 58       0.000298260287
 59      -0.001694994292
 60      -0.000002760194
 61      -0.000345974672
 Sym=     1a
 Ene= -1.12217947502076E+01
 Spin= Alpha
 Occup= 2.000000
  1      -0.000382817488
  2      -0.000038105405
  3      -0.000003137563
  4      -0.000009663698
  5      -0.000104856661
  6       0.000028982918
  7      -0.000366396299
  8      -0.000060986262
  9       0.000666803826
 10      -0.000153916638
 11       0.000981899769
 12       0.994404006280
 13       0.024785027703
 14      -0.000085992476
 15      -0.000200055158
 16      -0.000014362493
 17      -0.016530080117
 18       0.000896735065
 19       0.001671162192
 20      -0.000179171662
 21      -0.059020255452
 22      -0.002315458342
 23      -0.000121983462
 24      -0.000296982403
 25       0.000045549815
 26       0.006836711163
 27       0.001184943385
 28       0.002837068758
 29      -0.000607929795
 30       0.005457712638
 31       0.000030180684
 32      -0.000107343476
 33      -0.000080706785
 34      -0.000002154073
 35      -0.000499917448
 36       0.000411450134
 37      -0.000029022375
 38       0.000136311434
 39      -0.000032334793
 40       0.000020989841
 41      -0.000038952377
 42      -0.000019213967
 43      -0.000017426319
 44      -0.000050229341
 45       0.000112529527
 46      -0.000389667455
 47       0.000360053858
 48       0.000010685242
 49       0.000211927352
 50       0.000028376056
 51      -0.000484687938
 52      -0.000148090575
 53       0.002739349325
 54      -0.000210782796
 55       0.002654657554
 56      -0.000114040916
 57      -0.000005067664
 58       0.000035289043
 59       0.000199340796
 60      -0.000005797716
 61      -0.000010539915
 Sym=     1a
 Ene= -1.12159001407717E+01
 Spin= Alpha
 Occup= 2.000000
  1       0.996064319064
  2       0.026118980479
  3      -0.000017913230
  4       0.000011686168
  5       0.000090618433
  6      -0.019219874389
  7       0.000122179748
  8       0.000722703519
  9      -0.000876480988
 10       0.000075391390
 11       0.003200988113
 12       0.000377783212
 13      -0.000020608663
 14       0.000131265961
 15      -0.000002744916
 16       0.000012826271
 17       0.000270019549
 18      -0.000715884619
 19      -0.000318706918
 20       0.000031960938
 21       0.000117446896
 22       0.000023344119
 23       0.000042863117
 24      -0.000038200911
 25       0.000034687994
 26      -0.000439933111
 27      -0.000080859802
 28      -0.000445655070
 29       0.000179039120
 30       0.002019386678
 31      -0.000139687314
 32       0.000054565495
 33      -0.000097930597
 34       0.000121157847
 35       0.000592625190
 36      -0.000575101219
 37       0.000383481096
 38      -0.000589794677
 39      -0.016809544589
 40      -0.000854862770
 41      -0.000014346179
 42      -0.000114671698
 43       0.000116279612
 44       0.004062527031
 45       0.000084069999
 46       0.002264084700
 47      -0.002078491404
 48       0.000042620530
 49       0.003125678096
 50       0.000071114527
 51       0.003306699740
 52      -0.000050357685
 53      -0.000003042687
 54       0.000047690376
 55       0.000459874383
 56      -0.000028594151
 57      -0.000027116991
 58       0.000029544108
 59       0.000425030922
 60      -0.000125885723
 61       0.000080664796
 Sym=     1a
 Ene= -1.09944489918818E+00
 Spin= Alpha
 Occup= 2.000000
  1      -0.067802479501
  2       0.126098043573
  3       0.001496017483
  4      -0.031450145984
  5       0.029978028899
  6       0.119282202939
  7       0.006252657275
  8      -0.003577098434
  9       0.009877695311
 10       0.037786791953
 11       0.001875926576
 12      -0.075583639186
 13       0.147764100552
 14      -0.033938040162
 15      -0.057103761641
 16       0.008970552895
 17       0.100447477163
 18       0.000750089151
 19      -0.003170567377
 20      -0.000662258776
 21      -0.110793521636
 22       0.219942265562
 23      -0.031628790628
 24       0.030521880584
 25      -0.018478579380
 26       0.139213967876
 27      -0.005995505204
 28      -0.000256542582
 29      -0.002178400659
 30      -0.126256042623
 31       0.249172594680
 32      -0.002658718515
 33       0.041875027156
 34      -0.044124424209
 35       0.163986766634
 36       0.004182833183
 37       0.004080323901
 38      -0.002640819167
 39      -0.113672699898
 40       0.225736571470
 41       0.059656922282
 42      -0.006360567570
 43       0.032962937216
 44       0.137478550999
 45      -0.003924557593
 46      -0.004436637877
 47       0.002555754915
 48       0.031795128945
 49       0.004801591395
 50       0.034397171385
 51       0.000282040728
 52       0.039645732156
 53       0.007205401624
 54       0.033235218782
 55       0.001887191421
 56       0.053255506246
 57       0.008254693138
 58       0.059548798652
 59       0.008655415974
 60       0.053252595595
 61       0.004362600938
 Sym=     1a
 Ene= -1.02190957219130E+00
 Spin= Alpha
 Occup= 2.000000
  1      -0.100674415362
  2       0.191317617901
  3      -0.009584199975
  4      -0.029997929575
  5       0.024666827406
  6       0.179377301862
  7      -0.002969646732
  8      -0.000889777760
  9       0.001601808103
 10       0.054465193483
 11       0.005481020776
 12       0.121105193574
 13      -0.237730088236
 14       0.026606471662
 15       0.078663141545
 16      -0.018771790718
 17      -0.182951607933
 18       0.004309792380
 19       0.002940687461
 20      -0.000671306189
 21       0.115479105305
 22      -0.230618370951
 23      -0.053922130860
 24      -0.077130491560
 25       0.009806241236
 26      -0.159267020398
 27      -0.011882064620
 28       0.004226707351
 29      -0.005019975222
 30      -0.020878338197
 31       0.041554888948
 32      -0.098882236850
 33       0.007260746785
 34      -0.052037003264
 35       0.026401169362
 36      -0.015257669351
 37      -0.011513037544
 38       0.001095657347
 39      -0.101954436192
 40       0.202367621255
 41       0.012087865005
 42       0.020690009102
 43      -0.014466765426
 44       0.147656374962
 45       0.002630691870
 46       0.006036522718
 47      -0.004318315100
 48       0.059835959621
 49       0.008734806842
 50       0.058346367572
 51       0.005595357070
 52      -0.061442799241
 53      -0.006042798498
 54      -0.068984415600
 55      -0.015748921479
 56      -0.068062536671
 57      -0.011284093327
 58       0.010212313878
 59      -0.003832794196
 60       0.062771166281
 61       0.016516327617
 Sym=     1a
 Ene= -9.41046924315124E-01
 Spin= Alpha
 Occup= 2.000000
  1       0.139098041283
  2      -0.262000598964
  3       0.001901028820
  4      -0.020001043296
  5       0.016741439634
  6      -0.293466023361
  7      -0.001243349893
  8      -0.002164925264
  9      -0.003114779457
 10      -0.098422215264
 11      -0.022782439998
 12       0.079470371592
 13      -0.155829438377
 14       0.001359687930
 15       0.014132299133
 16      -0.001785014398
 17      -0.135624316632
 18       0.002670103152
 19      -0.001973285021
 20       0.003459866706
 21       0.005239407873
 22      -0.009279574430
 23      -0.096540692363
 24      -0.088392839957
 25       0.008639173428
 26      -0.005918972574
 27      -0.019935492333
 28      -0.005985450318
 29      -0.002572695189
 30      -0.118334362110
 31       0.235423878485
 32      -0.039865390499
 33      -0.011062038985
 34      -0.015351744900
 35       0.182988818447
 36      -0.002581975371
 37      -0.015284660334
 38       0.008956359835
 39      -0.029832821455
 40       0.056089328723
 41       0.050952248672
 42      -0.114701839797
 43       0.128425994945
 44       0.074492305166
 45       0.011464057677
 46      -0.010141762582
 47       0.015606769852
 48      -0.101767878466
 49      -0.028016471152
 50      -0.099785577198
 51      -0.024576950591
 52      -0.058533792628
 53      -0.016604562629
 54      -0.057974906172
 55      -0.018676379118
 56       0.000138351698
 57       0.004034854543
 58       0.091113686183
 59       0.025300872330
 60       0.020567307423
 61       0.007326489168
 Sym=     1a
 Ene= -8.14550648002833E-01
 Spin= Alpha
 Occup= 2.000000
  1      -0.059018938062
  2       0.111697509079
  3       0.014601371332
  4       0.063073999630
  5      -0.053703392154
  6       0.144927218309
  7      -0.002843529591
  8       0.014435569070
  9      -0.017208144250
 10       0.059555856902
 11       0.023242109275
 12       0.102279385823
 13      -0.203688093737
 14      -0.040779395129
 15      -0.080562768491
 16       0.016284870498
 17      -0.189978727737
 18      -0.015323434911
 19      -0.032007226914
 20       0.006466541338
 21      -0.086288411732
 22       0.176271650919
 23      -0.081401403557
 24      -0.151901592758
 25       0.032240829820
 26       0.162372711905
 27      -0.019434034999
 28      -0.050475881911
 29       0.012198312123
 30      -0.031104641861
 31       0.064966759872
 32       0.194536967023
 33      -0.031275161822
 34       0.098139413286
 35       0.054068944655
 36       0.046508533100
 37      -0.008069631722
 38       0.023921170757
 39       0.091558897750
 40      -0.183094153476
 41       0.036578554764
 42       0.064368979272
 43      -0.049397295887
 44      -0.177510720925
 45       0.023463874853
 46       0.008850533656
 47      -0.000611361794
 48       0.060720129132
 49       0.020561456331
 50       0.059063847520
 51       0.023710203108
 52      -0.109419699651
 53      -0.043003345143
 54      -0.113287111024
 55      -0.048386948796
 56       0.108435752535
 57       0.044614081200
 58       0.041222500940
 59       0.018688653463
 60      -0.106511882759
 61      -0.043650259048
 Sym=     1a
 Ene= -7.16226528362333E-01
 Spin= Alpha
 Occup= 2.000000
  1       0.022346545124
  2      -0.039824886871
  3      -0.092417188931
  4      -0.109095700883
  5       0.049266382503
  6      -0.064761993963
  7      -0.034839054120
  8      -0.039096758471
  9       0.015310005648
 10      -0.080356073240
 11      -0.044672951109
 12       0.039814402860
 13      -0.079997098438
 14       0.024842146727
 15      -0.198387696800
 16       0.057838199411
 17      -0.081229975603
 18       0.004549146267
 19      -0.065672107980
 20       0.019985822083
 21      -0.069743789004
 22       0.141946456028
 23       0.178804819866
 24      -0.028234003973
 25       0.036048352056
 26       0.140464068425
 27       0.059851584169
 28      -0.041566905844
 29       0.023510782571
 30       0.077537266093
 31      -0.158686735401
 32       0.003434224288
 33       0.028861357541
 34      -0.039628133803
 35      -0.152179548609
 36      -0.004525644214
 37       0.034804285142
 38      -0.035751496053
 39      -0.073508780219
 40       0.149616280958
 41      -0.163494749391
 42       0.005122876277
 43      -0.090169218989
 44       0.153074175704
 45      -0.073636515715
 46      -0.004053279095
 47      -0.036252168849
 48      -0.005404491624
 49       0.000179784620
 50      -0.053397275826
 51      -0.029636987931
 52      -0.142481219588
 53      -0.087570263398
 54      -0.041956895162
 55      -0.020237332564
 56       0.142583560607
 57       0.068406176131
 58      -0.100540138963
 59      -0.040777818683
 60       0.152057822622
 61       0.076881392610
 Sym=     1a
 Ene= -6.66726107791403E-01
 Spin= Alpha
 Occup= 2.000000
  1       0.016045269700
  2      -0.029041696426
  3       0.089644732895
  4      -0.066271387428
  5       0.105032075362
  6      -0.049221893747
  7       0.046160693049
  8      -0.022888769606
  9       0.043530539776
 10       0.016051996478
 11       0.010029940088
 12       0.021497649382
 13      -0.042666332118
 14      -0.193440308698
 15      -0.090021784643
 16      -0.015429446959
 17      -0.061184365992
 18      -0.074775736820
 19      -0.022628915797
 20      -0.012236664751
 21      -0.025627153814
 22       0.055102155910
 23      -0.097087845516
 24       0.142518053955
 25      -0.084029235615
 26       0.047338990911
 27      -0.029855411512
 28       0.044739301011
 29      -0.028925822995
 30       0.020193008531
 31      -0.038948841079
 32       0.067741721142
 33       0.231488345760
 34      -0.166746074737
 35      -0.049970782329
 36       0.025232739523
 37       0.097169153746
 38      -0.069506835670
 39      -0.024037837132
 40       0.050581328431
 41       0.168972162371
 42       0.086874413399
 43       0.006396551750
 44       0.036215698884
 45       0.050328089377
 46       0.037221612349
 47      -0.006810192098
 48      -0.092974377807
 49      -0.056321344525
 50      -0.028876855463
 51      -0.016467901966
 52       0.000404001452
 53      -0.004977070777
 54      -0.139003640062
 55      -0.087080025138
 56      -0.080828138736
 57      -0.059644332135
 58      -0.187434843237
 59      -0.114245880358
 60      -0.081854797840
 61      -0.058160543008
 Sym=     1a
 Ene= -6.04569454859301E-01
 Spin= Alpha
 Occup= 2.000000
  1       0.010240899479
  2      -0.019260351248
  3      -0.174384206385
  4      -0.032047806016
  5       0.000120335686
  6      -0.032079643016
  7      -0.077181828286
  8      -0.014618012322
  9       0.005829306151
 10      -0.105196585619
 11      -0.070537001013
 12      -0.007029805451
 13       0.015356789860
 14      -0.250240717054
 15       0.104295343772
 16      -0.036461617584
 17       0.029251137557
 18      -0.114902537942
 19       0.047186182798
 20      -0.013500831619
 21      -0.013771605357
 22       0.031876425292
 23      -0.196003945116
 24       0.058870718699
 25      -0.012066577845
 26       0.022965780376
 27      -0.070010395386
 28       0.012948047800
 29       0.005309612574
 30       0.009872336790
 31      -0.021910948589
 32       0.175049479572
 33      -0.039264737452
 34       0.154632536334
 35       0.008347640368
 36       0.051800522064
 37       0.002957332777
 38       0.044742879513
 39       0.003299860168
 40      -0.009412475228
 41      -0.249396840650
 42       0.032161447514
 43      -0.115368628792
 44       0.001313801660
 45      -0.106810015476
 46       0.006279521656
 47      -0.040103987909
 48       0.059981502712
 49       0.049656770214
 50      -0.007122501745
 51      -0.000274120210
 52       0.142330309086
 53       0.092025767695
 54      -0.135388828188
 55      -0.093892810588
 56      -0.087159914811
 57      -0.069237321794
 58       0.033436426785
 59       0.031173403616
 60       0.131969005437
 61       0.092469739624
 Sym=     1a
 Ene= -5.84997158266941E-01
 Spin= Alpha
 Occup= 2.000000
  1      -0.006024189928
  2       0.006396376436
  3      -0.023795779273
  4       0.178455986904
  5      -0.131622747534
  6       0.036392450868
  7      -0.012791163938
  8       0.074804410875
  9      -0.054332704379
 10       0.017945299099
 11       0.010341088025
 12      -0.007332630473
 13       0.019577615588
 14      -0.156160164711
 15      -0.282774520692
 16       0.063960200634
 17      -0.016309923414
 18      -0.053050067688
 19      -0.100944660311
 20       0.025647823126
 21      -0.008165823268
 22       0.019324103662
 23       0.119879132522
 24       0.308051218288
 25      -0.046315751456
 26      -0.003423185571
 27       0.029113966289
 28       0.111049507506
 29      -0.016004034815
 30      -0.009477447301
 31       0.018493175254
 32      -0.196954892442
 33      -0.045946131963
 34       0.016101820646
 35       0.019622546670
 36      -0.081189702984
 37      -0.018449635240
 38       0.012474435588
 39       0.024887068130
 40      -0.050847959514
 41      -0.031104239997
 42      -0.143524759522
 43       0.158212267586
 44      -0.086028719696
 45      -0.019405977747
 46      -0.056759106426
 47       0.064621610258
 48       0.075762451585
 49       0.056059306263
 50       0.069135609608
 51       0.052057642699
 52      -0.091105682901
 53      -0.066853299004
 54      -0.115977358150
 55      -0.091187637087
 56      -0.097089014886
 57      -0.072684133028
 58       0.073896955861
 59       0.051681412091
 60       0.022982581091
 61       0.019577709933
 Sym=     1a
 Ene= -5.67222629970381E-01
 Spin= Alpha
 Occup= 2.000000
  1       0.000440231408
  2      -0.001874795733
  3      -0.099230583012
  4       0.252474267874
  5       0.316044281302
  6      -0.000261830862
  7      -0.052009825452
  8       0.129216726412
  9       0.158292537779
 10      -0.134965532739
 11      -0.105102694633
 12       0.005149082654
 13      -0.010466457519
 14       0.024908475062
 15       0.019115342670
 16       0.019359624535
 17      -0.014394887419
 18       0.006274519763
 19       0.003398131948
 20       0.015772046071
 21      -0.000648840881
 22       0.001569398995
 23       0.024836919017
 24      -0.032368020647
 25       0.045706311334
 26       0.002663457473
 27       0.010960312044
 28      -0.014594404760
 29       0.022347094267
 30       0.002989027996
 31      -0.003703931297
 32      -0.033014907050
 33       0.046260962637
 34       0.043761603604
 35      -0.023552053074
 36      -0.014753645992
 37       0.021446667314
 38       0.039491660156
 39      -0.005309561097
 40       0.008572288985
 41      -0.019301805279
 42       0.099632008203
 43       0.086245819864
 44       0.030515225898
 45      -0.002558598434
 46       0.046915588501
 47       0.048306993290
 48      -0.134836479505
 49      -0.105161950646
 50       0.254742621692
 51       0.198556642869
 52       0.000114174572
 53       0.010253612780
 54       0.012736842166
 55       0.012116382780
 56       0.036860446901
 57       0.027669599926
 58      -0.003613380877
 59      -0.006433072988
 60      -0.012810794094
 61      -0.010986871349
 Sym=     1a
 Ene= -5.40335836539979E-01
 Spin= Alpha
 Occup= 2.000000
  1       0.005507895724
  2      -0.014078870652
  3       0.309845459347
  4       0.059202584456
  5       0.050630090091
  6       0.005242314573
  7       0.176122996929
  8       0.026905974290
  9       0.038743291889
 10       0.187216031325
 11       0.146314813308
 12       0.010468446558
 13      -0.023322706830
 14      -0.172332164855
 15       0.074494314065
 16      -0.052842897362
 17      -0.008761229203
 18      -0.106245672121
 19       0.034706700842
 20      -0.035071799723
 21      -0.007941937571
 22       0.014470146183
 23       0.127878230108
 24      -0.085154215186
 25       0.040260726099
 26       0.016507802242
 27       0.080484423960
 28      -0.063057484748
 29       0.028003026160
 30       0.035440719091
 31      -0.079258273215
 32      -0.065788856986
 33      -0.103365081664
 34       0.035442207661
 35      -0.072693926043
 36      -0.017425605927
 37      -0.023991069057
 38      -0.001823527521
 39      -0.007866121604
 40       0.015402908984
 41      -0.118259036440
 42      -0.090316953126
 43       0.002872995971
 44       0.017345846075
 45      -0.075862933897
 46      -0.058616356297
 47       0.003421161509
 48      -0.171450467216
 49      -0.132474154151
 50       0.014807601171
 51       0.014190647751
 52       0.117693471728
 53       0.090205081819
 54      -0.127285257053
 55      -0.091281357452
 56       0.117626022027
 57       0.080218014157
 58       0.035961656871
 59       0.045272744485
 60       0.110609359481
 61       0.075751162166
 Sym=     1a
 Ene= -5.06690158624262E-01
 Spin= Alpha
 Occup= 2.000000
  1       0.016466117910
  2      -0.036963570888