[Molden Format]
[Title]
 Molden file created by orca_2mkl for BaseName=h-shift_044

[Atoms] AU
C    1   6          0.1314039964         0.0250124151        -0.0631962214 
H    2   1          2.4293090856        -0.0906539421        -0.1038555689 
C    3   6          4.5188869862         0.0155146516         2.3261791715 
C    4   6          3.6003156790        -2.1059920619         3.4636941487 
C    5   6          1.0516004682        -2.9940631893         3.3308010480 
C    6   6         -0.5078015375        -2.1767830926         1.4705735391 
H    7   1         -0.9153701112         0.1293536436        -1.8299578758 
H    8   1          0.0499076672         1.8341455089         0.8887476494 
H    9   1          3.6308007410         1.8253431645         2.5333574065 
H   10   1          6.4779415028         0.1207610589         1.8569469444 
H   11   1          4.9354638844        -3.4415692351         4.2123771868 
H   12   1          0.6026620100        -4.7031692994         4.3224046012 
H   13   1         -1.9757918210        -3.4272961336         0.8363001903 
[GTO]
  1 0
s   6 1.0 
     3047.5249000000         0.5363343823
      457.3695100000         0.9894506076
      103.9486900000         1.5972822308
       29.2101550000         2.0791870615
        9.2866630000         1.7741742532
        3.1639270000         0.6125798260
s   3 1.0 
        7.8682724000        -0.3995563516
        1.8812885000        -0.1841552393
        0.5442493000         0.5163903794
p   3 1.0 
        7.8682724000         1.2960827175
        1.8812885000         0.9937536282
        0.5442493000         0.4959527138
s   1 1.0 
        0.1687144000         0.1876178721
p   1 1.0 
        0.1687144000         0.1541275509

  2 0
s   3 1.0 
       18.7311370000         0.2149354183
        2.8253937000         0.3645711272
        0.6401217000         0.4150514277
s   1 1.0 
        0.1612778000         0.1813806839

  3 0
s   6 1.0 
     3047.5249000000         0.5363343823
      457.3695100000         0.9894506076
      103.9486900000         1.5972822308
       29.2101550000         2.0791870615
        9.2866630000         1.7741742532
        3.1639270000         0.6125798260
s   3 1.0 
        7.8682724000        -0.3995563516
        1.8812885000        -0.1841552393
        0.5442493000         0.5163903794
p   3 1.0 
        7.8682724000         1.2960827175
        1.8812885000         0.9937536282
        0.5442493000         0.4959527138
s   1 1.0 
        0.1687144000         0.1876178721
p   1 1.0 
        0.1687144000         0.1541275509

  4 0
s   6 1.0 
     3047.5249000000         0.5363343823
      457.3695100000         0.9894506076
      103.9486900000         1.5972822308
       29.2101550000         2.0791870615
        9.2866630000         1.7741742532
        3.1639270000         0.6125798260
s   3 1.0 
        7.8682724000        -0.3995563516
        1.8812885000        -0.1841552393
        0.5442493000         0.5163903794
p   3 1.0 
        7.8682724000         1.2960827175
        1.8812885000         0.9937536282
        0.5442493000         0.4959527138
s   1 1.0 
        0.1687144000         0.1876178721
p   1 1.0 
        0.1687144000         0.1541275509

  5 0
s   6 1.0 
     3047.5249000000         0.5363343823
      457.3695100000         0.9894506076
      103.9486900000         1.5972822308
       29.2101550000         2.0791870615
        9.2866630000         1.7741742532
        3.1639270000         0.6125798260
s   3 1.0 
        7.8682724000        -0.3995563516
        1.8812885000        -0.1841552393
        0.5442493000         0.5163903794
p   3 1.0 
        7.8682724000         1.2960827175
        1.8812885000         0.9937536282
        0.5442493000         0.4959527138
s   1 1.0 
        0.1687144000         0.1876178721
p   1 1.0 
        0.1687144000         0.1541275509

  6 0
s   6 1.0 
     3047.5249000000         0.5363343823
      457.3695100000         0.9894506076
      103.9486900000         1.5972822308
       29.2101550000         2.0791870615
        9.2866630000         1.7741742532
        3.1639270000         0.6125798260
s   3 1.0 
        7.8682724000        -0.3995563516
        1.8812885000        -0.1841552393
        0.5442493000         0.5163903794
p   3 1.0 
        7.8682724000         1.2960827175
        1.8812885000         0.9937536282
        0.5442493000         0.4959527138
s   1 1.0 
        0.1687144000         0.1876178721
p   1 1.0 
        0.1687144000         0.1541275509

  7 0
s   3 1.0 
       18.7311370000         0.2149354183
        2.8253937000         0.3645711272
        0.6401217000         0.4150514277
s   1 1.0 
        0.1612778000         0.1813806839

  8 0
s   3 1.0 
       18.7311370000         0.2149354183
        2.8253937000         0.3645711272
        0.6401217000         0.4150514277
s   1 1.0 
        0.1612778000         0.1813806839

  9 0
s   3 1.0 
       18.7311370000         0.2149354183
        2.8253937000         0.3645711272
        0.6401217000         0.4150514277
s   1 1.0 
        0.1612778000         0.1813806839

 10 0
s   3 1.0 
       18.7311370000         0.2149354183
        2.8253937000         0.3645711272
        0.6401217000         0.4150514277
s   1 1.0 
        0.1612778000         0.1813806839

 11 0
s   3 1.0 
       18.7311370000         0.2149354183
        2.8253937000         0.3645711272
        0.6401217000         0.4150514277
s   1 1.0 
        0.1612778000         0.1813806839

 12 0
s   3 1.0 
       18.7311370000         0.2149354183
        2.8253937000         0.3645711272
        0.6401217000         0.4150514277
s   1 1.0 
        0.1612778000         0.1813806839

 13 0
s   3 1.0 
       18.7311370000         0.2149354183
        2.8253937000         0.3645711272
        0.6401217000         0.4150514277
s   1 1.0 
        0.1612778000         0.1813806839

[5D]
[7F]
[9G]
[MO]
 Sym=     1a
 Ene= -1.12410301225533E+01
 Spin= Alpha
 Occup= 2.000000
  1       0.000137267825
  2      -0.000007011989
  3      -0.000016911614
  4      -0.000052868451
  5       0.000028349152
  6       0.000230483401
  7       0.000502896191
  8       0.000144674109
  9      -0.000009780413
 10       0.000106530464
 11      -0.000775420910
 12      -0.041691362992
 13      -0.000442228411
 14      -0.000051451038
 15      -0.000225365167
 16       0.000132325868
 17      -0.004636113706
 18       0.001251083492
 19       0.002382227771
 20      -0.001215092709
 21      -0.994615726873
 22      -0.024911118601
 23       0.000078254265
 24      -0.000012122877
 25       0.000323196006
 26       0.017423491758
 27      -0.000963012496
 28       0.001143946584
 29      -0.001472388476
 30      -0.034981269251
 31      -0.000162398129
 32       0.000203027030
 33       0.000084249947
 34      -0.000004872384
 35      -0.004035852032
 36      -0.002189687751
 37      -0.001241119250
 38       0.000133780438
 39      -0.009488485034
 40       0.000083561249
 41       0.000116502151
 42      -0.000047207534
 43       0.000087598759
 44      -0.000020399542
 45      -0.000436423858
 46       0.000205065577
 47      -0.000322734645
 48       0.000004055540
 49       0.000060518086
 50      -0.000053769903
 51       0.000123853567
 52       0.000226626203
 53      -0.000552595066
 54       0.000099156044
 55      -0.000365288166
 56       0.000201930992
 57      -0.002285877960
 58       0.000069836212
 59      -0.000299640205
 60      -0.000038943285
 61      -0.000257615240
 Sym=     1a
 Ene= -1.12391688043917E+01
 Spin= Alpha
 Occup= 2.000000
  1       0.017804797731
  2       0.000004974246
  3       0.000054234604
  4       0.000186421486
  5      -0.000047089021
  6       0.003847015902
  7      -0.000449364062
  8      -0.002283016466
  9       0.001343339262
 10      -0.000148911445
 11       0.000583502489
 12      -0.001076055358
 13       0.000009485561
 14       0.000022012151
 15       0.000012887820
 16      -0.000006712230
 17      -0.000139505575
 18       0.000182834291
 19       0.000090763272
 20       0.000211578237
 21      -0.011693111754
 22      -0.000583862533
 23       0.000151602826
 24       0.000069738302
 25       0.000039526613
 26       0.000281760922
 27      -0.000216075649
 28      -0.000162207037
 29      -0.000116267235
 30       0.061859316954
 31       0.000698058338
 32       0.000138350756
 33      -0.000108791653
 34       0.000156346758
 35       0.005014774499
 36      -0.001253593882
 37       0.001470547185
 38      -0.002204650674
 39       0.994006728448
 40       0.024903335656
 41       0.000315677777
 42      -0.000045538762
 43      -0.000025055780
 44      -0.017535766671
 45      -0.002235175064
 46      -0.000826837917
 47      -0.000222206437
 48      -0.000095450495
 49       0.000119485687
 50      -0.000201351924
 51       0.000770591871
 52       0.000052013539
 53      -0.000237062081
 54       0.000007590924
 55      -0.000037115435
 56       0.000018140458
 57       0.000088556894
 58      -0.000080112339
 59       0.000466015479
 60      -0.000217617070
 61       0.002227073934
 Sym=     1a
 Ene= -1.12275002989814E+01
 Spin= Alpha
 Occup= 2.000000
  1       0.003114106061
  2       0.000108868330
  3      -0.000029000396
  4      -0.000081671871
  5       0.000135490120
  6       0.001391926638
  7       0.000122566424
  8      -0.000512294365
  9       0.000033670634
 10       0.000043375482
 11      -0.000319168699
 12       0.010906289023
 13       0.000366292898
 14      -0.000112123017
 15      -0.000086993949
 16       0.000094805219
 17       0.000929969204
 18      -0.000054558624
 19      -0.000348193584
 20      -0.000195030199
 21       0.034186238896
 22       0.001610292791
 23      -0.000197856940
 24      -0.000076834171
 25      -0.000047074823
 26      -0.006726923699
 27       0.002729935634
 28       0.000223155936
 29       0.000977461306
 30      -0.993583110049
 31      -0.025301876497
 32      -0.000188230946
 33      -0.000135862649
 34       0.000348526771
 35       0.019520617861
 36       0.001051671748
 37       0.002158506792
 38      -0.002784122878
 39       0.062697684113
 40       0.002482228106
 41       0.000165512884
 42      -0.000045760940
 43       0.000149853123
 44      -0.008378968652
 45      -0.002843223863
 46       0.000151073639
 47      -0.001787836470
 48      -0.000073813266
 49      -0.000283099238
 50       0.000035600636
 51       0.000073352283
 52       0.000038114421
 53       0.000052292157
 54      -0.000068163601
 55      -0.000262278848
 56       0.000108981131
 57      -0.000225886933
 58       0.000250377373
 59      -0.001876566354
 60       0.000099776735
 61      -0.000214555802
 Sym=     1a
 Ene= -1.12245402467460E+01
 Spin= Alpha
 Occup= 2.000000
  1      -0.000314421860
  2      -0.000064307843
  3      -0.000060000523
  4      -0.000033281149
  5      -0.000161982145
  6      -0.000495771356
  7      -0.000393015545
  8       0.000161581424
  9       0.001361303688
 10       0.000171051507
 11       0.002738191411
 12       0.995284346419
 13       0.025688721061
 14      -0.000214317240
 15      -0.000073151489
 16       0.000060725111
 17      -0.018960846808
 18       0.001950443393
 19       0.001196287272
 20      -0.000499226265
 21      -0.042506155773
 22      -0.001832094968
 23      -0.000095387864
 24      -0.000218467919
 25       0.000094660440
 26       0.007123555950
 27       0.000642272688
 28       0.002899032121
 29      -0.001480275326
 30       0.009481491784
 31       0.000161143776
 32      -0.000122591914
 33      -0.000080396128
 34      -0.000002034764
 35      -0.000664532203
 36       0.000128604689
 37      -0.000027039823
 38       0.000126167565
 39       0.000015424861
 40       0.000028198930
 41      -0.000064651592
 42      -0.000029374615
 43       0.000003061582
 44      -0.000346175727
 45      -0.000056597135
 46      -0.000416760880
 47       0.000049937635
 48       0.000139151988
 49       0.000647374064
 50      -0.000041151788
 51      -0.000754034540
 52       0.000081148891
 53       0.003389198962
 54      -0.000139515296
 55       0.002573848080
 56      -0.000097445236
 57       0.000191111545
 58       0.000029458079
 59       0.000273393260
 60      -0.000018818552
 61      -0.000058102387
 Sym=     1a
 Ene= -1.12166500563589E+01
 Spin= Alpha
 Occup= 2.000000
  1       0.996081550967
  2       0.026079833920
  3      -0.000007528714
  4      -0.000029366035
  5       0.000319085173
  6      -0.019550259052
  7      -0.000541017191
  8       0.000810045277
  9      -0.001832364229
 10       0.000094462218
 11       0.003560238500
 12       0.000297039027
 13      -0.000099883537
 14       0.000177704337
 15      -0.000057491505
 16      -0.000058863100
 17       0.000200286170
 18      -0.001317089201
 19       0.000155493624
 20       0.000809337729
 21       0.000242899390
 22       0.000035491287
 23       0.000033127461
 24      -0.000040888358
 25       0.000057078044
 26      -0.000818489462
 27       0.000310873300
 28      -0.000471893137
 29       0.000116042105
 30       0.001990031528
 31      -0.000120357582
 32       0.000075784621
 33      -0.000078447379
 34       0.000089694198
 35       0.000148637295
 36      -0.000105178387
 37       0.000331659603
 38      -0.000265486997
 39      -0.018183549523
 40      -0.001023676503
 41      -0.000035484375
 42      -0.000134333358
 43       0.000089163777
 44       0.005368195033
 45       0.000716607719
 46       0.002458863703
 47      -0.001435937491
 48      -0.000041843221
 49       0.002591962031
 50       0.000123759039
 51       0.003581778917
 52      -0.000071506950
 53      -0.000719387522
 54       0.000175622878
 55       0.000778463210
 56      -0.000032006671
 57      -0.000082181336
 58       0.000041896903
 59       0.000410083625
 60      -0.000122689736
 61       0.000160896067
 Sym=     1a
 Ene= -1.11823847128652E+00
 Spin= Alpha
 Occup= 2.000000
  1      -0.071995310297
  2       0.131778276445
  3       0.002442543761
  4      -0.037416602773
  5       0.036578489283
  6       0.127447226027
  7       0.014019375928
  8      -0.003946717806
  9       0.017894572303
 10       0.047005813417
 11      -0.001480413299
 12      -0.075409364606
 13       0.143273485802
 14      -0.033727634670
 15      -0.047202048957
 16       0.023167570992
 17       0.111716645773
 18      -0.008265593598
 19      -0.002220002160
 20      -0.002819570923
 21      -0.110286331298
 22       0.218115220237
 23      -0.043048993773
 24       0.018918379105
 25      -0.032879269186
 26       0.133857535071
 27      -0.005007463766
 28      -0.000490225903
 29      -0.004279476844
 30      -0.122115065682
 31       0.240405418589
 32       0.015688389958
 33       0.041850115785
 34      -0.056532652580
 35       0.158151699519
 36       0.003835616658
 37       0.003455531710
 38      -0.006241845911
 39      -0.110577329456
 40       0.219375590154
 41       0.063880044928
 42       0.004720091479
 43       0.029873412856
 44       0.126204493343
 45      -0.000490077124
 46      -0.005285521597
 47      -0.001742033009
 48       0.030239086141
 49       0.008120843163
 50       0.036087820204
 51      -0.001682873675
 52       0.039581466493
 53       0.002318395421
 54       0.032278913638
 55       0.002867907610
 56       0.050571246133
 57       0.007336386431
 58       0.053764130753
 59       0.005980453640
 60       0.049093179922
 61       0.003283923665
 Sym=     1a
 Ene= -1.01310254479070E+00
 Spin= Alpha
 Occup= 2.000000
  1      -0.095858438008
  2       0.182752710132
  3      -0.025333442066
  4      -0.042638307502
  5       0.032012819069
  6       0.172097114610
  7      -0.001078642895
  8      -0.002310818690
  9       0.010696307707
 10       0.023235230672
 11       0.002768776570
 12       0.121033445731
 13      -0.233404449515
 14       0.014692833118
 15       0.064553626632
 16      -0.045666893846
 17      -0.203298894265
 18       0.010508286629
 19       0.003217024798
 20      -0.005577677919
 21       0.114869729954
 22      -0.230754751747
 23      -0.049564185140
 24      -0.063613813110
 25       0.031912414605
 26      -0.160617739148
 27      -0.011071734128
 28       0.006122148599
 29      -0.002546875302
 30      -0.019070185591
 31       0.037036836340
 32      -0.100256721396
 33       0.000994450441
 34      -0.057855127422
 35       0.028447655832
 36      -0.011527781611
 37      -0.005506321613
 38      -0.003609497461
 39      -0.109321419135
 40       0.219385321454
 41       0.018204116339
 42       0.025213132067
 43      -0.018660120921
 44       0.156599127168
 45      -0.001234652437
 46      -0.001251111498
 47      -0.005479721408
 48       0.056445909194
 49       0.012719145059
 50       0.052710993647
 51       0.002719549170
 52      -0.063397068717
 53      -0.004493932985
 54      -0.072460406686
 55      -0.018087702746
 56      -0.071107030255
 57      -0.012800209790
 58       0.010068962615
 59      -0.000415557459
 60       0.067789516595
 61       0.014825725465
 Sym=     1a
 Ene= -9.44226978897441E-01
 Spin= Alpha
 Occup= 2.000000
  1      -0.128187650209
  2       0.239084514550
  3       0.001546523597
  4       0.015391954140
  5       0.004782998441
  6       0.280722257640
  7       0.014334336042
  8      -0.000363975364
  9       0.018580700990
 10       0.087459801269
 11       0.016771125529
 12      -0.087394085246
 13       0.167137893343
 14      -0.003018774529
 15       0.011187234633
 16      -0.000169104650
 17       0.172512598632
 18      -0.013590600470
 19       0.004066063379
 20      -0.005118909324
 21       0.019107375146
 22      -0.038699363298
 23       0.099493704017
 24       0.098501410031
 25      -0.033337616179
 26      -0.044761433905
 27       0.023359836215
 28       0.003517662025
 29       0.000649896017
 30       0.123509463510
 31      -0.246173321423
 32       0.001921264707
 33       0.019045271457
 34       0.013810235073
 35      -0.186360925570
 36      -0.000893639468
 37       0.022034539093
 38      -0.008374026280
 39       0.017664516976
 40      -0.031947411267
 41      -0.036067701283
 42       0.114584394986
 43      -0.120180379486
 44      -0.061901232455
 45      -0.018765865124
 46       0.001759683707
 47      -0.019426891683
 48       0.088125700442
 49       0.029928216775
 50       0.096205504160
 51       0.021496630749
 52       0.073201075609
 53       0.019523015981
 54       0.063358549440
 55       0.021569597263
 56      -0.019573553628
 57      -0.012126964188
 58      -0.095129535698
 59      -0.024676653674
 60      -0.015113341072
 61      -0.010858536202
 Sym=     1a
 Ene= -8.10675419307925E-01
 Spin= Alpha
 Occup= 2.000000
  1       0.078871767947
  2      -0.150124639780
  3       0.004770564806
  4      -0.071458738614
  5       0.034008748384
  6      -0.187610353838
  7       0.005710168374
  8      -0.015992833793
  9       0.009480467118
 10      -0.031022008384
 11      -0.015046068335
 12      -0.097246520572
 13       0.189498617964
 14       0.050297420244
 15       0.080754107921
 16      -0.013584091797
 17       0.203199973711
 18       0.013891819862
 19       0.027289552457
 20      -0.007639670956
 21       0.084804163282
 22      -0.173051951177
 23       0.063434497988
 24       0.134491931265
 25      -0.054032199064
 26      -0.169748157367
 27       0.011569761823
 28       0.040504610245
 29      -0.017643955161
 30       0.011414535478
 31      -0.023942726231
 32      -0.195456465786
 33       0.005556689688
 34      -0.101878358998
 35      -0.018692149223
 36      -0.044169867998
 37      -0.000215701617
 38      -0.022389038793
 39      -0.088578463969
 40       0.178604207003
 41      -0.025619213449
 42      -0.105842441297
 43       0.059101723424
 44       0.182247834262
 45      -0.017192719365
 46      -0.023096123504
 47       0.003533625807
 48      -0.081255077892
 49      -0.031334498692
 50      -0.084375145735
 51      -0.033237739778
 52       0.104150290374
 53       0.039625702140
 54       0.110840940842
 55       0.046040312095
 56      -0.106252532039
 57      -0.044086153050
 58      -0.016223647406
 59      -0.008615009007
 60       0.108360967276
 61       0.044241485628
 Sym=     1a
 Ene= -7.27406453734769E-01
 Spin= Alpha
 Occup= 2.000000
  1      -0.016373847243
  2       0.022973588248
  3       0.103329311507
  4       0.128341043548
  5       0.007549555228
  6       0.065585416187
  7       0.051657805127
  8       0.041981024150
  9       0.016619287775
 10       0.078567426847
 11       0.039295614775
 12      -0.026252626800
 13       0.046658122409
 14      -0.044202529033
 15       0.179629751536
 16      -0.064875881556
 17       0.073568020791
 18      -0.028743211007
 19       0.058703766222
 20      -0.028490550602
 21       0.070528341055
 22      -0.142660315619
 23      -0.186881084862
 24       0.014221900729
 25      -0.019753060948
 26      -0.156287609880
 27      -0.056910663936
 28       0.024024232118
 29      -0.015148898114
 30      -0.079196256758
 31       0.161719884984
 32      -0.006613278695
 33      -0.026382837847
 34       0.033056510970
 35       0.170397543829
 36       0.000161494493
 37      -0.027824536082
 38       0.025281771506
 39       0.073924397095
 40      -0.149437816378
 41       0.136322623812
 42       0.016321405455
 43       0.135787143116
 44      -0.168995082875
 45       0.047928397363
 46       0.010821467560
 47       0.046069155193
 48      -0.013367024343
 49      -0.004129797301
 50       0.076487722079
 51       0.039986896151
 52       0.122608993830
 53       0.068354339120
 54       0.015620091677
 55       0.009528504449
 56      -0.140894043942
 57      -0.070127440761
 58       0.099200084883
 59       0.039849218760
 60      -0.152056342759
 61      -0.079656363229
 Sym=     1a
 Ene= -6.78650764881115E-01
 Spin= Alpha
 Occup= 2.000000
  1       0.025798323143
  2      -0.050674623156
  3       0.081071596636
  4      -0.084608745915
  5       0.123278386637
  6      -0.070036598621
  7       0.041784535051
  8      -0.029049878542
  9       0.053677898740
 10       0.026722544477
 11       0.016567607200
 12       0.024094268338
 13      -0.048390763282
 14      -0.170676889800
 15      -0.095817827101
 16       0.040302102990
 17      -0.068901680776
 18      -0.064877084377
 19      -0.029181770917
 20       0.008910688649
 21      -0.024088083306
 22       0.048978012842
 23      -0.096313917794
 24       0.127936726390
 25      -0.095953976523
 26       0.049104006380
 27      -0.039131324159
 28       0.045383191169
 29      -0.038088471525
 30       0.027519705143
 31      -0.052563470798
 32       0.053714884832
 33       0.238248394567
 34      -0.158936334855
 35      -0.085643501836
 36       0.018472248547
 37       0.093383496885
 38      -0.060076812537
 39      -0.023559818716
 40       0.047787567871
 41       0.145912332319
 42       0.094943375690
 43       0.041090144957
 44       0.041946327275
 45       0.051977318019
 46       0.036744911901
 47       0.009297620899
 48      -0.109527646606
 49      -0.062838968073
 50      -0.037283269142
 51      -0.025419651604
 52      -0.027779877096
 53      -0.020602979006
 54      -0.125536425000
 55      -0.076466818943
 56      -0.077169556996
 57      -0.050123840774
 58      -0.190241234802
 59      -0.112788023015
 60      -0.073447129654
 61      -0.048782462144
 Sym=     1a
 Ene= -5.95454071929119E-01
 Spin= Alpha
 Occup= 2.000000
  1       0.015150307902
  2      -0.027621311442
  3      -0.079418591466
  4      -0.079226469002
  5      -0.091951669277
  6      -0.047248350665
  7      -0.033656818896
  8      -0.035396821177
  9      -0.037790799727
 10      -0.027231351026
 11      -0.025697022595
 12      -0.008364500971
 13       0.014318174960
 14      -0.248983455314
 15       0.160464224184
 16       0.065440507401
 17       0.045518817699
 18      -0.125630797140
 19       0.072360272045
 20       0.030882416838
 21      -0.016532157839
 22       0.038725213556
 23      -0.197348714391
 24       0.051140867869
 25       0.018936196868
 26       0.022378579703
 27      -0.067088269607
 28       0.011083415196
 29       0.020917365241
 30       0.010172503646
 31      -0.022881523687
 32       0.179939274587
 33      -0.018395597018
 34       0.128585437913
 35       0.005460078797
 36       0.057720864059
 37       0.011546913345
 38       0.033474279167
 39       0.001227927976
 40      -0.005069369366
 41      -0.194862843488
 42      -0.036081377914
 43      -0.176955708982
 44       0.003086237915
 45      -0.090705792118
 46      -0.025285189211
 47      -0.075204552015
 48       0.056969037329
 49       0.047138854947
 50      -0.075180346666
 51      -0.046342069576
 52       0.166619040247
 53       0.110450349700
 54      -0.147121469701
 55      -0.101489941918
 56      -0.079207284117
 57      -0.066022823447
 58       0.012402809317
 59       0.017187551599
 60       0.138487183180
 61       0.094884814278
 Sym=     1a
 Ene= -5.81945260175851E-01
 Spin= Alpha
 Occup= 2.000000
  1      -0.004242394297
  2       0.002569911928
  3      -0.018302629513
  4       0.229836255015
  5      -0.098342656362
  6       0.036809815187
  7      -0.013842772734
  8       0.091197020954
  9      -0.031964578374
 10      -0.011403351204
 11      -0.011195773653
 12      -0.004437490670
 13       0.014512939374
 14      -0.177829221010
 15      -0.234231679417
 16       0.134147780613
 17      -0.015628941173
 18      -0.073302618357
 19      -0.086662657139
 20       0.051148610080
 21      -0.013863037128
 22       0.032740521520
 23       0.117476640062
 24       0.270528009695
 25      -0.104581800122
 26       0.016641219115
 27       0.037654217870
 28       0.097159125124
 29      -0.030222846228
 30      -0.004517220121
 31       0.007928869496
 32      -0.186089593759
 33      -0.055635398009
 34      -0.008532856418
 35       0.020699404243
 36      -0.074132341847
 37      -0.018086631843
 38      -0.001559078978
 39       0.019932509714
 40      -0.041396199145
 41      -0.069650743548
 42      -0.170472044762
 43       0.144668193035
 44      -0.071863344318
 45      -0.038769274355
 46      -0.071010284072
 47       0.055924566160
 48       0.072056619869
 49       0.055346370486
 50       0.104284449133
 51       0.080115703620
 52      -0.065613338643
 53      -0.046942748485
 54      -0.134162124098
 55      -0.099843263734
 56      -0.072611173922
 57      -0.057931957395
 58       0.059507892302
 59       0.043956795654
 60       0.045476486343
 61       0.034564818017
 Sym=     1a
 Ene= -5.63087112666428E-01
 Spin= Alpha
 Occup= 2.000000
  1       0.012531551038
  2      -0.030680910896
  3       0.087570274792
  4       0.155113091307
  5       0.266768904478
  6       0.004362438245
  7       0.061525994825
  8       0.074184242161
  9       0.156194812168
 10       0.012976282518
 11      -0.014832529974
 12       0.019576723659
 13      -0.044376038504
 14      -0.102551538323
 15       0.143119678903
 16       0.034410304009
 17      -0.017967287997
 18      -0.086803442387
 19       0.062986896683
 20       0.024168112506
 21      -0.011202208465
 22       0.024360562559
 23       0.127132590501
 24      -0.113856623231
 25       0.129498496936
 26       0.012035071695
 27       0.093995201847
 28      -0.079666608314
 29       0.077083023295
 30       0.031442047255
 31      -0.068480748036
 32      -0.062339588028
 33      -0.014858335628
 34       0.031817991899
 35      -0.045616085275
 36      -0.014282450086
 37       0.032948993309
 38       0.005861636861
 39      -0.023598524274
 40       0.051304032116
 41      -0.090529129727
 42      -0.008753806676
 43       0.032871331910
 44       0.042533117421
 45      -0.073580121311
 46      -0.029989334302
 47       0.010502090784
 48      -0.193210385933
 49      -0.138895634114
 50       0.163609461609
 51       0.126948752146
 52       0.109702692171
 53       0.085814732745
 54      -0.092061781026
 55      -0.053526683368
 56       0.153136878355
 57       0.095197747321
 58      -0.011180549103
 59       0.008933172003
 60       0.072070561782
 61       0.035607568331
 Sym=     1a
 Ene= -5.39165753945299E-01
 Spin= Alpha
 Occup= 2.000000
  1      -0.000449628890
  2       0.008161280752
  3      -0.295742134693
  4       0.089511999392
  5       0.074805830516
  6      -0.033350788172
  7      -0.171022177581
  8       0.051835874419
  9       0.020715099940
 10      -0.224219312268
 11      -0.217990290118
 12      -0.011048382397
 13       0.025180803754
 14       0.099667634238
 15       0.057298897876
 16       0.100288331740
 17       0.015133920997
 18       0.059907633366
 19       0.030559547644
 20       0.063822456617
 21      -0.005460099810
 22       0.015319129422
 23      -0.097701408885
 24       0.066357694026
 25       0.076487877522
 26       0.017195569341
 27      -0.043950259316
 28       0.048492590434
 29       0.050956591913
 30      -0.021280877447
 31       0.047341544965
 32       0.009733512530
 33       0.167655019053
 34       0.033589225608
 35       0.057289591601
 36      -0.007950756388
 37       0.079823686763
 38       0.031175537915
 39      -0.011471582617
 40       0.025461716580
 41      -0.009500814140
 42       0.151385163568
 43       0.098189855599
 44       0.037167274355
 45      -0.004295944948
 46       0.097981370328
 47       0.056596954676
 48       0.058884240387
 49       0.036379039014
 50       0.091685441257
 51       0.090294248221
 52       0.017122766333
 53       0.021459629160
 54       0.068804116000
 55       0.050893924978
 56      -0.048726638237
 57      -0.036965673493
 58      -0.059835697552
 59      -0.052207213234
 60      -0.063958535341
 61      -0.040659425137
 Sym=     1a
 Ene= -5.10768923615890E-01
 Spin= Alpha
 Occup= 2.000000
  1       0.014621915791
  2      -0.032760626454