
                                 *****************
                                 * O   R   C   A *
                                 *****************

                                            #,                                       
                                            ###                                      
                                            ####                                     
                                            #####                                    
                                            ######                                   
                                           ########,                                 
                                     ,,################,,,,,                         
                               ,,#################################,,                 
                          ,,##########################################,,             
                       ,#########################################, ''#####,          
                    ,#############################################,,   '####,        
                  ,##################################################,,,,####,       
                ,###########''''           ''''###############################       
              ,#####''   ,,,,##########,,,,          '''####'''          '####       
            ,##' ,,,,###########################,,,                        '##       
           ' ,,###''''                  '''############,,,                           
         ,,##''                                '''############,,,,        ,,,,,,###''
      ,#''                                            '''#######################'''  
     '                                                          ''''####''''         
             ,#######,   #######,   ,#######,      ##                                
            ,#'     '#,  ##    ##  ,#'     '#,    #''#        ,####,    ,#,          
            ##       ##  ##   ,#'  ##            #'  '#       #'       ,# #          
            ##       ##  #######   ##           ,######,      #####,      #          
            '#,     ,#'  ##    ##  '#,     ,#' ,#      #,     #,   #      #          
             '#######'   ##     ##  '#######'  #'      '#     '####' #    #          



                #########################################################
                #                        -***-                          #
                #          Department of theory and spectroscopy        #
                #                                                       #
                #                      Frank Neese                      #
                #                                                       #
                #     Directorship, Architecture, Infrastructure        #
                #                    SHARK, DRIVERS                     #
                #        Core code/Algorithms in most modules           #
                #                                                       #
                #        Max Planck Institute fuer Kohlenforschung      #
                #                Kaiser Wilhelm Platz 1                 #
                #                 D-45470 Muelheim/Ruhr                 #
                #                      Germany                          #
                #                                                       #
                #                  All rights reserved                  #
                #                        -***-                          #
                #########################################################


                         Program Version 6.1.0  -  RELEASE   -
                                (GIT: $679e74b$)
                          ($2025-06-10 18:02:51 +0200$)


 With contributions from (in alphabetic order):
[Max-Planck-Institut fuer Kohlenforschung]                               
  Daniel Aravena         : Magnetic Suceptibility                        
  Michael Atanasov       : Ab Initio Ligand Field Theory (pilot matlab implementation)
  Alexander A. Auer      : GIAO ZORA, VPT2 properties, NMR spectrum      
  Ute Becker             : All parallelization in ORCA, NUMFREQ, NUMCALC 
  Giovanni Bistoni       : ED, misc. LED, open-shell LED, HFLD           
  Dmytro Bykov           : pre 5.0 version of the SCF Hessian            
  Marcos Casanova-Páez   : Triplet and SCS-CIS(D). UHF-(DLPNO)-IP/EA/STEOM-CCSD. UHF-CVS-IP/STEOM-CCSD   
  Vijay G. Chilkuri      : MRCI spin determinant printing, contributions to CSF-ICE 
  Pauline Colinet        : FMM embedding                                 
  Dipayan Datta          : RHF DLPNO-CCSD density                        
  Achintya Kumar Dutta   : EOM-CC, STEOM-CC                              
  Nicolas Foglia         : Exact transition moments, OPA infrastructure, MCD improvements    
  Dmitry Ganyushin       : Spin-Orbit,Spin-Spin,Magnetic field MRCI      
  Miquel Garcia-Rates    : C-PCM and meta-GGA Hessian, CCSD/C-PCM, Gaussian charge scheme 
  Tiago L. C. Gouveia    : GS-ROHF, GS-ROCIS                             
  Yang Guo               : DLPNO-NEVPT2, F12-NEVPT2, CIM, IAO-localization        
  Andreas Hansen         : Spin unrestricted coupled pair/coupled cluster methods 
  Ingolf Harden          : AUTO-CI MPn and infrastructure                
  Benjamin Helmich-Paris : MC-RPA, TRAH-(SCF,CASSCF), AVAS, COSX integrals, SCF dyn. polar., MC-PDFT, srDFT 
  Lee Huntington         : MR-EOM, pCC                                   
  Robert Izsak           : Overlap fitted RIJCOSX, COSX-SCS-MP3, EOM     
  Riya Kayal             : Wick's Theorem for AUTO-CI, AUTO-CI UHF-CCSDT 
  Emily Kempfer          : AUTO-CI RHF CISDT and CCSDT, approximate NEVPT4
  Christian Kollmar      : KDIIS, OOCD, Brueckner-CCSD(T), CCSD density, CASPT2, CASPT2-K, improved NEVPT2 
  Axel Koslowski         : Symmetry handling                             
  Simone Kossmann        : meta-GGA functionals, TD-DFT gradient, OOMP2, (MP2 Hessian; deprecated post 5.0) 
  Lucas Lang             : DCDCAS, Hyperfine gauge corrections, ICE-SOC+SSC
  Marvin Lechner         : AUTO-CI (C++ implementation), FIC-MRCC        
  Spencer Leger          : CASSCF response                               
  Dagmar Lenk            : GEPOL surface, SMD, ORCA-2-JSON               
  Dimitrios Liakos       : Extrapolation schemes; Compound Job, Property file
  Dimitrios Manganas     : Further ROCIS development; embedding schemes. LFT, Crystal Embedding 
  Dimitrios Pantazis     : SARC Basis sets                               
  Anastasios Papadopoulos: AUTO-CI, single reference methods and gradients 
  Taras Petrenko         : pre 6.0 DFT Hessian and TD-DFT gradient,  ECA, NRVS 
  Petra Pikulova         : Analytic Raman intensities                    
  Peter Pinski           : DLPNO-MP2, DLPNO-MP2 Gradient                 
  Shashank Vittal Rao    : ES-AILFT, MagRelax                            
  Christoph Reimann      : Effective Core Potentials                     
  Marius Retegan         : Local ZFS, SOC                                
  Christoph Riplinger    : Optimizer, TS searches, QM/MM, DLPNO-CCSD(T), (RO)-DLPNO pert. Triples 
  Michael Roemelt        : Original ROCIS implementation, recursive CI coupling coefficients
  Masaaki Saitow         : Open-shell DLPNO-CCSD energy and density      
  Barbara Sandhoefer     : DKH picture change effects                    
  Yorick L. A. Schmerwitz: GMF and freeze-and-release deltaSCF, NEB S-IDPP initial path                    
  Kantharuban Sivalingam : CASSCF convergence/infrastructure, NEVPT2, NEVPT3, NEVPT4(SD), FIC-MRCI and CEPA variants
  Bernardo de Souza      : ESD, SOC TD-DFT                               
  Georgi L. Stoychev     : AutoAux, RI-MP2 NMR, DLPNO-MP2 response, X2C  
  Van Anh Tran           : RI-MP2 g-tensors                              
  Willem Van den Heuvel  : Paramagnetic NMR                              
  Zikuan Wang            : NOTCH, Electric field optimization            
  Frank Wennmohs         : Technical directorship and infrastructure     
  Hang Xu                : AUTO-CI-Response properties                   
                                                                         
[FACCTs GmbH]                                                            
  Markus Bursch, Nicolas Foglia, Miquel Garcia-Rates, Ingolf Harden, Hagen Neugebauer, Anastasios Papadopoulos, 
  Christoph Riplinger, Bernardo de Souza, Georgi L. Stoychev                                                    
                                                                 
  APM, various basis sets, CI-OPT, improved COSX, DLPNO-Multilevel,           
  DOCKER, DRACO, updates on ESD, Fragmentator, GOAT, IRC, LR-CPCM, L-BFGS, MBIS, meta-GGA TD-DFT gradient, ML-optimized integration grids, 
  MM, NACMEs, nearIR, NEB, NEB-TS, NL-DFT gradient (VV10), 2- and 3-layer-ONIOM, interface openCOSMO-RS, QMMM,   
  Crystal-QMMM, RESP, rigid body optimization, SF, symmetry and pop. for TD-DFT, various functionals, SOLVATOR                                   
                                                                         
[Other institutions]                                                     
  V. Asgeirsson          : NEB                                           
  Christoph Bannwarth    : sTDA-DFT, sTD-DFT, PBEh-3c, B97-3c, D3        
  Giovanni Bistoni       : ETS/NOCV, ADLD/ADEX, COVALED                  
  Martin Brehm           : Molecular dynamics                            
  Ronald Cardenas        : ETS/NOCV                                      
  Martina Colucci        : COVALED                                       
  Sebastian Ehlert       : rSCAN, r2SCAN, r2SCAN-3c, D4, dhf basis sets  
  Marvin Friede          : D4 for Fr, Ra, Ac-Lr                          
  Lars Goerigk           : TD-DFT with DH, B97 family of functionals     
  Stefan Grimme          : VdW corrections, initial TS optimization, DFT functionals, gCP, sTDA/sTD-DF 
  Waldemar Hujo          : DFT-NL                                        
  H. Jonsson             : NEB                                           
  Holger Kruse           : gCP                                           
  Marcel Mueller         : wB97X-3c, vDZP basis set                      
  Hagen Neugebauer       : wr2SCAN, Native XTB                           
  Gianluca Regni         : ADLD/ADEX                                     
  Tobias Risthaus        : pre 6.0 range-separated hybrid DFT and stability analysis
  Lukas Wittmann         : regularized MP2, r2SCAN double-hybrids, wr2SCAN        
                                                                         
We gratefully acknowledge several colleagues who have allowed us to      
interface, adapt or use parts of their codes:                            
  Ed Valeev, F. Pavosevic, A. Kumar             : LibInt (2-el integral package), F12 methods 
  Garnet Chan, S. Sharma, J. Yang, R. Olivares  : DMRG                   
  Ulf Ekstrom                                   : XCFun DFT Library      
  Mihaly Kallay                                 : mrcc  (arbitrary order and MRCC methods)
  Frank Weinhold                                : gennbo (NPA and NBO analysis)           
  Simon Mueller                                 : openCOSMO-RS                            
  Christopher J. Cramer and Donald G. Truhlar   : smd solvation model                     
  S Lehtola, MJT Oliveira, MAL Marques          : LibXC Library                           
  Liviu Ungur et al                             : ANISO software                          


 Your calculation uses the libint2 library for the computation of 2-el integrals
 For citations please refer to: http://libint.valeyev.net

 Your ORCA version has been built with support for libXC version: 7.0.0
 For citations please refer to: https://libxc.gitlab.io

 This ORCA versions uses:
   CBLAS   interface :  Fast vector & matrix operations
   LAPACKE interface :  Fast linear algebra routines
   SCALAPACK package :  Parallel linear algebra routines
   Shared memory     :  Shared parallel matrices
   BLAS/LAPACK       :  OpenBLAS 0.3.29  USE64BITINT DYNAMIC_ARCH NO_AFFINITY Zen SINGLE_THREADED
        Core in use  :  Zen
   Copyright (c) 2011-2014, The OpenBLAS Project


  ***********************************
  * Starting time: Sun Apr  5 13:02:01 2026
  * Host name:     QC1
  * Process ID:    10381
  * Working dir.:  /home/user/QC/h-shift/split_2
  ***********************************

NOTE: MaxCore=1200 MB was set to SCF,MP2,MDCI,CIPSI,MRCI,RASCI and CIS
      => If you want to overwrite this, your respective input block should be placed after the MaxCore statement
================================================================================

----- Orbital basis set information -----
Your calculation utilizes the basis: 6-31G
   H-He, Li-Ne : W. J. Hehre, R. Ditchfield and J.A. Pople, J. Chem. Phys. 56, 2257 (1972).
                 Note: He and Ne are unpublished basis sets taken from the Gaussian program.
                 Note: Li and B from J. D. Dill and J. A. Pople, J. Chem. Phys. 62, 2921 (1975).
   Na - Ar     : M. M. Francl, W. J. Pietro, W. J. Hehre, J. S. Binkley, M. S. Gordon, 
                 D. J. DeFrees and J. A. Pople, J. Chem. Phys. 77, 3654 (1982).
   K - Zn      : V. A. Rassolov, J. A. Pople, M. A. Ratner, and T. L. Windus, J. Chem. Phys. 109, 1223 (1998).

================================================================================
                                        WARNINGS
                       Please study these warnings very carefully!
================================================================================


================================================================================
                                       INPUT FILE
================================================================================
NAME = h-shift_055.inp
|  1> ! HF 6-31G
|  2> %maxcore 1200
|  3> %pal nprocs 8 end
|  4> * xyz 0 1
|  5> C   -0.27000200   0.03085600   0.03606300
|  6> H    1.83287400  -0.03880700   0.09819500
|  7> C    2.33012200   0.02014900   1.06057900
|  8> C    1.86070900  -1.16209700   1.84015400
|  9> C    0.59629900  -1.58901400   1.76880100
| 10> C   -0.31764600  -1.11439500   0.72395700
| 11> H   -0.63516500   0.08813800  -0.97131600
| 12> H    0.15984300   0.93345100   0.41582500
| 13> H    1.99533100   0.96661200   1.47446800
| 14> H    3.39765500   0.05643600   0.93237600
| 15> H    2.59823200  -1.76072900   2.34699400
| 16> H    0.31162200  -2.48258500   2.29667600
| 17> H   -0.97792700  -1.87988800   0.36009700
| 18> *
| 19> 
| 20>                          ****END OF INPUT****
================================================================================

                       ****************************
                       * Single Point Calculation *
                       ****************************

---------------------------------
CARTESIAN COORDINATES (ANGSTROEM)
---------------------------------
  C     -0.270002    0.030856    0.036063
  H      1.832874   -0.038807    0.098195
  C      2.330122    0.020149    1.060579
  C      1.860709   -1.162097    1.840154
  C      0.596299   -1.589014    1.768801
  C     -0.317646   -1.114395    0.723957
  H     -0.635165    0.088138   -0.971316
  H      0.159843    0.933451    0.415825
  H      1.995331    0.966612    1.474468
  H      3.397655    0.056436    0.932376
  H      2.598232   -1.760729    2.346994
  H      0.311622   -2.482585    2.296676
  H     -0.977927   -1.879888    0.360097

----------------------------
CARTESIAN COORDINATES (A.U.)
----------------------------
  NO LB      ZA    FRAG     MASS         X           Y           Z
   0 C     6.0000    0    12.011   -0.510230    0.058309    0.068149
   1 H     1.0000    0     1.008    3.463630   -0.073335    0.185562
   2 C     6.0000    0    12.011    4.403292    0.038076    2.004204
   3 C     6.0000    0    12.011    3.516230   -2.196045    3.477387
   4 C     6.0000    0    12.011    1.126842   -3.002801    3.342549
   5 C     6.0000    0    12.011   -0.600264   -2.105901    1.368080
   6 H     1.0000    0     1.008   -1.200288    0.166557   -1.835521
   7 H     1.0000    0     1.008    0.302059    1.763967    0.785795
   8 H     1.0000    0     1.008    3.770629    1.826632    2.786341
   9 H     1.0000    0     1.008    6.420637    0.106649    1.761935
  10 H     1.0000    0     1.008    4.909947   -3.327296    4.435176
  11 H     1.0000    0     1.008    0.588880   -4.691406    4.340089
  12 H     1.0000    0     1.008   -1.848014   -3.552473    0.680485

--------------------------------
INTERNAL COORDINATES (ANGSTROEM)
--------------------------------
 C      0   0   0     0.000000000000     0.00000000     0.00000000
 H      1   0   0     2.104946742882     0.00000000     0.00000000
 C      2   1   0     1.084856832442   118.83500674     0.00000000
 C      3   2   1     1.491908626461   106.03735612    61.17501714
 C      4   3   2     1.336443797396   121.52836737   321.69324919
 C      1   2   3     1.336812611765    89.54527225   296.41982423
 H      1   2   3     1.073050648261   111.68146543   172.85436109
 H      1   2   3     1.069422103144    67.41239385    63.58061555
 H      3   2   1     1.085901159577   104.13288199   301.46036899
 H      3   2   1     1.075815719195   110.54499236   184.78580414
 H      4   3   2     1.076655577496   118.10299722   132.36156151
 H      5   4   3     1.076179419054   119.29578375   176.09380957
 H      6   1   2     1.074404314776   117.25938125   227.19668583

---------------------------
INTERNAL COORDINATES (A.U.)
---------------------------
 C      0   0   0     0.000000000000     0.00000000     0.00000000
 H      1   0   0     3.977772870536     0.00000000     0.00000000
 C      2   1   0     2.050082307829   118.83500674     0.00000000
 C      3   2   1     2.819298720847   106.03735612    61.17501714
 C      4   3   2     2.525512770456   121.52836737   321.69324919
 C      1   2   3     2.526209728607    89.54527225   296.41982423
 H      1   2   3     2.027771853041   111.68146543   172.85436109
 H      1   2   3     2.020914896505    67.41239385    63.58061555
 H      3   2   1     2.052055800108   104.13288199   301.46036899
 H      3   2   1     2.032997079846   110.54499236   184.78580414
 H      4   3   2     2.034584182026   118.10299722   132.36156151
 H      5   4   3     2.033684372974   119.29578375   176.09380957
 H      6   1   2     2.030329912031   117.25938125   227.19668583

---------------------
BASIS SET INFORMATION
---------------------
There are 2 groups of distinct atoms

 Group   1 Type C   : 10s4p contracted to 3s2p pattern {631/31}
 Group   2 Type H   : 4s contracted to 2s pattern {31}

Atom   0C    basis set group =>   1
Atom   1H    basis set group =>   2
Atom   2C    basis set group =>   1
Atom   3C    basis set group =>   1
Atom   4C    basis set group =>   1
Atom   5C    basis set group =>   1
Atom   6H    basis set group =>   2
Atom   7H    basis set group =>   2
Atom   8H    basis set group =>   2
Atom   9H    basis set group =>   2
Atom  10H    basis set group =>   2
Atom  11H    basis set group =>   2
Atom  12H    basis set group =>   2


           ************************************************************
           *        Program running with 8 parallel MPI-processes     *
           *              working on a common directory               *
           ************************************************************
------------------------------------------------------------------------------
                             ORCA STARTUP CALCULATIONS
------------------------------------------------------------------------------
------------------------------------------------------------------------------
                   ___                                                        
                  /   \      - P O W E R E D   B Y -                         
                 /     \                                                     
                 |  |  |   _    _      __       _____    __    __             
                 |  |  |  | |  | |    /  \     |  _  \  |  |  /  |          
                  \  \/   | |  | |   /    \    | | | |  |  | /  /          
                 / \  \   | |__| |  /  /\  \   | |_| |  |  |/  /          
                |  |  |   |  __  | /  /__\  \  |    /   |      \           
                |  |  |   | |  | | |   __   |  |    \   |  |\   \          
                \     /   | |  | | |  |  |  |  | |\  \  |  | \   \       
                 \___/    |_|  |_| |__|  |__|  |_| \__\ |__|  \__/        
                                                                              
                      - O R C A' S   B I G   F R I E N D -                    
                                      &                                       
                       - I N T E G R A L  F E E D E R -                       
                                                                              
 v1 FN, 2020, v2 2021, v3 2022-2024                                           
------------------------------------------------------------------------------


----------------------
SHARK INTEGRAL PACKAGE
----------------------

Number of atoms                             ...     13
Number of basis functions                   ...     61
Number of shells                            ...     41
Maximum angular momentum                    ...      1
Integral batch strategy                     ... SHARK/LIBINT Hybrid
RI-J (if used) integral strategy            ... SPLIT-RIJ (Revised 2003 algorithm where possible)
Printlevel                                  ...      1
Contraction scheme used                     ... SEGMENTED contraction
Prescreening option                         ... SCHWARTZ
   Thresh                                   ... 1.000e-10
   Tcut                                     ... 1.000e-11
   Tpresel                                  ... 1.000e-11 
Coulomb Range Separation                    ... NOT USED
Exchange Range Separation                   ... NOT USED
Multipole approximations                    ... NOT USED
Finite Nucleus Model                        ... NOT USED
CABS basis                                  ... NOT available
Auxiliary Coulomb fitting basis             ... NOT available
Auxiliary J/K fitting basis                 ... NOT available
Auxiliary Correlation fitting basis         ... NOT available
Auxiliary 'external' fitting basis          ... NOT available

Checking pre-screening integrals            ... done (  0.0 sec) Dimension = 41
   => SHARK Basis and OBASIS are compatible. Storing Pre-screening
Shell pair information
Shell pair cut-off parameter TPreSel        ...   1.0e-11
Total number of shell pairs                 ...       861
Shell pairs after pre-screening             ...       847
Total number of primitive shell pairs       ...      5382
Primitive shell pairs kept                  ...      3768
          la=0 lb=0:    482 shell pairs
          la=1 lb=0:    310 shell pairs
          la=1 lb=1:     55 shell pairs

Checking whether 4 symmetric matrices of dimension 61 fit in memory
:Max Core in MB      =   1200.00
 MB in use           =      2.05
 MB left             =   1197.95
 MB needed           =      0.06
 Data fit in memory  = YES
Calculating Nuclear repulsion               ... done (  0.0 sec) ENN=    163.340242734012 Eh

Diagonalization of the overlap matrix:
Smallest eigenvalue                        ... 3.499e-03
Time for diagonalization                   ...    0.001 sec
Threshold for overlap eigenvalues          ... 1.000e-07
Number of eigenvalues below threshold      ... 0
Time for construction of square roots      ...    0.000 sec
Total time needed                          ...    0.001 sec

-------------------
DFT GRID GENERATION
-------------------

General Integration Accuracy     IntAcc      ... 4.388
Radial Grid Type                 RadialGrid  ... OptM3 with GC (2021)
Angular Grid (max. ang.)         AngularGrid ... 4 (Lebedev-302)
Angular grid pruning method      GridPruning ... 4 (adaptive)
Weight generation scheme         WeightScheme... mBecke (2022)
Basis function cutoff            BFCut       ... 1.0000e-10
Integration weight cutoff        WCut        ... 1.0000e-14
Partially contracted basis set               ... off
Rotationally invariant grid construction     ... off
Angular grids for H and He will be reduced by one unit

Total number of grid points                  ...    55989
Total number of batches                      ...      881
Average number of points per batch           ...       63
Average number of grid points per atom       ...     4307
Grids setup in   0.2 sec
Initializing property integral containers    ... done (  0.0 sec)

SHARK setup successfully completed in   0.3 seconds

Maximum memory used throughout the entire STARTUP-calculation: 11.8 MB


           ************************************************************
           *        Program running with 8 parallel MPI-processes     *
           *              working on a common directory               *
           ************************************************************
-------------------------------------------------------------------------------
                                 ORCA GUESS
                   Start orbitals & Density for SCF / CASSCF
-------------------------------------------------------------------------------

------------
SCF SETTINGS
------------
Hamiltonian:
 Ab initio Hamiltonian  Method          .... Hartree-Fock(GTOs)


General Settings:
 Integral files         IntName         .... h-shift_055
 Hartree-Fock type      HFTyp           .... RHF
 Total Charge           Charge          ....    0
 Multiplicity           Mult            ....    1
 Number of Electrons    NEL             ....   38
 Basis Dimension        Dim             ....   61
 Nuclear Repulsion      ENuc            ....    163.3402427340 Eh

Convergence Acceleration:
 AO-DIIS                CNVDIIS         .... on
   Start iteration      DIISMaxIt       ....    12
   Startup error        DIISStart       ....  0.200000
   # of expansion vecs  DIISMaxEq       ....     5
   Bias factor          DIISBfac        ....   1.050
   Max. coefficient     DIISMaxC        ....  10.000
 MO-DIIS                CNVKDIIS        .... off
 Trust-Rad. Augm. Hess. CNVTRAH         .... auto
   Auto Start mean grad. ratio tolernc. ....  1.125000
   Auto Start start iteration           ....    50
   Auto Start num. interpolation iter.  ....    10
   Max. Number of Micro iterations      ....    24
   Max. Number of Macro iterations      .... Maxiter - #DIIS iter
   Number of Davidson start vectors     ....     2
   Converg. threshold    (grad. norm)   ....   5.000e-05
   Grad. Scal. Fac. for Micro threshold ....   0.100
   Minimum threshold for Micro iter.    ....   1.000e-02
   NR start threshold (gradient norm)   ....   1.000e-04
   Initial trust radius                 ....   0.400
   Minimum AH scaling param. (alpha)    ....   1.000
   Maximum AH scaling param. (alpha)    .... 1000.000
   Quad. conv. algorithm                .... NR
   White noise on init. David. guess    .... on
   Maximum white noise                  ....   0.010
   Pseudo random numbers                .... off
   Inactive MOs                         .... canonical
   Orbital update algorithm             .... Taylor
   Preconditioner                       .... Diag
   Full preconditioner red. dimension   ....   250
 SOSCF                 CNVSOSCF           .... on
   Start iteration     SOSCFMaxIt         ....   150
   Startup grad/error  SOSCFStart         ....  0.003300
   Hessian update      SOSCFHessUp        .... L-BFGS
   Autom. constraints  SOSCFAutoConstrain .... off
 Level Shifting         CNVShift        .... on
   Level shift para.    LevelShift      ....    0.2500
   Turn off err/grad.   ShiftErr        ....    0.0010
 Zerner damping         CNVZerner       .... off
 Static damping         CNVDamp         .... on
   Fraction old density DampFac         ....    0.7000
   Max. Damping (<1)    DampMax         ....    0.9800
   Min. Damping (>=0)   DampMin         ....    0.0000
   Turn off err/grad.   DampErr         ....    0.1000

SCF Procedure:
 Maximum # iterations   MaxIter         ....   125
 SCF integral mode      SCFMode         .... Direct
   Integral package                     .... SHARK and LIBINT hybrid scheme
 Reset frequency        DirectResetFreq ....    20
 Integral Threshold     Thresh          ....  1.000e-10 Eh
 Primitive CutOff       TCut            ....  1.000e-11 Eh

Convergence Tolerance:
 Convergence Check Mode ConvCheckMode   .... Total+1el-Energy
 Convergence forced     ConvForced      .... 0
 Energy Change          TolE            ....  1.000e-06 Eh
 1-El. energy change                    ....  1.000e-03 Eh
 Orbital Gradient       TolG            ....  5.000e-05
 Orbital Rotation angle TolX            ....  5.000e-05
 DIIS Error             TolErr          ....  1.000e-06

------------------------------
INITIAL GUESS: MODEL POTENTIAL
------------------------------
Loading Hartree-Fock densities                     ... done
Calculating cut-offs                               ... done
Initializing the effective Hamiltonian             ... done
Setting up the integral package (SHARK)            ... done
Starting the Coulomb interaction                   ... done (   0.0 sec)
Making the grid                                    ... done (   0.1 sec)
Mapping shells                                     ... done
Starting the XC term evaluation                    ... done (   0.0 sec)
Transforming the Hamiltonian                       ... done (   0.0 sec)
Diagonalizing the Hamiltonian                      ... done (   0.0 sec)
Back transforming the eigenvectors                 ... done (   0.0 sec)
Now organizing SCF variables                       ... done
                      ------------------
                      INITIAL GUESS DONE (   0.1 sec)
                      ------------------
             **** ENERGY FILE WAS UPDATED (h-shift_055.en.tmp) ****
Finished Guess after   0.4 sec
Maximum memory used throughout the entire GUESS-calculation: 4.2 MB


           ************************************************************
           *        Program running with 8 parallel MPI-processes     *
           *              working on a common directory               *
           ************************************************************

-------------------------------------------------------------------------------------------
                                      ORCA LEAN-SCF
                              memory conserving SCF solver
-------------------------------------------------------------------------------------------

----------------------------------------D-I-I-S--------------------------------------------
Iteration    Energy (Eh)           Delta-E    RMSDP     MaxDP     DIISErr   Damp  Time(sec)
-------------------------------------------------------------------------------------------
               ***  Starting incremental Fock matrix formation  ***
    1    -193.6227843977256668     0.00e+00  1.58e-02  5.40e-02  1.84e-01  0.700   0.1
    2    -193.7032128762979539    -8.04e-02  1.25e-02  4.08e-02  1.21e-01  0.700   0.1
                               ***Turning on AO-DIIS***
    3    -193.7528766732523025    -4.97e-02  7.65e-03  2.05e-02  7.25e-02  0.700   0.0
    4    -193.7842592928586498    -3.14e-02  1.82e-02  4.44e-02  4.92e-02  0.000   0.0
                              *** Initializing SOSCF ***
---------------------------------------S-O-S-C-F--------------------------------------
Iteration    Energy (Eh)           Delta-E    RMSDP     MaxDP     MaxGrad    Time(sec)
--------------------------------------------------------------------------------------
    5    -193.8522298129275043    -6.80e-02  1.76e-03  2.95e-03  2.56e-03     0.0
               *** Restarting incremental Fock matrix formation ***
    6    -193.8523714208798481    -1.42e-04  9.77e-04  1.87e-03  1.66e-03     0.0
    7    -193.8524199966541630    -4.86e-05  7.06e-04  1.57e-03  7.30e-04     0.0
    8    -193.8524316467878350    -1.17e-05  9.63e-05  3.08e-04  1.53e-04     0.0
    9    -193.8524319782259511    -3.31e-07  4.08e-05  1.13e-04  4.55e-05     0.0
                 **** Energy Check signals convergence ****

               *****************************************************
               *                     SUCCESS                       *
               *           SCF CONVERGED AFTER   9 CYCLES          *
               *****************************************************

             **** ENERGY FILE WAS UPDATED (h-shift_055.en.tmp) ****

----------------
TOTAL SCF ENERGY
----------------

Total Energy       :       -193.85243206652027 Eh           -5274.99285 eV

Components:
Nuclear Repulsion  :        163.34024273401181 Eh            4444.71397 eV
Electronic Energy  :       -357.19267480053207 Eh           -9719.70682 eV
One Electron Energy:       -583.58576552130376 Eh          -15880.17601 eV
Two Electron Energy:        226.39309072077168 Eh            6160.46919 eV

Virial components:
Potential Energy   :       -388.08869972087132 Eh          -10560.43040 eV
Kinetic Energy     :        194.23626765435102 Eh            5285.43755 eV
Virial Ratio       :          1.99802387271715

---------------
SCF CONVERGENCE
---------------

  Last Energy change         ...    3.3144e-07  Tolerance :   1.0000e-06
  Last MAX-Density change    ...    1.1258e-04  Tolerance :   1.0000e-05
  Last RMS-Density change    ...    4.0842e-05  Tolerance :   1.0000e-06
  Last DIIS Error            ...    2.5644e-03  Tolerance :   1.0000e-06
  Last Orbital Gradient      ...    4.5527e-05  Tolerance :   5.0000e-05
  Last Orbital Rotation      ...    3.7777e-05  Tolerance :   5.0000e-05


----------------
ORBITAL ENERGIES
----------------

  NO   OCC          E(Eh)            E(eV) 
   0   2.0000     -11.236899      -305.7716 
   1   2.0000     -11.236834      -305.7698 
   2   2.0000     -11.229068      -305.5585 
   3   2.0000     -11.221516      -305.3530 
   4   2.0000     -11.209649      -305.0301 
   5   2.0000      -1.108834       -30.1729 
   6   2.0000      -1.016747       -27.6671 
   7   2.0000      -0.944218       -25.6935 
   8   2.0000      -0.810686       -22.0599 
   9   2.0000      -0.723549       -19.6888 
  10   2.0000      -0.671584       -18.2747 
  11   2.0000      -0.599199       -16.3050 
  12   2.0000      -0.584137       -15.8952 
  13   2.0000      -0.565268       -15.3817 
  14   2.0000      -0.547230       -14.8909 
  15   2.0000      -0.508428       -13.8350 
  16   2.0000      -0.478320       -13.0157 
  17   2.0000      -0.398050       -10.8315 
  18   2.0000      -0.309577        -8.4240 
  19   0.0000       0.130346         3.5469 
  20   0.0000       0.217504         5.9186 
  21   0.0000       0.246957         6.7201 
  22   0.0000       0.273696         7.4476 
  23   0.0000       0.291157         7.9228 
  24   0.0000       0.327109         8.9011 
  25   0.0000       0.334465         9.1013 
  26   0.0000       0.349525         9.5111 
  27   0.0000       0.370336        10.0774 
  28   0.0000       0.378012        10.2862 
  29   0.0000       0.435812        11.8590 
*Only the first 10 virtual orbitals were printed.

                    ********************************
                    * MULLIKEN POPULATION ANALYSIS *
                    ********************************

-----------------------
MULLIKEN ATOMIC CHARGES
-----------------------
   0 C :   -0.380578
   1 H :    0.192692
   2 C :   -0.522558
   3 C :   -0.140387
   4 C :   -0.197350
   5 C :   -0.158715
   6 H :    0.165446
   7 H :    0.180043
   8 H :    0.172601
   9 H :    0.157249
  10 H :    0.181965
  11 H :    0.176456
  12 H :    0.173136
Sum of atomic charges:    0.0000000

--------------------------------
MULLIKEN REDUCED ORBITAL CHARGES
--------------------------------
  0 C s       :     3.280315  s :     3.280315
      pz      :     1.057944  p :     3.100263
      px      :     1.034737
      py      :     1.007583

  1 H s       :     0.807308  s :     0.807308

  2 C s       :     3.369062  s :     3.369062
      pz      :     1.053272  p :     3.153496
      px      :     1.108381
      py      :     0.991844

  3 C s       :     3.211240  s :     3.211240
      pz      :     0.962241  p :     2.929147
      px      :     0.991892
      py      :     0.975015

  4 C s       :     3.200778  s :     3.200778
      pz      :     1.007725  p :     2.996572
      px      :     0.927020
      py      :     1.061827

  5 C s       :     3.199748  s :     3.199748
      pz      :     0.921268  p :     2.958967
      px      :     1.035965
      py      :     1.001734

  6 H s       :     0.834554  s :     0.834554

  7 H s       :     0.819957  s :     0.819957

  8 H s       :     0.827399  s :     0.827399

  9 H s       :     0.842751  s :     0.842751

 10 H s       :     0.818035  s :     0.818035

 11 H s       :     0.823544  s :     0.823544

 12 H s       :     0.826864  s :     0.826864



                     *******************************
                     * LOEWDIN POPULATION ANALYSIS *
                     *******************************

----------------------
LOEWDIN ATOMIC CHARGES
----------------------
   0 C :   -0.256872
   1 H :    0.135657
   2 C :   -0.325303
   3 C :   -0.102576
   4 C :   -0.151063
   5 C :   -0.116427
   6 H :    0.117592
   7 H :    0.119903
   8 H :    0.116023
   9 H :    0.108850
  10 H :    0.119136
  11 H :    0.117648
  12 H :    0.117432

-------------------------------
LOEWDIN REDUCED ORBITAL CHARGES
-------------------------------
  0 C s       :     2.991482  s :     2.991482
      pz      :     1.100277  p :     3.265390
      px      :     1.057409
      py      :     1.107705

  1 H s       :     0.864343  s :     0.864343

  2 C s       :     2.977266  s :     2.977266
      pz      :     1.128117  p :     3.348037
      px      :     1.129582
      py      :     1.090339

  3 C s       :     2.953487  s :     2.953487
      pz      :     1.002473  p :     3.149089
      px      :     1.100911
      py      :     1.045705

  4 C s       :     2.943666  s :     2.943666
      pz      :     1.054045  p :     3.207397
      px      :     1.081913
      py      :     1.071438

  5 C s       :     2.945579  s :     2.945579
      pz      :     1.031416  p :     3.170848
      px      :     1.033023
      py      :     1.106410

  6 H s       :     0.882408  s :     0.882408

  7 H s       :     0.880097  s :     0.880097

  8 H s       :     0.883977  s :     0.883977

  9 H s       :     0.891150  s :     0.891150

 10 H s       :     0.880864  s :     0.880864

 11 H s       :     0.882352  s :     0.882352

 12 H s       :     0.882568  s :     0.882568



                      *****************************
                      * MAYER POPULATION ANALYSIS *
                      *****************************

  NA   - Mulliken gross atomic population
  ZA   - Total nuclear charge
  QA   - Mulliken gross atomic charge
  VA   - Mayer's total valence
  BVA  - Mayer's bonded valence
  FA   - Mayer's free valence

  ATOM       NA         ZA         QA         VA         BVA        FA
  0 C      6.3806     6.0000    -0.3806     3.8267     3.8267     0.0000
  1 H      0.8073     1.0000     0.1927     0.9183     0.9183     0.0000
  2 C      6.5226     6.0000    -0.5226     3.7650     3.7650     0.0000
  3 C      6.1404     6.0000    -0.1404     3.7492     3.7492     0.0000
  4 C      6.1973     6.0000    -0.1973     3.8131     3.8131     0.0000
  5 C      6.1587     6.0000    -0.1587     3.8017     3.8017    -0.0000
  6 H      0.8346     1.0000     0.1654     0.9413     0.9413    -0.0000
  7 H      0.8200     1.0000     0.1800     0.9327     0.9327     0.0000
  8 H      0.8274     1.0000     0.1726     0.9216     0.9216     0.0000
  9 H      0.8428     1.0000     0.1572     0.9363     0.9363     0.0000
 10 H      0.8180     1.0000     0.1820     0.9380     0.9380    -0.0000
 11 H      0.8235     1.0000     0.1765     0.9389     0.9389     0.0000
 12 H      0.8269     1.0000     0.1731     0.9364     0.9364     0.0000

  Mayer bond orders larger than 0.100000
B(  0-C ,  5-C ) :   1.8374 B(  0-C ,  6-H ) :   0.9603 B(  0-C ,  7-H ) :   0.9604 
B(  1-H ,  2-C ) :   0.9177 B(  2-C ,  3-C ) :   0.9708 B(  2-C ,  8-H ) :   0.9465 
B(  2-C ,  9-H ) :   0.9614 B(  3-C ,  4-C ) :   1.8404 B(  3-C , 10-H ) :   0.9548 
B(  4-C ,  5-C ) :   1.0744 B(  4-C , 11-H ) :   0.9568 B(  5-C , 12-H ) :   0.9579 


-------
TIMINGS
-------

Total SCF time: 0 days 0 hours 0 min 0 sec 

Total time                  ....       0.662 sec
Sum of individual times     ....       0.618 sec  ( 93.3%)

SCF preparation             ....       0.254 sec  ( 38.4%)
Fock matrix formation       ....       0.307 sec  ( 46.4%)
  Startup                   ....       0.001 sec  (  0.5% of F)
  Coulomb+Exchange Fock     ....       0.327 sec  (106.4% of F)
Diagonalization             ....       0.000 sec  (  0.0%)
Density matrix formation    ....       0.008 sec  (  1.2%)
Total Energy calculation    ....       0.005 sec  (  0.7%)
Population analysis         ....       0.004 sec  (  0.7%)
Orbital Transformation      ....       0.005 sec  (  0.8%)
Orbital Orthonormalization  ....       0.000 sec  (  0.0%)
DIIS solution               ....       0.021 sec  (  3.2%)
SOSCF solution              ....       0.013 sec  (  2.0%)
Finished LeanSCF after   0.7 sec

Maximum memory used throughout the entire LEANSCF-calculation: 6.5 MB

-------------------------   --------------------
FINAL SINGLE POINT ENERGY      -193.852432066520
-------------------------   --------------------



           ************************************************************
           *        Program running with 8 parallel MPI-processes     *
           *              working on a common directory               *
           ************************************************************

------------------------------------------------------------------------------
                              ORCA PROPERTY CALCULATIONS
------------------------------------------------------------------------------

GBWName                                 ... h-shift_055.gbw
Number of atoms                         ...     13
Number of basis functions               ...     61
Max core memory                         ...   1200 MB

Electric properties:
Dipole moment                           ... YES
Quadrupole moment                       ...  NO
Static polarizability (Dipole/Dipole)   ...  NO
Static polarizability (Dipole/Quad.)    ...  NO
Static polarizability (Quad./Quad.)     ...  NO
Static polarizability (Velocity)        ...  NO
Static hyperpolarizability              ...  NO

Atomic electric properties:
Dipole moment                           ...  NO
Quadrupole moment                       ...  NO
Static polarizability                   ...  NO

Choice of electric origin               ... Center of mass
Position of electric origin             ...     1.642075    -1.386142     2.003586

General magnetic properties:
Magnetizability                         ...  NO

EPR properties:
g-Tensor (aka g-matrix)                 ...  NO
Zero-Field splitting spin-orbit         ...  NO
Zero-field splitting spin-spin          ...  NO
Hyperfine couplings                     ...  NO (   0 nuclei)
Quadrupole couplings                    ...  NO (   0 nuclei)
Contact density                         ...  NO (   0 nuclei)

NMR properties:
Chemical shifts                         ...  NO (   0 nuclei)
Spin-rotation constants                 ...  NO (   0 nuclei)
Spin-spin couplings                     ...  NO (   0 nuclei,    0 pairs)

Choice of magnetic origin               ... GIAO
Position of magnetic origin             ...     0.000000     0.000000     0.000000

Properties with geometric perturbations:
SCF Hessian                             ...  NO
IR spectrum                             ...  NO
VCD spectrum                            ...  NO
X-ray spectroscopy properties:
SCF XES/XAS/RIXS spectra                ...  NO

SCF SOC stabilization energy            ...  NO
Diagonal Born-Oppenheimer correction    ...  NO

-------------
DIPOLE MOMENT
-------------

Method             : SCF
Type of density    : Electron Density
Multiplicity       :   1
Irrep              :   0
Energy             :  -193.8524320665202652 Eh
Basis              : AO
                                X                 Y                 Z
Electronic contribution:     -1.437029838      -1.705686252       1.301416021
Nuclear contribution   :      1.623867964       1.642507642      -1.434192176
                        -----------------------------------------
Total Dipole Moment    :      0.186838126      -0.063178610      -0.132776156
                        -----------------------------------------
Magnitude (a.u.)       :      0.237759395
Magnitude (Debye)      :      0.604336354



--------------------
Rotational spectrum 
--------------------
 
Rotational constants in cm-1:             0.274091             0.157821             0.103857 
Rotational constants in MHz :          8217.045961          4731.362414          3113.552967 

Dipole components along the rotational axes: 
x,y,z [a.u.] :     0.112820     0.069446    -0.197430 
x,y,z [Debye]:     0.286765     0.176517    -0.501827 

 

Dipole moment calculation done in   0.0 sec 

Maximum memory used throughout the entire PROP-calculation: 2.2 MB

--------------------------------
SUGGESTED CITATIONS FOR THIS RUN
--------------------------------

Below you find a list of papers that are relevant to this ORCA run
We neither can nor want to force you to cite these papers, but we appreciate if you do
You receive ORCA, which is the product of decades of hard work by many enthusiastic individuals, for free
The only thing we kindly ask in return is that you cite our papers,
We deeply appreciate it, if you show your appreciation for ORCA by not just citing the generic ORCA reference.

Please note that relegating all ORCA citations to the supporting information does *not* help us.
SI sections are not indexed - citations you put there will not count into any citation statistics
But we need these citations in order to attract the funding resources that allow us to do what we are doing

Therefore, if you are a happy ORCA user, please consider citing a few of the papers listed below in the main body of your paper

In addition to the list printed below, the program has created the file h-shift_055.bibtex that contains the list in bibtex format
You can import this file easily into all common literature databanks and citation aid programs


List of essential papers. We consider these as the minimum necessary citations

  1. Neese, F.
     Software update: the ORCA program system, version 6.0
     WIRES Comput. Molec. Sci. 2025 15(1), e70019
     doi.org/10.1002/wcms.7019

List of papers to cite with high priority. The work reported in these papers was absolutely
necessary for this run to complete.
Our perspective: the developers of density functionals and basis sets usually get cited in chemistry papers
Good! But without the algorithms to do something with them, the functionals or basis sets would not do anything.
Hence, in our opinion, the algorithm design and method developments papers are equally worthy of getting cited

  1. Neese, F.
     The SHARK Integral Generation and Digestion System
     J. Comp. Chem. 2022 44(3), 381
     doi.org/10.1002/jcc.26942

List of suggested additional citations. These are papers that are important in the 'surrounding' of 
of this run, or papers that preceded the highly important papers. If you like your results we are grateful for a citation.

  1. Neese, F.
     The ORCA program system
     WIRES Comput. Molec. Sci. 2012 2(1), 73-78
     doi.org/10.1002/wcms.81
  2. Neese, F.
     Software update: the ORCA program system, version 4.0
     WIRES Comput. Molec. Sci. 2018 8(1), 1-6
     doi.org/10.1002/wcms.1327
  3. Neese, F.; Wennmohs, F.; Becker, U.; Riplinger, C.
     The ORCA quantum chemistry program package
     J. Chem. Phys. 2020 152(22), 224108
     doi.org/10.1063/5.0004608
  4. Neese, F.
     Software update: The ORCA program system—Version 5.0
     WIRES Comput. Molec. Sci. 2022 12(1), e1606
     doi.org/10.1002/wcms.1606

List of optional additional citations

  1. Neese, F.
     Approximate second-order SCF convergence for spin unrestricted wavefunctions
     Chem. Phys. Lett. 2000 325(1-3), 93-98
     doi.org/10.1016/s0009-2614(00)00662-x

Timings for individual modules:

Sum of individual times          ...        2.303 sec (=   0.038 min)
Startup calculation              ...        0.651 sec (=   0.011 min)  28.2 %
SCF iterations                   ...        1.280 sec (=   0.021 min)  55.6 %
Property calculations            ...        0.373 sec (=   0.006 min)  16.2 %
                             ****ORCA TERMINATED NORMALLY****
TOTAL RUN TIME: 0 days 0 hours 0 minutes 2 seconds 782 msec
