[Molden Format]
[Title]
 Molden file created by orca_2mkl for BaseName=h-shift_053

[Atoms] AU
C    1   6         -0.3964078511         0.0407727311         0.0471392184 
H    2   1          3.3068166439        -0.0857765589         0.2309339822 
C    3   6          4.3735916130         0.0361731377         1.9985082188 
C    4   6          3.5208394670        -2.1888187583         3.4838575265 
C    5   6          1.1316606056        -2.9988933293         3.3629868635 
C    6   6         -0.5625525728        -2.1022485144         1.3804109258 
H    7   1         -1.0689727205         0.1456733185        -1.8586458082 
H    8   1          0.2651625917         1.7893571098         0.8193663544 
H    9   1          3.7308126069         1.8371577323         2.7339971890 
H   10   1          6.3954757441         0.1117319474         1.7735401020 
H   11   1          4.9242502495        -3.3670705617         4.3651974495 
H   12   1          0.5975087268        -4.7016008267         4.3338827977 
H   13   1         -1.8748369817        -3.5055289058         0.7290563425 
[GTO]
  1 0
s   6 1.0 
     3047.5249000000         0.5363343823
      457.3695100000         0.9894506076
      103.9486900000         1.5972822308
       29.2101550000         2.0791870615
        9.2866630000         1.7741742532
        3.1639270000         0.6125798260
s   3 1.0 
        7.8682724000        -0.3995563516
        1.8812885000        -0.1841552393
        0.5442493000         0.5163903794
p   3 1.0 
        7.8682724000         1.2960827175
        1.8812885000         0.9937536282
        0.5442493000         0.4959527138
s   1 1.0 
        0.1687144000         0.1876178721
p   1 1.0 
        0.1687144000         0.1541275509

  2 0
s   3 1.0 
       18.7311370000         0.2149354183
        2.8253937000         0.3645711272
        0.6401217000         0.4150514277
s   1 1.0 
        0.1612778000         0.1813806839

  3 0
s   6 1.0 
     3047.5249000000         0.5363343823
      457.3695100000         0.9894506076
      103.9486900000         1.5972822308
       29.2101550000         2.0791870615
        9.2866630000         1.7741742532
        3.1639270000         0.6125798260
s   3 1.0 
        7.8682724000        -0.3995563516
        1.8812885000        -0.1841552393
        0.5442493000         0.5163903794
p   3 1.0 
        7.8682724000         1.2960827175
        1.8812885000         0.9937536282
        0.5442493000         0.4959527138
s   1 1.0 
        0.1687144000         0.1876178721
p   1 1.0 
        0.1687144000         0.1541275509

  4 0
s   6 1.0 
     3047.5249000000         0.5363343823
      457.3695100000         0.9894506076
      103.9486900000         1.5972822308
       29.2101550000         2.0791870615
        9.2866630000         1.7741742532
        3.1639270000         0.6125798260
s   3 1.0 
        7.8682724000        -0.3995563516
        1.8812885000        -0.1841552393
        0.5442493000         0.5163903794
p   3 1.0 
        7.8682724000         1.2960827175
        1.8812885000         0.9937536282
        0.5442493000         0.4959527138
s   1 1.0 
        0.1687144000         0.1876178721
p   1 1.0 
        0.1687144000         0.1541275509

  5 0
s   6 1.0 
     3047.5249000000         0.5363343823
      457.3695100000         0.9894506076
      103.9486900000         1.5972822308
       29.2101550000         2.0791870615
        9.2866630000         1.7741742532
        3.1639270000         0.6125798260
s   3 1.0 
        7.8682724000        -0.3995563516
        1.8812885000        -0.1841552393
        0.5442493000         0.5163903794
p   3 1.0 
        7.8682724000         1.2960827175
        1.8812885000         0.9937536282
        0.5442493000         0.4959527138
s   1 1.0 
        0.1687144000         0.1876178721
p   1 1.0 
        0.1687144000         0.1541275509

  6 0
s   6 1.0 
     3047.5249000000         0.5363343823
      457.3695100000         0.9894506076
      103.9486900000         1.5972822308
       29.2101550000         2.0791870615
        9.2866630000         1.7741742532
        3.1639270000         0.6125798260
s   3 1.0 
        7.8682724000        -0.3995563516
        1.8812885000        -0.1841552393
        0.5442493000         0.5163903794
p   3 1.0 
        7.8682724000         1.2960827175
        1.8812885000         0.9937536282
        0.5442493000         0.4959527138
s   1 1.0 
        0.1687144000         0.1876178721
p   1 1.0 
        0.1687144000         0.1541275509

  7 0
s   3 1.0 
       18.7311370000         0.2149354183
        2.8253937000         0.3645711272
        0.6401217000         0.4150514277
s   1 1.0 
        0.1612778000         0.1813806839

  8 0
s   3 1.0 
       18.7311370000         0.2149354183
        2.8253937000         0.3645711272
        0.6401217000         0.4150514277
s   1 1.0 
        0.1612778000         0.1813806839

  9 0
s   3 1.0 
       18.7311370000         0.2149354183
        2.8253937000         0.3645711272
        0.6401217000         0.4150514277
s   1 1.0 
        0.1612778000         0.1813806839

 10 0
s   3 1.0 
       18.7311370000         0.2149354183
        2.8253937000         0.3645711272
        0.6401217000         0.4150514277
s   1 1.0 
        0.1612778000         0.1813806839

 11 0
s   3 1.0 
       18.7311370000         0.2149354183
        2.8253937000         0.3645711272
        0.6401217000         0.4150514277
s   1 1.0 
        0.1612778000         0.1813806839

 12 0
s   3 1.0 
       18.7311370000         0.2149354183
        2.8253937000         0.3645711272
        0.6401217000         0.4150514277
s   1 1.0 
        0.1612778000         0.1813806839

 13 0
s   3 1.0 
       18.7311370000         0.2149354183
        2.8253937000         0.3645711272
        0.6401217000         0.4150514277
s   1 1.0 
        0.1612778000         0.1813806839

[5D]
[7F]
[9G]
[MO]
 Sym=     1a
 Ene= -1.12369067657264E+01
 Spin= Alpha
 Occup= 2.000000
  1      -0.052154150045
  2      -0.000644046369
  3      -0.000074354978
  4      -0.000208828208
  5       0.000157184797
  6      -0.004807851386
  7      -0.000065220264
  8       0.002193758253
  9      -0.001940420010
 10       0.000108377978
 11      -0.000887787482
 12      -0.000332884883
 13      -0.000006440488
 14      -0.000021519608
 15      -0.000069378458
 16       0.000046573845
 17       0.000225870340
 18      -0.000231613073
 19       0.000262807790
 20      -0.000531022944
 21      -0.043628629788
 22      -0.000746756464
 23      -0.000140433359
 24      -0.000040309690
 25      -0.000049986003
 26       0.000339229587
 27       0.000661510363
 28       0.000294194463
 29       0.000175241979
 30      -0.048767177939
 31      -0.000558297477
 32      -0.000111854355
 33       0.000073543081
 34      -0.000134393737
 35      -0.003493524778
 36       0.001297811729
 37      -0.001202966063
 38       0.001661805519
 39      -0.992607024704
 40      -0.024856989245
 41      -0.000214478863
 42      -0.000093929387
 43       0.000120193849
 44       0.017167043840
 45       0.001506396084
 46       0.001325210435
 47       0.000005154594
 48       0.000084357113
 49      -0.000547419518
 50       0.000245473859
 51      -0.000250615969
 52      -0.000037331424
 53       0.000052066070
 54      -0.000002466363
 55       0.000026212176
 56      -0.000033953315
 57      -0.000404394571
 58       0.000075324574
 59      -0.000313376088
 60       0.000222432470
 61      -0.002273975528
 Sym=     1a
 Ene= -1.12362595200403E+01
 Spin= Alpha
 Occup= 2.000000
  1      -0.003085174627
  2      -0.000006418582
  3      -0.000009083535
  4      -0.000007569698
  5      -0.000022060566
  6      -0.000277160421
  7      -0.000166185605
  8       0.000257092209
  9      -0.000006215806
 10      -0.000160746217
 11       0.000487928533
 12       0.012459476825
 13      -0.000075618753
 14       0.000000261313
 15       0.000165608116
 16      -0.000063434830
 17       0.003629279836
 18      -0.000834617870
 19      -0.002199473236
 20       0.001119047717
 21       0.990279737792
 22       0.024801216287
 23      -0.000200114530
 24      -0.000021684863
 25      -0.000202763606
 26      -0.017307739636
 27       0.001654748504
 28      -0.000863070848
 29       0.001602461891
 30       0.095640215655
 31       0.001527521474
 32      -0.000200656671
 33      -0.000111694414
 34      -0.000028921494
 35       0.004710087101
 36       0.002569646170
 37       0.001561057889
 38      -0.000323621311
 39      -0.048159496668
 40      -0.001499061239
 41      -0.000133442579
 42       0.000073907136
 43      -0.000093326433
 44       0.000989448739
 45       0.000170571053
 46      -0.000158746942
 47       0.000012137956
 48       0.000023058948
 49       0.000004813836
 50       0.000047679107
 51      -0.000312200124
 52      -0.000207320347
 53       0.000800931114
 54      -0.000086642059
 55       0.000127678676
 56      -0.000242234145
 57       0.002126305722
 58      -0.000077926597
 59       0.000609713151
 60       0.000004587343
 61      -0.000074790595
 Sym=     1a
 Ene= -1.12279929667429E+01
 Spin= Alpha
 Occup= 2.000000
  1      -0.007016307088
  2      -0.000273594330
  3      -0.000005883300
  4       0.000093331584
  5      -0.000146823419
  6      -0.000924516458
  7      -0.000243107705
  8       0.000225903489
  9       0.000067302402
 10      -0.000013477631
 11       0.000267223090
 12      -0.002194100355
 13      -0.000067355655
 14       0.000090036262
 15       0.000077375708
 16      -0.000105824525
 17      -0.001559514992
 18       0.000140729219
 19       0.000619623658
 20       0.000030505377
 21      -0.098353988897
 22      -0.003410586327
 23       0.000226600080
 24       0.000036674008
 25       0.000045462147
 26       0.009269938366
 27      -0.003299468164
 28      -0.000092771351
 29      -0.001310728547
 30       0.990359181211
 31       0.025216419368
 32       0.000195294774
 33       0.000135475407
 34      -0.000342436011
 35      -0.019671414201
 36      -0.001760234712
 37      -0.002251742413
 38       0.002460041799
 39      -0.044219490288
 40      -0.001774219869
 41      -0.000141938471
 42       0.000065473925
 43      -0.000110830467
 44       0.006398778362
 45       0.002366523188
 46      -0.000171292879
 47       0.001593195881
 48       0.000062170369
 49       0.000252773152
 50      -0.000031191102
 51       0.000071918586
 52      -0.000022520328
 53      -0.000128987169
 54       0.000076349239
 55       0.000280372722
 56      -0.000077154226
 57       0.000168148708
 58      -0.000250855673
 59       0.001827988182
 60      -0.000102560202
 61       0.000245646097
 Sym=     1a
 Ene= -1.12217945313610E+01
 Spin= Alpha
 Occup= 2.000000
  1      -0.994787090140
  2      -0.025439255069
  3      -0.000196603555
  4       0.000178294344
  5      -0.000100294990
  6       0.018205126855
  7       0.000914668190
  8      -0.001539631395
  9       0.001299885277
 10      -0.000026626835
 11      -0.002456881063
 12       0.000226164891
 13       0.000057339330
 14      -0.000165408335
 15       0.000031297134
 16       0.000053443947
 17       0.000555412252
 18       0.000791432084
 19      -0.000107029673
 20      -0.001248654676
 21      -0.000115200062
 22      -0.000065990422
 23      -0.000033481319
 24       0.000017861629
 25      -0.000041891570
 26       0.000474441325
 27      -0.000011698448
 28       0.000522613378
 29      -0.000158072501
 30      -0.004719127159
 31      -0.000051518158
 32      -0.000072691394
 33       0.000082055236
 34      -0.000092234888
 35       0.000427067629
 36       0.000198715266
 37      -0.000085717792
 38       0.000104511415
 39       0.053038181573
 40       0.002103758619
 41      -0.000021925552
 42       0.000242367128
 43      -0.000136311115
 44      -0.007171268809
 45      -0.000425124595
 46      -0.002811170271
 47       0.001538692000
 48       0.000146339740
 49      -0.002704014182
 50      -0.000018259728
 51      -0.003051327991
 52       0.000035417900
 53       0.000765195178
 54      -0.000129037970
 55      -0.000612473894
 56       0.000022289431
 57       0.000100285925
 58      -0.000036500887
 59      -0.000274789723
 60       0.000110565203
 61      -0.000065581939
 Sym=     1a
 Ene= -1.12084176253825E+01
 Spin= Alpha
 Occup= 2.000000
  1       0.000228457980
  2      -0.000077562969
  3      -0.000054312140
  4      -0.000048659634
  5      -0.000153094889
  6       0.000303503698
  7       0.000205743189
  8       0.000037031614
  9       0.001236544123
 10       0.000032760423
 11       0.003861494226
 12       0.996123576968
 13       0.026323325747
 14      -0.000189342913
 15      -0.000038785904
 16       0.000096023999
 17      -0.019737405785
 18       0.001174477351
 19       0.000786763678
 20      -0.000403530296
 21      -0.012792681281
 22      -0.000787891652
 23      -0.000060459659
 24      -0.000106671004
 25       0.000067729686
 26       0.004518497912
 27       0.001109269498
 28       0.002173032351
 29      -0.001286358206
 30       0.000949188398
 31      -0.000184162663
 32      -0.000104396014
 33      -0.000081665884
 34       0.000005364584
 35       0.000574995822
 36       0.000467023570
 37       0.000498093126
 38      -0.000139390978
 39       0.000176213526
 40       0.000027343796
 41      -0.000066817683
 42      -0.000043614300
 43      -0.000007679297
 44      -0.000828873354
 45      -0.000216197284
 46      -0.000393323133
 47      -0.000119556863
 48       0.000155439035
 49       0.000594333753
 50      -0.000037292118
 51      -0.000519389476
 52       0.000077221652
 53       0.003458497411
 54       0.000005292758
 55       0.002935058120
 56      -0.000150197172
 57       0.000009070265
 58       0.000045560110
 59       0.000469625862
 60      -0.000022823597
 61      -0.000007516046
 Sym=     1a
 Ene= -1.11303783650806E+00
 Spin= Alpha
 Occup= 2.000000
  1      -0.074576250164
  2       0.143222844799
  3       0.007258625108
  4      -0.050801147898
  5       0.038485287386
  6       0.103232112039
  7       0.004514046624
  8      -0.002417413503
  9      -0.001282743155
 10       0.049192782315
 11      -0.002080662444
 12      -0.073878693736
 13       0.135070372106
 14      -0.029168054622
 15      -0.035780322286
 16       0.015638013115
 17       0.131803318052
 18      -0.020754816919
 19      -0.004442070006
 20      -0.000840418889
 21      -0.113028912864
 22       0.223955214613
 23      -0.066397712098
 24       0.001218571705
 25      -0.031290971217
 26       0.130371284946
 27       0.002079636406
 28      -0.004689879006
 29       0.000305810148
 30      -0.122417786929
 31       0.240953965781
 32       0.043078763867
 33       0.041102694325
 34      -0.041017516987
 35       0.157783255829
 36       0.002208997980
 37       0.002346206722
 38      -0.006223293823
 39      -0.108293726994
 40       0.213436997964
 41       0.045250997639
 42       0.023126630560
 43       0.010050074006
 44       0.135689998488
 45       0.008380355694
 46       0.001287788007
 47       0.003086635123
 48       0.031863362687
 49       0.000493236983
 50       0.039733393411
 51       0.004932562147
 52       0.036628232428
 53      -0.000844886540
 54       0.032290752589
 55       0.007558519785
 56       0.050207142689
 57       0.003464206827
 58       0.054287760887
 59       0.005905341516
 60       0.050780832371
 61       0.008471090061
 Sym=     1a
 Ene= -1.01618540940798E+00
 Spin= Alpha
 Occup= 2.000000
  1      -0.124933822292
  2       0.243093539091
  3      -0.013912780741
  4      -0.075139342473
  5       0.039046553549
  6       0.198725665438
  7       0.002203227864
  8      -0.003947949384
  9       0.006578224805
 10      -0.041756814645
 11      -0.004570391676
 12       0.094705994422
 13      -0.181013077718
 14       0.010606561398
 15       0.036093349751
 16      -0.027287450598
 17      -0.166922994644
 18       0.002405339005
 19       0.001759128571
 20      -0.004726710528
 21       0.103209324561
 22      -0.205715771490
 23       0.001664159814
 24      -0.020583822824
 25       0.023203327846
 26      -0.152188718169
 27      -0.001083555068
 28      -0.002118890273
 29       0.004632780147
 30       0.021687311346
 31      -0.042427182922
 32      -0.103866771765
 33      -0.001883562573
 34      -0.041947790078
 35      -0.029176661757
 36      -0.006906719555
 37       0.009285005937
 38      -0.008179160468
 39      -0.118022759865
 40       0.235999484745
 41      -0.010807953148
 42       0.072228060898
 43      -0.063837136756
 44       0.165094763707
 45      -0.008406399503
 46      -0.006315245630
 47      -0.006661870284
 48       0.072465768541
 49       0.016549837573
 50       0.063440231381
 51       0.005662768758
 52      -0.052807644423
 53      -0.004249890280
 54      -0.056349447666
 55      -0.010097596698
 56      -0.063088575272
 57      -0.015477835858
 58      -0.010812246620
 59       0.002110344942
 60       0.071823416402
 61       0.012689344919
 Sym=     1a
 Ene= -9.45550582179212E-01
 Spin= Alpha
 Occup= 2.000000
  1      -0.078112794160
  2       0.150069638901
  3       0.006438855471
  4       0.002442159056
  5       0.001845599438
  6       0.146315787810
  7       0.010885445722
  8       0.002691344435
  9       0.002978868141
 10       0.102610141094
 11       0.017984485166
 12      -0.136387880096
 13       0.254969235760
 14      -0.001771772149
 15       0.019550491363
 16      -0.014064431616
 17       0.292700816341
 18      -0.015382867339
 19       0.000525193257
 20      -0.002874660783
 21       0.026700702577
 22      -0.050074312621
 23       0.121373816916
 24       0.114839878958
 25      -0.045205521328
 26      -0.071879086674
 27       0.021967575425
 28       0.005910898784
 29       0.000194675811
 30       0.121657113542
 31      -0.242128451448
 32      -0.028507399952
 33       0.016892822416
 34      -0.001081076247
 35      -0.187097064551
 36       0.006272777624
 37       0.018908543558
 38      -0.003515360805
 39       0.011263748851
 40      -0.023392510813
 41      -0.034515633030
 42       0.090056222317
 43      -0.089746490531
 44      -0.026105065829
 45      -0.012604924298
 46       0.003523794389
 47      -0.015794466798
 48       0.055947181377
 49       0.017950034422
 50       0.065228270635
 51       0.019137555698
 52       0.099098986737
 53       0.023312255062
 54       0.095539024664
 55       0.028622428551
 56      -0.019700267962
 57      -0.009171297922
 58      -0.092238567121
 59      -0.024254486286
 60      -0.013794424444
 61      -0.009521316322
 Sym=     1a
 Ene= -8.10301292966378E-01
 Spin= Alpha
 Occup= 2.000000
  1      -0.101221648756
  2       0.199518893180
  3      -0.005172694734
  4       0.079617673973
  5      -0.051373788837
  6       0.198614901534
  7       0.001615246101
  8       0.030271914925
  9      -0.019505791126
 10      -0.048317333152
 11      -0.021083172030
 12       0.067696601170
 13      -0.129520938552
 14      -0.025361991470
 15      -0.067501698748
 16       0.034989994274
 17      -0.158902578170
 18      -0.014493652788
 19      -0.015269504730
 20       0.006091217833
 21      -0.091249562001
 22       0.183429519081
 23      -0.016009663358
 24      -0.086304507750
 25       0.054859477979
 26       0.182076520844
 27       0.014077493871
 28      -0.019042165116
 29       0.016846008862
 30       0.022405464957
 31      -0.046177932316
 32       0.197874292657
 33       0.014891139289
 34       0.089713782292
 35      -0.038673905687
 36       0.045225400717
 37       0.003174157504
 38       0.020468027404
 39       0.085459498194
 40      -0.174105622713
 41      -0.001754281982
 42       0.144675779902
 43      -0.085872111514
 44      -0.166571719744
 45       0.002731898292
 46       0.046846714873
 47      -0.023718023524
 48       0.114023452307
 49       0.047993908862
 50       0.108101989195
 51       0.041393240253
 52      -0.070538030609
 53      -0.028673599806
 54      -0.070342389569
 55      -0.024743023726
 56       0.109212451795
 57       0.043851713703
 58      -0.031062419015
 59      -0.015139262365
 60      -0.109140530437
 61      -0.045905348881
 Sym=     1a
 Ene= -7.25386338558843E-01
 Spin= Alpha
 Occup= 2.000000
  1       0.031369155423
  2      -0.059428081844
  3      -0.074046383221
  4      -0.191011430423
  5       0.015681016860
  6      -0.075987919892
  7      -0.033797879201
  8      -0.061206663735
  9       0.004683145051
 10      -0.080234374491
 11      -0.039282000818
 12       0.015065129216
 13      -0.022460420395
 14       0.064172844525
 15      -0.116448038412
 16       0.090531795864
 17      -0.053959152844
 18       0.036243243310
 19      -0.040824813390
 20       0.034569684656
 21      -0.074624512175
 22       0.151049561213
 23       0.188072303334
 24      -0.009010095509
 25       0.031288799128
 26       0.164388073938
 27       0.069788686414
 28      -0.010863405364
 29       0.014008772684
 30       0.079612055745
 31      -0.162185347773
 32       0.025827983865
 33       0.031978458032
 34      -0.026788254039
 35      -0.167436471274
 36       0.023888206324
 37       0.032923981567
 38      -0.015427188495
 39      -0.069842957958
 40       0.141151312840
 41      -0.123042211367
 42      -0.014228843853
 43      -0.133129639996
 44       0.146391689879
 45      -0.045502904455
 46      -0.030467774611
 47      -0.036003687393
 48      -0.030931014394
 49      -0.015382324474
 50      -0.133746961665
 51      -0.078248898366
 52      -0.062985519224
 53      -0.032862638598
 54       0.014015882475
 55       0.006831555271
 56       0.151747399791
 57       0.078121503092
 58      -0.102677209000
 59      -0.041489869366
 60       0.135967658930
 61       0.065444929686
 Sym=     1a
 Ene= -6.74469417179758E-01
 Spin= Alpha
 Occup= 2.000000
  1      -0.023843834452
  2       0.047703972064
  3      -0.069417463009
  4       0.085433243096
  5      -0.166194247748
  6       0.067617201118
  7      -0.030327978500
  8       0.022917092734
  9      -0.058953337667
 10      -0.025077473041
 11      -0.016655230983
 12      -0.022277191648
 13       0.043177399789
 14       0.149582488336
 15       0.077325404620
 16      -0.006398108582
 17       0.061188889022
 18       0.070359132341
 19       0.027483574892
 20       0.000313138643
 21       0.022185921002
 22      -0.045269156123
 23       0.131282682163
 24      -0.096592905707
 25       0.097394012174
 26      -0.035065159529
 27       0.040065913548
 28      -0.036814581111
 29       0.036756956334
 30      -0.024566061165
 31       0.046823954530
 32      -0.097259677516
 33      -0.239409400182
 34       0.136854573244
 35       0.075652932747
 36      -0.037215287710
 37      -0.096229354091
 38       0.051259196673
 39       0.023633174939
 40      -0.048387774258
 41      -0.125032576696
 42      -0.132932497109
 43      -0.025586734058
 44      -0.047124001152
 45      -0.048448721293
 46      -0.044603658151
 47      -0.009080950759
 48       0.128293868799
 49       0.080308057401
 50       0.016906533016
 51       0.015575070786
 52       0.032269202779
 53       0.021140748099
 54       0.108205970635
 55       0.062259868266
 56       0.081591456113
 57       0.055147224774
 58       0.188443943566
 59       0.112872137594
 60       0.077809399086
 61       0.053076626145
 Sym=     1a
 Ene= -5.98703591147355E-01
 Spin= Alpha
 Occup= 2.000000
  1       0.009373711993
  2      -0.020240553079
  3      -0.105477719479
  4      -0.112446870853
  5      -0.274877111333
  6      -0.036849855209
  7      -0.051189638921
  8      -0.055403609365
  9      -0.131008126628
 10       0.064038326456
 11       0.047586268505
 12      -0.012211903581
 13       0.024674673777
 14      -0.126852506054
 15       0.020449745559
 16      -0.052224541829
 17       0.029175609108
 18      -0.045712043718
 19       0.012130873121
 20      -0.026076950675
 21      -0.003210871010
 22       0.008219219738
 23      -0.238472723933
 24       0.031813164727
 25      -0.082278896545
 26       0.011174304032
 27      -0.107848566276
 28       0.025475654453
 29      -0.045993750402
 30      -0.008231225894
 31       0.019751931295
 32       0.195064891655
 33       0.029672621777
 34       0.026698339818
 35      -0.023597113208
 36       0.054441113961
 37      -0.014440812446
 38       0.013643858119
 39       0.018737512082
 40      -0.044031355684
 41      -0.096262485370
 42      -0.104922745319
 43      -0.144346660414
 44      -0.023121149121
 45      -0.016498617510
 46      -0.027078529750
 47      -0.056801013763
 48       0.168355480472
 49       0.116704139111
 50      -0.152194848802
 51      -0.098749514049
 52       0.028514339238
 53       0.013145703076
 54      -0.062907838951
 55      -0.053725042596
 56      -0.135368723205
 57      -0.091825292341
 58      -0.030468081171
 59      -0.032574126124
 60       0.091526630910
 61       0.076340118570
 Sym=     1a
 Ene= -5.84016024656750E-01
 Spin= Alpha
 Occup= 2.000000
  1       0.006070288077
  2      -0.017741630953
  3       0.028761709050
  4       0.265353921796
  5      -0.171510645951
  6       0.018402384843
  7       0.015274809918
  8       0.098791449677
  9      -0.062360036498
 10       0.014145022123
 11       0.011539506398
 12       0.009075388454
 13      -0.012790349634
 14      -0.069968870934
 15      -0.223113874836
 16       0.026134811505
 17      -0.043665676503
 18      -0.028388018051
 19      -0.093234666224
 20       0.002860866265
 21      -0.020536530326
 22       0.041071630465
 23       0.130804735589
 24       0.130885132329
 25      -0.121889896735
 26       0.075902485086
 27       0.048804342469
 28       0.049664139913
 29      -0.054234905288
 30       0.011754099320
 31      -0.024014844253
 32      -0.147587581290
 33       0.052643253623
 34      -0.166169239615
 35      -0.027452546406
 36      -0.053070773756
 37       0.022614905235
 38      -0.071395821386
 39       0.006791265909
 40      -0.017390381740
 41       0.021654133631
 42      -0.278396634780
 43       0.168821056093
 44       0.006231897150
 45       0.006514748268
 46      -0.099407073579
 47       0.050168040755
 48       0.099117019415
 49       0.076071035170
 50       0.099281314205
 51       0.069763429967
 52      -0.111800293514
 53      -0.084130731810
 54      -0.061076231700
 55      -0.044553660081
 56       0.002117029705
 57      -0.001571033380
 58      -0.068124088763
 59      -0.046607036950
 60       0.072653809032
 61       0.055263953607
 Sym=     1a
 Ene= -5.60934577422691E-01
 Spin= Alpha
 Occup= 2.000000
  1       0.011048993339
  2      -0.024114301161
  3      -0.009753151034
  4       0.122366424399
  5       0.039157154138
  6      -0.011038424390
  7       0.001124193796
  8       0.050649089029
  9       0.045337251275
 10      -0.090904428890
 11      -0.090106838337
 12       0.007038440091
 13      -0.017322650542
 14      -0.206504202057
 15       0.203033970434
 16       0.229211358484
 17       0.001745840497
 18      -0.120021537189
 19       0.103353629650
 20       0.114229571652
 21      -0.021571134086
 22       0.046172868954
 23      -0.004878407640
 24       0.064605751751
 25       0.097924658370
 26       0.049753941972
 27       0.009710816921
 28       0.018199297973
 29       0.062453249251
 30       0.018291233431
 31      -0.038815320796
 32      -0.004084976068
 33       0.041112734771
 34       0.055855828582
 35      -0.028097603655
 36      -0.006240626216
 37       0.046120801369
 38       0.022373029918
 39      -0.007692702551
 40       0.017833988004
 41      -0.131348743550
 42      -0.100944878269
 43       0.013984168823
 44       0.012189866169
 45      -0.087139522076
 46      -0.060957676489
 47      -0.005810003571
 48      -0.032102950379
 49      -0.012996217326
 50       0.079597038846
 51       0.068424261360
 52       0.216841273578
 53       0.172777217757
 54      -0.160902193400
 55      -0.119011234449
 56       0.030353860399
 57       0.011877041721
 58      -0.026663431162
 59      -0.009751646267
 60       0.111575353024
 61       0.071518786490
 Sym=     1a
 Ene= -5.50977780224208E-01
 Spin= Alpha
 Occup= 2.000000
  1      -0.017947364401
  2       0.039891657483
  3      -0.097481038334
  4      -0.015259276805
  5      -0.102679590299
  6       0.027140865910
  7      -0.067171265745
  8      -0.008069631327
  9      -0.061938149769
 10      -0.224539924537
 11      -0.179830344711
 12      -0.005749244261
 13       0.015992195797
 14       0.220397838622
 15       0.011699567291
 16       0.260105454148
 17      -0.017901108926
 18       0.135592151506
 19       0.012341402131
 20       0.128476155200
 21       0.000871510969
 22      -0.001588483380
 23      -0.077015336858
 24       0.153143658132
 25      -0.019169295225
 26       0.008989825702
 27      -0.051208145735
 28       0.099697538690
 29      -0.018595898566
 30      -0.031424811190
 31       0.070227567119
 32      -0.035355749664
 33       0.141764679435
 34      -0.044164142154
 35       0.063356782111
 36      -0.018386895067
 37       0.045762700728
 38       0.004968183769
 39       0.004007867089
 40      -0.006263380093
 41       0.087051464547
 42       0.063497314713
 43       0.110064870962
 44       0.002779324890
 45       0.049104547385
 46       0.053004771206
 47       0.064313299759
 48       0.112494243518
 49       0.079121567452
 50      -0.051063731461
 51      -0.034053733819
 52       0.032313139682
 53       0.034339011000
 54       0.135878579761
 55       0.097316628694
 56      -0.102021362312
 57      -0.063670884181
 58      -0.047605928802
 59      -0.050160990251
 60      -0.098211123892
 61      -0.065625140829
 Sym=     1a
 Ene= -5.08646437898563E-01
 Spin= Alpha
 Occup= 2.000000
  1      -0.012972608296
  2       0.028634014381