
                                 *****************
                                 * O   R   C   A *
                                 *****************

                                            #,                                       
                                            ###                                      
                                            ####                                     
                                            #####                                    
                                            ######                                   
                                           ########,                                 
                                     ,,################,,,,,                         
                               ,,#################################,,                 
                          ,,##########################################,,             
                       ,#########################################, ''#####,          
                    ,#############################################,,   '####,        
                  ,##################################################,,,,####,       
                ,###########''''           ''''###############################       
              ,#####''   ,,,,##########,,,,          '''####'''          '####       
            ,##' ,,,,###########################,,,                        '##       
           ' ,,###''''                  '''############,,,                           
         ,,##''                                '''############,,,,        ,,,,,,###''
      ,#''                                            '''#######################'''  
     '                                                          ''''####''''         
             ,#######,   #######,   ,#######,      ##                                
            ,#'     '#,  ##    ##  ,#'     '#,    #''#        ,####,    ,#,          
            ##       ##  ##   ,#'  ##            #'  '#       #'       ,# #          
            ##       ##  #######   ##           ,######,      #####,      #          
            '#,     ,#'  ##    ##  '#,     ,#' ,#      #,     #,   #      #          
             '#######'   ##     ##  '#######'  #'      '#     '####' #    #          



                #########################################################
                #                        -***-                          #
                #          Department of theory and spectroscopy        #
                #                                                       #
                #                      Frank Neese                      #
                #                                                       #
                #     Directorship, Architecture, Infrastructure        #
                #                    SHARK, DRIVERS                     #
                #        Core code/Algorithms in most modules           #
                #                                                       #
                #        Max Planck Institute fuer Kohlenforschung      #
                #                Kaiser Wilhelm Platz 1                 #
                #                 D-45470 Muelheim/Ruhr                 #
                #                      Germany                          #
                #                                                       #
                #                  All rights reserved                  #
                #                        -***-                          #
                #########################################################


                         Program Version 6.1.0  -  RELEASE   -
                                (GIT: $679e74b$)
                          ($2025-06-10 18:02:51 +0200$)


 With contributions from (in alphabetic order):
[Max-Planck-Institut fuer Kohlenforschung]                               
  Daniel Aravena         : Magnetic Suceptibility                        
  Michael Atanasov       : Ab Initio Ligand Field Theory (pilot matlab implementation)
  Alexander A. Auer      : GIAO ZORA, VPT2 properties, NMR spectrum      
  Ute Becker             : All parallelization in ORCA, NUMFREQ, NUMCALC 
  Giovanni Bistoni       : ED, misc. LED, open-shell LED, HFLD           
  Dmytro Bykov           : pre 5.0 version of the SCF Hessian            
  Marcos Casanova-Páez   : Triplet and SCS-CIS(D). UHF-(DLPNO)-IP/EA/STEOM-CCSD. UHF-CVS-IP/STEOM-CCSD   
  Vijay G. Chilkuri      : MRCI spin determinant printing, contributions to CSF-ICE 
  Pauline Colinet        : FMM embedding                                 
  Dipayan Datta          : RHF DLPNO-CCSD density                        
  Achintya Kumar Dutta   : EOM-CC, STEOM-CC                              
  Nicolas Foglia         : Exact transition moments, OPA infrastructure, MCD improvements    
  Dmitry Ganyushin       : Spin-Orbit,Spin-Spin,Magnetic field MRCI      
  Miquel Garcia-Rates    : C-PCM and meta-GGA Hessian, CCSD/C-PCM, Gaussian charge scheme 
  Tiago L. C. Gouveia    : GS-ROHF, GS-ROCIS                             
  Yang Guo               : DLPNO-NEVPT2, F12-NEVPT2, CIM, IAO-localization        
  Andreas Hansen         : Spin unrestricted coupled pair/coupled cluster methods 
  Ingolf Harden          : AUTO-CI MPn and infrastructure                
  Benjamin Helmich-Paris : MC-RPA, TRAH-(SCF,CASSCF), AVAS, COSX integrals, SCF dyn. polar., MC-PDFT, srDFT 
  Lee Huntington         : MR-EOM, pCC                                   
  Robert Izsak           : Overlap fitted RIJCOSX, COSX-SCS-MP3, EOM     
  Riya Kayal             : Wick's Theorem for AUTO-CI, AUTO-CI UHF-CCSDT 
  Emily Kempfer          : AUTO-CI RHF CISDT and CCSDT, approximate NEVPT4
  Christian Kollmar      : KDIIS, OOCD, Brueckner-CCSD(T), CCSD density, CASPT2, CASPT2-K, improved NEVPT2 
  Axel Koslowski         : Symmetry handling                             
  Simone Kossmann        : meta-GGA functionals, TD-DFT gradient, OOMP2, (MP2 Hessian; deprecated post 5.0) 
  Lucas Lang             : DCDCAS, Hyperfine gauge corrections, ICE-SOC+SSC
  Marvin Lechner         : AUTO-CI (C++ implementation), FIC-MRCC        
  Spencer Leger          : CASSCF response                               
  Dagmar Lenk            : GEPOL surface, SMD, ORCA-2-JSON               
  Dimitrios Liakos       : Extrapolation schemes; Compound Job, Property file
  Dimitrios Manganas     : Further ROCIS development; embedding schemes. LFT, Crystal Embedding 
  Dimitrios Pantazis     : SARC Basis sets                               
  Anastasios Papadopoulos: AUTO-CI, single reference methods and gradients 
  Taras Petrenko         : pre 6.0 DFT Hessian and TD-DFT gradient,  ECA, NRVS 
  Petra Pikulova         : Analytic Raman intensities                    
  Peter Pinski           : DLPNO-MP2, DLPNO-MP2 Gradient                 
  Shashank Vittal Rao    : ES-AILFT, MagRelax                            
  Christoph Reimann      : Effective Core Potentials                     
  Marius Retegan         : Local ZFS, SOC                                
  Christoph Riplinger    : Optimizer, TS searches, QM/MM, DLPNO-CCSD(T), (RO)-DLPNO pert. Triples 
  Michael Roemelt        : Original ROCIS implementation, recursive CI coupling coefficients
  Masaaki Saitow         : Open-shell DLPNO-CCSD energy and density      
  Barbara Sandhoefer     : DKH picture change effects                    
  Yorick L. A. Schmerwitz: GMF and freeze-and-release deltaSCF, NEB S-IDPP initial path                    
  Kantharuban Sivalingam : CASSCF convergence/infrastructure, NEVPT2, NEVPT3, NEVPT4(SD), FIC-MRCI and CEPA variants
  Bernardo de Souza      : ESD, SOC TD-DFT                               
  Georgi L. Stoychev     : AutoAux, RI-MP2 NMR, DLPNO-MP2 response, X2C  
  Van Anh Tran           : RI-MP2 g-tensors                              
  Willem Van den Heuvel  : Paramagnetic NMR                              
  Zikuan Wang            : NOTCH, Electric field optimization            
  Frank Wennmohs         : Technical directorship and infrastructure     
  Hang Xu                : AUTO-CI-Response properties                   
                                                                         
[FACCTs GmbH]                                                            
  Markus Bursch, Nicolas Foglia, Miquel Garcia-Rates, Ingolf Harden, Hagen Neugebauer, Anastasios Papadopoulos, 
  Christoph Riplinger, Bernardo de Souza, Georgi L. Stoychev                                                    
                                                                 
  APM, various basis sets, CI-OPT, improved COSX, DLPNO-Multilevel,           
  DOCKER, DRACO, updates on ESD, Fragmentator, GOAT, IRC, LR-CPCM, L-BFGS, MBIS, meta-GGA TD-DFT gradient, ML-optimized integration grids, 
  MM, NACMEs, nearIR, NEB, NEB-TS, NL-DFT gradient (VV10), 2- and 3-layer-ONIOM, interface openCOSMO-RS, QMMM,   
  Crystal-QMMM, RESP, rigid body optimization, SF, symmetry and pop. for TD-DFT, various functionals, SOLVATOR                                   
                                                                         
[Other institutions]                                                     
  V. Asgeirsson          : NEB                                           
  Christoph Bannwarth    : sTDA-DFT, sTD-DFT, PBEh-3c, B97-3c, D3        
  Giovanni Bistoni       : ETS/NOCV, ADLD/ADEX, COVALED                  
  Martin Brehm           : Molecular dynamics                            
  Ronald Cardenas        : ETS/NOCV                                      
  Martina Colucci        : COVALED                                       
  Sebastian Ehlert       : rSCAN, r2SCAN, r2SCAN-3c, D4, dhf basis sets  
  Marvin Friede          : D4 for Fr, Ra, Ac-Lr                          
  Lars Goerigk           : TD-DFT with DH, B97 family of functionals     
  Stefan Grimme          : VdW corrections, initial TS optimization, DFT functionals, gCP, sTDA/sTD-DF 
  Waldemar Hujo          : DFT-NL                                        
  H. Jonsson             : NEB                                           
  Holger Kruse           : gCP                                           
  Marcel Mueller         : wB97X-3c, vDZP basis set                      
  Hagen Neugebauer       : wr2SCAN, Native XTB                           
  Gianluca Regni         : ADLD/ADEX                                     
  Tobias Risthaus        : pre 6.0 range-separated hybrid DFT and stability analysis
  Lukas Wittmann         : regularized MP2, r2SCAN double-hybrids, wr2SCAN        
                                                                         
We gratefully acknowledge several colleagues who have allowed us to      
interface, adapt or use parts of their codes:                            
  Ed Valeev, F. Pavosevic, A. Kumar             : LibInt (2-el integral package), F12 methods 
  Garnet Chan, S. Sharma, J. Yang, R. Olivares  : DMRG                   
  Ulf Ekstrom                                   : XCFun DFT Library      
  Mihaly Kallay                                 : mrcc  (arbitrary order and MRCC methods)
  Frank Weinhold                                : gennbo (NPA and NBO analysis)           
  Simon Mueller                                 : openCOSMO-RS                            
  Christopher J. Cramer and Donald G. Truhlar   : smd solvation model                     
  S Lehtola, MJT Oliveira, MAL Marques          : LibXC Library                           
  Liviu Ungur et al                             : ANISO software                          


 Your calculation uses the libint2 library for the computation of 2-el integrals
 For citations please refer to: http://libint.valeyev.net

 Your ORCA version has been built with support for libXC version: 7.0.0
 For citations please refer to: https://libxc.gitlab.io

 This ORCA versions uses:
   CBLAS   interface :  Fast vector & matrix operations
   LAPACKE interface :  Fast linear algebra routines
   SCALAPACK package :  Parallel linear algebra routines
   Shared memory     :  Shared parallel matrices
   BLAS/LAPACK       :  OpenBLAS 0.3.29  USE64BITINT DYNAMIC_ARCH NO_AFFINITY Zen SINGLE_THREADED
        Core in use  :  Zen
   Copyright (c) 2011-2014, The OpenBLAS Project


  ***********************************
  * Starting time: Sun Apr  5 13:00:36 2026
  * Host name:     QC1
  * Process ID:    5884
  * Working dir.:  /home/user/QC/h-shift/split_2
  ***********************************

NOTE: MaxCore=1200 MB was set to SCF,MP2,MDCI,CIPSI,MRCI,RASCI and CIS
      => If you want to overwrite this, your respective input block should be placed after the MaxCore statement
================================================================================

----- Orbital basis set information -----
Your calculation utilizes the basis: 6-31G
   H-He, Li-Ne : W. J. Hehre, R. Ditchfield and J.A. Pople, J. Chem. Phys. 56, 2257 (1972).
                 Note: He and Ne are unpublished basis sets taken from the Gaussian program.
                 Note: Li and B from J. D. Dill and J. A. Pople, J. Chem. Phys. 62, 2921 (1975).
   Na - Ar     : M. M. Francl, W. J. Pietro, W. J. Hehre, J. S. Binkley, M. S. Gordon, 
                 D. J. DeFrees and J. A. Pople, J. Chem. Phys. 77, 3654 (1982).
   K - Zn      : V. A. Rassolov, J. A. Pople, M. A. Ratner, and T. L. Windus, J. Chem. Phys. 109, 1223 (1998).

================================================================================
                                        WARNINGS
                       Please study these warnings very carefully!
================================================================================


================================================================================
                                       INPUT FILE
================================================================================
NAME = h-shift_025.inp
|  1> ! HF 6-31G
|  2> %maxcore 1200
|  3> %pal nprocs 8 end
|  4> * xyz 0 1
|  5> C    0.02485200   0.01127300  -0.14012100
|  6> H    1.05932400   0.00916100  -0.46045400
|  7> C    2.54870200   0.01708300   1.49357900
|  8> C    2.02092300  -1.16323700   1.81108600
|  9> C    0.62422000  -1.60334000   1.68207000
| 10> C   -0.23951700  -1.14902200   0.77334300
| 11> H   -0.60684400   0.00469100  -1.01588800
| 12> H   -0.13924400   0.95052400   0.38157400
| 13> H    1.96330300   0.87735300   1.24487400
| 14> H    3.61161700   0.15206000   1.45474900
| 15> H    2.69490000  -1.94146000   2.12413600
| 16> H    0.33557100  -2.44171100   2.29283700
| 17> H   -1.18203100  -1.65542100   0.65860600
| 18> *
| 19> 
| 20>                          ****END OF INPUT****
================================================================================

                       ****************************
                       * Single Point Calculation *
                       ****************************

---------------------------------
CARTESIAN COORDINATES (ANGSTROEM)
---------------------------------
  C      0.024852    0.011273   -0.140121
  H      1.059324    0.009161   -0.460454
  C      2.548702    0.017083    1.493579
  C      2.020923   -1.163237    1.811086
  C      0.624220   -1.603340    1.682070
  C     -0.239517   -1.149022    0.773343
  H     -0.606844    0.004691   -1.015888
  H     -0.139244    0.950524    0.381574
  H      1.963303    0.877353    1.244874
  H      3.611617    0.152060    1.454749
  H      2.694900   -1.941460    2.124136
  H      0.335571   -2.441711    2.292837
  H     -1.182031   -1.655421    0.658606

----------------------------
CARTESIAN COORDINATES (A.U.)
----------------------------
  NO LB      ZA    FRAG     MASS         X           Y           Z
   0 C     6.0000    0    12.011    0.046963    0.021303   -0.264790
   1 H     1.0000    0     1.008    2.001832    0.017312   -0.870132
   2 C     6.0000    0    12.011    4.816349    0.032282    2.822455
   3 C     6.0000    0    12.011    3.818991   -2.198199    3.422457
   4 C     6.0000    0    12.011    1.179605   -3.029873    3.178652
   5 C     6.0000    0    12.011   -0.452622   -2.171337    1.461406
   6 H     1.0000    0     1.008   -1.146769    0.008865   -1.919750
   7 H     1.0000    0     1.008   -0.263133    1.796230    0.721070
   8 H     1.0000    0     1.008    3.710105    1.657957    2.352471
   9 H     1.0000    0     1.008    6.824967    0.287352    2.749077
  10 H     1.0000    0     1.008    5.092623   -3.668828    4.014035
  11 H     1.0000    0     1.008    0.634137   -4.614165    4.332834
  12 H     1.0000    0     1.008   -2.233715   -3.128292    1.244585

--------------------------------
INTERNAL COORDINATES (ANGSTROEM)
--------------------------------
 C      0   0   0     0.000000000000     0.00000000     0.00000000
 H      1   0   0     1.082935829224     0.00000000     0.00000000
 C      2   1   0     2.456940078646   110.10879653     0.00000000
 C      3   2   1     1.331358956214    86.93335950    62.76680201
 C      4   3   2     1.470073144124   128.39783510   321.61866029
 C      5   4   3     1.333503359884   124.97390591    28.60233215
 H      1   2   3     1.079838412647   108.59644364   180.16843309
 H      1   2   3     1.086869638568   106.73183357    64.15803638
 H      3   2   1     1.069864776094    59.07073580   290.24844496
 H      3   2   1     1.072154306364   124.92967980   188.88916126
 H      4   3   2     1.076046623877   117.53309001   135.67527604
 H      5   4   3     1.076671030135   115.97907686   200.52104952
 H      6   5   4     1.076074888921   118.66296073   169.72521492

---------------------------
INTERNAL COORDINATES (A.U.)
---------------------------
 C      0   0   0     0.000000000000     0.00000000     0.00000000
 H      1   0   0     2.046452137844     0.00000000     0.00000000
 C      2   1   0     4.642943876096   110.10879653     0.00000000
 C      3   2   1     2.515903813187    86.93335950    62.76680201
 C      4   3   2     2.778035639227   128.39783510   321.61866029
 C      5   4   3     2.519956148845   124.97390591    28.60233215
 H      1   2   3     2.040598868792   108.59644364   180.16843309
 H      1   2   3     2.053885960168   106.73183357    64.15803638
 H      3   2   1     2.021751427146    59.07073580   290.24844496
 H      3   2   1     2.026078012331   124.92967980   188.88916126
 H      4   3   2     2.033433426459   117.53309001   135.67527604
 H      5   4   3     2.034613383281   115.97907686   200.52104952
 H      6   5   4     2.033486839650   118.66296073   169.72521492

---------------------
BASIS SET INFORMATION
---------------------
There are 2 groups of distinct atoms

 Group   1 Type C   : 10s4p contracted to 3s2p pattern {631/31}
 Group   2 Type H   : 4s contracted to 2s pattern {31}

Atom   0C    basis set group =>   1
Atom   1H    basis set group =>   2
Atom   2C    basis set group =>   1
Atom   3C    basis set group =>   1
Atom   4C    basis set group =>   1
Atom   5C    basis set group =>   1
Atom   6H    basis set group =>   2
Atom   7H    basis set group =>   2
Atom   8H    basis set group =>   2
Atom   9H    basis set group =>   2
Atom  10H    basis set group =>   2
Atom  11H    basis set group =>   2
Atom  12H    basis set group =>   2


           ************************************************************
           *        Program running with 8 parallel MPI-processes     *
           *              working on a common directory               *
           ************************************************************
------------------------------------------------------------------------------
                             ORCA STARTUP CALCULATIONS
------------------------------------------------------------------------------
------------------------------------------------------------------------------
                   ___                                                        
                  /   \      - P O W E R E D   B Y -                         
                 /     \                                                     
                 |  |  |   _    _      __       _____    __    __             
                 |  |  |  | |  | |    /  \     |  _  \  |  |  /  |          
                  \  \/   | |  | |   /    \    | | | |  |  | /  /          
                 / \  \   | |__| |  /  /\  \   | |_| |  |  |/  /          
                |  |  |   |  __  | /  /__\  \  |    /   |      \           
                |  |  |   | |  | | |   __   |  |    \   |  |\   \          
                \     /   | |  | | |  |  |  |  | |\  \  |  | \   \       
                 \___/    |_|  |_| |__|  |__|  |_| \__\ |__|  \__/        
                                                                              
                      - O R C A' S   B I G   F R I E N D -                    
                                      &                                       
                       - I N T E G R A L  F E E D E R -                       
                                                                              
 v1 FN, 2020, v2 2021, v3 2022-2024                                           
------------------------------------------------------------------------------


----------------------
SHARK INTEGRAL PACKAGE
----------------------

Number of atoms                             ...     13
Number of basis functions                   ...     61
Number of shells                            ...     41
Maximum angular momentum                    ...      1
Integral batch strategy                     ... SHARK/LIBINT Hybrid
RI-J (if used) integral strategy            ... SPLIT-RIJ (Revised 2003 algorithm where possible)
Printlevel                                  ...      1
Contraction scheme used                     ... SEGMENTED contraction
Prescreening option                         ... SCHWARTZ
   Thresh                                   ... 1.000e-10
   Tcut                                     ... 1.000e-11
   Tpresel                                  ... 1.000e-11 
Coulomb Range Separation                    ... NOT USED
Exchange Range Separation                   ... NOT USED
Multipole approximations                    ... NOT USED
Finite Nucleus Model                        ... NOT USED
CABS basis                                  ... NOT available
Auxiliary Coulomb fitting basis             ... NOT available
Auxiliary J/K fitting basis                 ... NOT available
Auxiliary Correlation fitting basis         ... NOT available
Auxiliary 'external' fitting basis          ... NOT available

Checking pre-screening integrals            ... done (  0.0 sec) Dimension = 41
   => SHARK Basis and OBASIS are compatible. Storing Pre-screening
Shell pair information
Shell pair cut-off parameter TPreSel        ...   1.0e-11
Total number of shell pairs                 ...       861
Shell pairs after pre-screening             ...       846
Total number of primitive shell pairs       ...      5382
Primitive shell pairs kept                  ...      3734
          la=0 lb=0:    481 shell pairs
          la=1 lb=0:    310 shell pairs
          la=1 lb=1:     55 shell pairs

Checking whether 4 symmetric matrices of dimension 61 fit in memory
:Max Core in MB      =   1200.00
 MB in use           =      2.04
 MB left             =   1197.96
 MB needed           =      0.06
 Data fit in memory  = YES
Calculating Nuclear repulsion               ... done (  0.0 sec) ENN=    161.268011949188 Eh

Diagonalization of the overlap matrix:
Smallest eigenvalue                        ... 3.386e-03
Time for diagonalization                   ...    0.001 sec
Threshold for overlap eigenvalues          ... 1.000e-07
Number of eigenvalues below threshold      ... 0
Time for construction of square roots      ...    0.000 sec
Total time needed                          ...    0.002 sec

-------------------
DFT GRID GENERATION
-------------------

General Integration Accuracy     IntAcc      ... 4.388
Radial Grid Type                 RadialGrid  ... OptM3 with GC (2021)
Angular Grid (max. ang.)         AngularGrid ... 4 (Lebedev-302)
Angular grid pruning method      GridPruning ... 4 (adaptive)
Weight generation scheme         WeightScheme... mBecke (2022)
Basis function cutoff            BFCut       ... 1.0000e-10
Integration weight cutoff        WCut        ... 1.0000e-14
Partially contracted basis set               ... off
Rotationally invariant grid construction     ... off
Angular grids for H and He will be reduced by one unit

Total number of grid points                  ...    56030
Total number of batches                      ...      882
Average number of points per batch           ...       63
Average number of grid points per atom       ...     4310
Grids setup in   0.2 sec
Initializing property integral containers    ... done (  0.0 sec)

SHARK setup successfully completed in   0.3 seconds

Maximum memory used throughout the entire STARTUP-calculation: 11.8 MB


           ************************************************************
           *        Program running with 8 parallel MPI-processes     *
           *              working on a common directory               *
           ************************************************************
-------------------------------------------------------------------------------
                                 ORCA GUESS
                   Start orbitals & Density for SCF / CASSCF
-------------------------------------------------------------------------------

------------
SCF SETTINGS
------------
Hamiltonian:
 Ab initio Hamiltonian  Method          .... Hartree-Fock(GTOs)


General Settings:
 Integral files         IntName         .... h-shift_025
 Hartree-Fock type      HFTyp           .... RHF
 Total Charge           Charge          ....    0
 Multiplicity           Mult            ....    1
 Number of Electrons    NEL             ....   38
 Basis Dimension        Dim             ....   61
 Nuclear Repulsion      ENuc            ....    161.2680119492 Eh

Convergence Acceleration:
 AO-DIIS                CNVDIIS         .... on
   Start iteration      DIISMaxIt       ....    12
   Startup error        DIISStart       ....  0.200000
   # of expansion vecs  DIISMaxEq       ....     5
   Bias factor          DIISBfac        ....   1.050
   Max. coefficient     DIISMaxC        ....  10.000
 MO-DIIS                CNVKDIIS        .... off
 Trust-Rad. Augm. Hess. CNVTRAH         .... auto
   Auto Start mean grad. ratio tolernc. ....  1.125000
   Auto Start start iteration           ....    50
   Auto Start num. interpolation iter.  ....    10
   Max. Number of Micro iterations      ....    24
   Max. Number of Macro iterations      .... Maxiter - #DIIS iter
   Number of Davidson start vectors     ....     2
   Converg. threshold    (grad. norm)   ....   5.000e-05
   Grad. Scal. Fac. for Micro threshold ....   0.100
   Minimum threshold for Micro iter.    ....   1.000e-02
   NR start threshold (gradient norm)   ....   1.000e-04
   Initial trust radius                 ....   0.400
   Minimum AH scaling param. (alpha)    ....   1.000
   Maximum AH scaling param. (alpha)    .... 1000.000
   Quad. conv. algorithm                .... NR
   White noise on init. David. guess    .... on
   Maximum white noise                  ....   0.010
   Pseudo random numbers                .... off
   Inactive MOs                         .... canonical
   Orbital update algorithm             .... Taylor
   Preconditioner                       .... Diag
   Full preconditioner red. dimension   ....   250
 SOSCF                 CNVSOSCF           .... on
   Start iteration     SOSCFMaxIt         ....   150
   Startup grad/error  SOSCFStart         ....  0.003300
   Hessian update      SOSCFHessUp        .... L-BFGS
   Autom. constraints  SOSCFAutoConstrain .... off
 Level Shifting         CNVShift        .... on
   Level shift para.    LevelShift      ....    0.2500
   Turn off err/grad.   ShiftErr        ....    0.0010
 Zerner damping         CNVZerner       .... off
 Static damping         CNVDamp         .... on
   Fraction old density DampFac         ....    0.7000
   Max. Damping (<1)    DampMax         ....    0.9800
   Min. Damping (>=0)   DampMin         ....    0.0000
   Turn off err/grad.   DampErr         ....    0.1000

SCF Procedure:
 Maximum # iterations   MaxIter         ....   125
 SCF integral mode      SCFMode         .... Direct
   Integral package                     .... SHARK and LIBINT hybrid scheme
 Reset frequency        DirectResetFreq ....    20
 Integral Threshold     Thresh          ....  1.000e-10 Eh
 Primitive CutOff       TCut            ....  1.000e-11 Eh

Convergence Tolerance:
 Convergence Check Mode ConvCheckMode   .... Total+1el-Energy
 Convergence forced     ConvForced      .... 0
 Energy Change          TolE            ....  1.000e-06 Eh
 1-El. energy change                    ....  1.000e-03 Eh
 Orbital Gradient       TolG            ....  5.000e-05
 Orbital Rotation angle TolX            ....  5.000e-05
 DIIS Error             TolErr          ....  1.000e-06

------------------------------
INITIAL GUESS: MODEL POTENTIAL
------------------------------
Loading Hartree-Fock densities                     ... done
Calculating cut-offs                               ... done
Initializing the effective Hamiltonian             ... done
Setting up the integral package (SHARK)            ... done
Starting the Coulomb interaction                   ... done (   0.0 sec)
Making the grid                                    ... done (   0.1 sec)
Mapping shells                                     ... done
Starting the XC term evaluation                    ... done (   0.0 sec)
Transforming the Hamiltonian                       ... done (   0.0 sec)
Diagonalizing the Hamiltonian                      ... done (   0.0 sec)
Back transforming the eigenvectors                 ... done (   0.0 sec)
Now organizing SCF variables                       ... done
                      ------------------
                      INITIAL GUESS DONE (   0.1 sec)
                      ------------------
             **** ENERGY FILE WAS UPDATED (h-shift_025.en.tmp) ****
Finished Guess after   0.3 sec
Maximum memory used throughout the entire GUESS-calculation: 4.2 MB


           ************************************************************
           *        Program running with 8 parallel MPI-processes     *
           *              working on a common directory               *
           ************************************************************

-------------------------------------------------------------------------------------------
                                      ORCA LEAN-SCF
                              memory conserving SCF solver
-------------------------------------------------------------------------------------------

----------------------------------------D-I-I-S--------------------------------------------
Iteration    Energy (Eh)           Delta-E    RMSDP     MaxDP     DIISErr   Damp  Time(sec)
-------------------------------------------------------------------------------------------
               ***  Starting incremental Fock matrix formation  ***
    1    -193.6434218493916433     0.00e+00  1.57e-02  5.32e-02  1.88e-01  0.700   0.0
    2    -193.7242564798258968    -8.08e-02  1.25e-02  4.03e-02  1.23e-01  0.700   0.0
                               ***Turning on AO-DIIS***
    3    -193.7742250645450781    -5.00e-02  7.69e-03  2.02e-02  7.31e-02  0.700   0.0
    4    -193.8058015731196519    -3.16e-02  1.83e-02  4.29e-02  4.94e-02  0.000   0.0
                              *** Initializing SOSCF ***
---------------------------------------S-O-S-C-F--------------------------------------
Iteration    Energy (Eh)           Delta-E    RMSDP     MaxDP     MaxGrad    Time(sec)
--------------------------------------------------------------------------------------
    5    -193.8741242809406913    -6.83e-02  1.71e-03  2.78e-03  2.78e-03     0.0
               *** Restarting incremental Fock matrix formation ***
    6    -193.8742473674731741    -1.23e-04  8.81e-04  1.85e-03  1.38e-03     0.0
    7    -193.8742841228632869    -3.68e-05  5.56e-04  1.22e-03  5.71e-04     0.0
    8    -193.8742913911301002    -7.27e-06  7.35e-05  1.77e-04  1.36e-04     0.0
    9    -193.8742916167596491    -2.26e-07  3.29e-05  7.89e-05  2.71e-05     0.0
                 **** Energy Check signals convergence ****

               *****************************************************
               *                     SUCCESS                       *
               *           SCF CONVERGED AFTER   9 CYCLES          *
               *****************************************************

             **** ENERGY FILE WAS UPDATED (h-shift_025.en.tmp) ****

----------------
TOTAL SCF ENERGY
----------------

Total Energy       :       -193.87429167627641 Eh           -5275.58768 eV

Components:
Nuclear Repulsion  :        161.26801194918778 Eh            4388.32570 eV
Electronic Energy  :       -355.14230362546419 Eh           -9663.91339 eV
One Electron Energy:       -579.49051557293080 Eh          -15768.73860 eV
Two Electron Energy:        224.34821194746661 Eh            6104.82521 eV

Virial components:
Potential Energy   :       -388.05220975392683 Eh          -10559.43746 eV
Kinetic Energy     :        194.17791807765039 Eh            5283.84978 eV
Virial Ratio       :          1.99843634948618

---------------
SCF CONVERGENCE
---------------

  Last Energy change         ...    2.2563e-07  Tolerance :   1.0000e-06
  Last MAX-Density change    ...    7.8925e-05  Tolerance :   1.0000e-05
  Last RMS-Density change    ...    3.2950e-05  Tolerance :   1.0000e-06
  Last DIIS Error            ...    2.7776e-03  Tolerance :   1.0000e-06
  Last Orbital Gradient      ...    2.7076e-05  Tolerance :   5.0000e-05
  Last Orbital Rotation      ...    3.0526e-05  Tolerance :   5.0000e-05


----------------
ORBITAL ENERGIES
----------------

  NO   OCC          E(Eh)            E(eV) 
   0   2.0000     -11.236055      -305.7486 
   1   2.0000     -11.235945      -305.7456 
   2   2.0000     -11.227630      -305.5194 
   3   2.0000     -11.221074      -305.3409 
   4   2.0000     -11.214294      -305.1565 
   5   2.0000      -1.101647       -29.9773 
   6   2.0000      -1.020149       -27.7597 
   7   2.0000      -0.941512       -25.6198 
   8   2.0000      -0.813293       -22.1308 
   9   2.0000      -0.718571       -19.5533 
  10   2.0000      -0.668060       -18.1788 
  11   2.0000      -0.602145       -16.3852 
  12   2.0000      -0.584537       -15.9061 
  13   2.0000      -0.567693       -15.4477 
  14   2.0000      -0.542851       -14.7717 
  15   2.0000      -0.507367       -13.8062 
  16   2.0000      -0.469386       -12.7726 
  17   2.0000      -0.409813       -11.1516 
  18   2.0000      -0.315023        -8.5722 
  19   0.0000       0.132762         3.6126 
  20   0.0000       0.230231         6.2649 
  21   0.0000       0.251833         6.8527 
  22   0.0000       0.267742         7.2856 
  23   0.0000       0.291544         7.9333 
  24   0.0000       0.321945         8.7606 
  25   0.0000       0.336159         9.1474 
  26   0.0000       0.347985         9.4692 
  27   0.0000       0.361547         9.8382 
  28   0.0000       0.368122        10.0171 
  29   0.0000       0.431338        11.7373 
*Only the first 10 virtual orbitals were printed.

                    ********************************
                    * MULLIKEN POPULATION ANALYSIS *
                    ********************************

-----------------------
MULLIKEN ATOMIC CHARGES
-----------------------
   0 C :   -0.512380
   1 H :    0.183395
   2 C :   -0.364442
   3 C :   -0.152717
   4 C :   -0.197137
   5 C :   -0.146916
   6 H :    0.158921
   7 H :    0.171563
   8 H :    0.172918
   9 H :    0.161734
  10 H :    0.172763
  11 H :    0.175869
  12 H :    0.176429
Sum of atomic charges:   -0.0000000

--------------------------------
MULLIKEN REDUCED ORBITAL CHARGES
--------------------------------
  0 C s       :     3.367010  s :     3.367010
      pz      :     1.039121  p :     3.145369
      px      :     1.111557
      py      :     0.994691

  1 H s       :     0.816605  s :     0.816605

  2 C s       :     3.267349  s :     3.267349
      pz      :     1.016479  p :     3.097093
      px      :     1.082752
      py      :     0.997863

  3 C s       :     3.195440  s :     3.195440
      pz      :     0.996360  p :     2.957277
      px      :     0.964895
      py      :     0.996022

  4 C s       :     3.195058  s :     3.195058
      pz      :     1.013984  p :     3.002079
      px      :     0.924617
      py      :     1.063478

  5 C s       :     3.211243  s :     3.211243
      pz      :     0.938848  p :     2.935673
      px      :     1.033096
      py      :     0.963729

  6 H s       :     0.841079  s :     0.841079

  7 H s       :     0.828437  s :     0.828437

  8 H s       :     0.827082  s :     0.827082

  9 H s       :     0.838266  s :     0.838266

 10 H s       :     0.827237  s :     0.827237

 11 H s       :     0.824131  s :     0.824131

 12 H s       :     0.823571  s :     0.823571



                     *******************************
                     * LOEWDIN POPULATION ANALYSIS *
                     *******************************

----------------------
LOEWDIN ATOMIC CHARGES
----------------------
   0 C :   -0.320273
   1 H :    0.126160
   2 C :   -0.248744
   3 C :   -0.113845
   4 C :   -0.150281
   5 C :   -0.105756
   6 H :    0.110360
   7 H :    0.117257
   8 H :    0.117918
   9 H :    0.116081
  10 H :    0.116612
  11 H :    0.117391
  12 H :    0.117121

-------------------------------
LOEWDIN REDUCED ORBITAL CHARGES
-------------------------------
  0 C s       :     2.976324  s :     2.976324
      pz      :     1.107607  p :     3.343949
      px      :     1.144882
      py      :     1.091460

  1 H s       :     0.873840  s :     0.873840

  2 C s       :     2.988538  s :     2.988538
      pz      :     1.037336  p :     3.260206
      px      :     1.116187
      py      :     1.106683

  3 C s       :     2.944967  s :     2.944967
      pz      :     0.988046  p :     3.168878
      px      :     1.072190
      py      :     1.108642

  4 C s       :     2.941128  s :     2.941128
      pz      :     1.075587  p :     3.209153
      px      :     1.062928
      py      :     1.070638

  5 C s       :     2.952311  s :     2.952311
      pz      :     1.032647  p :     3.153445
      px      :     1.086288
      py      :     1.034510

  6 H s       :     0.889640  s :     0.889640

  7 H s       :     0.882743  s :     0.882743

  8 H s       :     0.882082  s :     0.882082

  9 H s       :     0.883919  s :     0.883919

 10 H s       :     0.883388  s :     0.883388

 11 H s       :     0.882609  s :     0.882609

 12 H s       :     0.882879  s :     0.882879



                      *****************************
                      * MAYER POPULATION ANALYSIS *
                      *****************************

  NA   - Mulliken gross atomic population
  ZA   - Total nuclear charge
  QA   - Mulliken gross atomic charge
  VA   - Mayer's total valence
  BVA  - Mayer's bonded valence
  FA   - Mayer's free valence

  ATOM       NA         ZA         QA         VA         BVA        FA
  0 C      6.5124     6.0000    -0.5124     3.7709     3.7709    -0.0000
  1 H      0.8166     1.0000     0.1834     0.9295     0.9295    -0.0000
  2 C      6.3644     6.0000    -0.3644     3.8436     3.8436    -0.0000
  3 C      6.1527     6.0000    -0.1527     3.8083     3.8083    -0.0000
  4 C      6.1971     6.0000    -0.1971     3.8210     3.8210    -0.0000
  5 C      6.1469     6.0000    -0.1469     3.7635     3.7635    -0.0000
  6 H      0.8411     1.0000     0.1589     0.9332     0.9332    -0.0000
  7 H      0.8284     1.0000     0.1716     0.9218     0.9218    -0.0000
  8 H      0.8271     1.0000     0.1729     0.9383     0.9383    -0.0000
  9 H      0.8383     1.0000     0.1617     0.9437     0.9437    -0.0000
 10 H      0.8272     1.0000     0.1728     0.9371     0.9371    -0.0000
 11 H      0.8241     1.0000     0.1759     0.9386     0.9386    -0.0000
 12 H      0.8236     1.0000     0.1764     0.9385     0.9385    -0.0000

  Mayer bond orders larger than 0.100000
B(  0-C ,  1-H ) :   0.9396 B(  0-C ,  5-C ) :   0.9608 B(  0-C ,  6-H ) :   0.9601 
B(  0-C ,  7-H ) :   0.9453 B(  2-C ,  3-C ) :   1.8747 B(  2-C ,  8-H ) :   0.9611 
B(  2-C ,  9-H ) :   0.9628 B(  3-C ,  4-C ) :   1.0497 B(  3-C , 10-H ) :   0.9578 
B(  4-C ,  5-C ) :   1.8758 B(  4-C , 11-H ) :   0.9564 B(  5-C , 12-H ) :   0.9569 


-------
TIMINGS
-------

Total SCF time: 0 days 0 hours 0 min 0 sec 

Total time                  ....       0.614 sec
Sum of individual times     ....       0.571 sec  ( 93.1%)

SCF preparation             ....       0.253 sec  ( 41.2%)
Fock matrix formation       ....       0.264 sec  ( 42.9%)
  Startup                   ....       0.001 sec  (  0.5% of F)
  Coulomb+Exchange Fock     ....       0.281 sec  (106.8% of F)
Diagonalization             ....       0.000 sec  (  0.0%)
Density matrix formation    ....       0.008 sec  (  1.3%)
Total Energy calculation    ....       0.005 sec  (  0.7%)
Population analysis         ....       0.004 sec  (  0.7%)
Orbital Transformation      ....       0.005 sec  (  0.7%)
Orbital Orthonormalization  ....       0.000 sec  (  0.0%)
DIIS solution               ....       0.020 sec  (  3.3%)
SOSCF solution              ....       0.013 sec  (  2.1%)
Finished LeanSCF after   0.6 sec

Maximum memory used throughout the entire LEANSCF-calculation: 6.4 MB

-------------------------   --------------------
FINAL SINGLE POINT ENERGY      -193.874291676276
-------------------------   --------------------



           ************************************************************
           *        Program running with 8 parallel MPI-processes     *
           *              working on a common directory               *
           ************************************************************

------------------------------------------------------------------------------
                              ORCA PROPERTY CALCULATIONS
------------------------------------------------------------------------------

GBWName                                 ... h-shift_025.gbw
Number of atoms                         ...     13
Number of basis functions               ...     61
Max core memory                         ...   1200 MB

Electric properties:
Dipole moment                           ... YES
Quadrupole moment                       ...  NO
Static polarizability (Dipole/Dipole)   ...  NO
Static polarizability (Dipole/Quad.)    ...  NO
Static polarizability (Quad./Quad.)     ...  NO
Static polarizability (Velocity)        ...  NO
Static hyperpolarizability              ...  NO

Atomic electric properties:
Dipole moment                           ...  NO
Quadrupole moment                       ...  NO
Static polarizability                   ...  NO

Choice of electric origin               ... Center of mass
Position of electric origin             ...     1.875423    -1.408350     2.059398

General magnetic properties:
Magnetizability                         ...  NO

EPR properties:
g-Tensor (aka g-matrix)                 ...  NO
Zero-Field splitting spin-orbit         ...  NO
Zero-field splitting spin-spin          ...  NO
Hyperfine couplings                     ...  NO (   0 nuclei)
Quadrupole couplings                    ...  NO (   0 nuclei)
Contact density                         ...  NO (   0 nuclei)

NMR properties:
Chemical shifts                         ...  NO (   0 nuclei)
Spin-rotation constants                 ...  NO (   0 nuclei)
Spin-spin couplings                     ...  NO (   0 nuclei,    0 pairs)

Choice of magnetic origin               ... GIAO
Position of magnetic origin             ...     0.000000     0.000000     0.000000

Properties with geometric perturbations:
SCF Hessian                             ...  NO
IR spectrum                             ...  NO
VCD spectrum                            ...  NO
X-ray spectroscopy properties:
SCF XES/XAS/RIXS spectra                ...  NO

SCF SOC stabilization energy            ...  NO
Diagonal Born-Oppenheimer correction    ...  NO

-------------
DIPOLE MOMENT
-------------

Method             : SCF
Type of density    : Electron Density
Multiplicity       :   1
Irrep              :   0
Energy             :  -193.8742916762764139 Eh
Basis              : AO
                                X                 Y                 Z
Electronic contribution:      0.140096417      -1.802945401       1.773134705
Nuclear contribution   :     -0.190312335       1.798795977      -1.911871903
                        -----------------------------------------
Total Dipole Moment    :     -0.050215918      -0.004149424      -0.138737198
                        -----------------------------------------
Magnitude (a.u.)       :      0.147603747
Magnitude (Debye)      :      0.375178909



--------------------
Rotational spectrum 
--------------------
 
Rotational constants in cm-1:             0.283119             0.143272             0.098389 
Rotational constants in MHz :          8487.696243          4295.172062          2949.637297 

Dipole components along the rotational axes: 
x,y,z [a.u.] :     0.110876     0.051528    -0.082694 
x,y,z [Debye]:     0.281824     0.130973    -0.210191 

 

Dipole moment calculation done in   0.0 sec 

Maximum memory used throughout the entire PROP-calculation: 2.2 MB

--------------------------------
SUGGESTED CITATIONS FOR THIS RUN
--------------------------------

Below you find a list of papers that are relevant to this ORCA run
We neither can nor want to force you to cite these papers, but we appreciate if you do
You receive ORCA, which is the product of decades of hard work by many enthusiastic individuals, for free
The only thing we kindly ask in return is that you cite our papers,
We deeply appreciate it, if you show your appreciation for ORCA by not just citing the generic ORCA reference.

Please note that relegating all ORCA citations to the supporting information does *not* help us.
SI sections are not indexed - citations you put there will not count into any citation statistics
But we need these citations in order to attract the funding resources that allow us to do what we are doing

Therefore, if you are a happy ORCA user, please consider citing a few of the papers listed below in the main body of your paper

In addition to the list printed below, the program has created the file h-shift_025.bibtex that contains the list in bibtex format
You can import this file easily into all common literature databanks and citation aid programs


List of essential papers. We consider these as the minimum necessary citations

  1. Neese, F.
     Software update: the ORCA program system, version 6.0
     WIRES Comput. Molec. Sci. 2025 15(1), e70019
     doi.org/10.1002/wcms.7019

List of papers to cite with high priority. The work reported in these papers was absolutely
necessary for this run to complete.
Our perspective: the developers of density functionals and basis sets usually get cited in chemistry papers
Good! But without the algorithms to do something with them, the functionals or basis sets would not do anything.
Hence, in our opinion, the algorithm design and method developments papers are equally worthy of getting cited

  1. Neese, F.
     The SHARK Integral Generation and Digestion System
     J. Comp. Chem. 2022 44(3), 381
     doi.org/10.1002/jcc.26942

List of suggested additional citations. These are papers that are important in the 'surrounding' of 
of this run, or papers that preceded the highly important papers. If you like your results we are grateful for a citation.

  1. Neese, F.
     The ORCA program system
     WIRES Comput. Molec. Sci. 2012 2(1), 73-78
     doi.org/10.1002/wcms.81
  2. Neese, F.
     Software update: the ORCA program system, version 4.0
     WIRES Comput. Molec. Sci. 2018 8(1), 1-6
     doi.org/10.1002/wcms.1327
  3. Neese, F.; Wennmohs, F.; Becker, U.; Riplinger, C.
     The ORCA quantum chemistry program package
     J. Chem. Phys. 2020 152(22), 224108
     doi.org/10.1063/5.0004608
  4. Neese, F.
     Software update: The ORCA program system—Version 5.0
     WIRES Comput. Molec. Sci. 2022 12(1), e1606
     doi.org/10.1002/wcms.1606

List of optional additional citations

  1. Neese, F.
     Approximate second-order SCF convergence for spin unrestricted wavefunctions
     Chem. Phys. Lett. 2000 325(1-3), 93-98
     doi.org/10.1016/s0009-2614(00)00662-x

Timings for individual modules:

Sum of individual times          ...        2.201 sec (=   0.037 min)
Startup calculation              ...        0.673 sec (=   0.011 min)  30.6 %
SCF iterations                   ...        1.154 sec (=   0.019 min)  52.4 %
Property calculations            ...        0.374 sec (=   0.006 min)  17.0 %
                             ****ORCA TERMINATED NORMALLY****
TOTAL RUN TIME: 0 days 0 hours 0 minutes 2 seconds 683 msec
