[Molden Format]
[Title]
 Molden file created by orca_2mkl for BaseName=h-shift_005

[Atoms] AU
C    1   6         -0.0396918077         0.0200934580        -0.3567727352 
H    2   1          1.8786485593         0.0368118651        -1.0697834130 
C    3   6          4.9038279792         0.0074020573         2.9296783302 
C    4   6          3.9061470668        -2.2558567929         3.3718118846 
C    5   6          1.2552260180        -3.0392295337         3.0830144882 
C    6   6         -0.4419956044        -2.1143257541         1.4699442603 
H    7   1         -1.3193463155        -0.1057755306        -1.9463064241 
H    8   1         -0.3666597823         1.8336636287         0.5511972085 
H    9   1          3.7977618244         1.6125411046         2.3860230187 
H   10   1          6.8968238669         0.3260212218         3.1206748403 
H   11   1          5.1530582898        -3.7343161591         4.0062647573 
H   12   1          0.6902545958        -4.6011562135         4.2584052462 
H   13   1         -2.2847242493        -2.9752641937         1.4402169784 
[GTO]
  1 0
s   6 1.0 
     3047.5249000000         0.5363343823
      457.3695100000         0.9894506076
      103.9486900000         1.5972822308
       29.2101550000         2.0791870615
        9.2866630000         1.7741742532
        3.1639270000         0.6125798260
s   3 1.0 
        7.8682724000        -0.3995563516
        1.8812885000        -0.1841552393
        0.5442493000         0.5163903794
p   3 1.0 
        7.8682724000         1.2960827175
        1.8812885000         0.9937536282
        0.5442493000         0.4959527138
s   1 1.0 
        0.1687144000         0.1876178721
p   1 1.0 
        0.1687144000         0.1541275509

  2 0
s   3 1.0 
       18.7311370000         0.2149354183
        2.8253937000         0.3645711272
        0.6401217000         0.4150514277
s   1 1.0 
        0.1612778000         0.1813806839

  3 0
s   6 1.0 
     3047.5249000000         0.5363343823
      457.3695100000         0.9894506076
      103.9486900000         1.5972822308
       29.2101550000         2.0791870615
        9.2866630000         1.7741742532
        3.1639270000         0.6125798260
s   3 1.0 
        7.8682724000        -0.3995563516
        1.8812885000        -0.1841552393
        0.5442493000         0.5163903794
p   3 1.0 
        7.8682724000         1.2960827175
        1.8812885000         0.9937536282
        0.5442493000         0.4959527138
s   1 1.0 
        0.1687144000         0.1876178721
p   1 1.0 
        0.1687144000         0.1541275509

  4 0
s   6 1.0 
     3047.5249000000         0.5363343823
      457.3695100000         0.9894506076
      103.9486900000         1.5972822308
       29.2101550000         2.0791870615
        9.2866630000         1.7741742532
        3.1639270000         0.6125798260
s   3 1.0 
        7.8682724000        -0.3995563516
        1.8812885000        -0.1841552393
        0.5442493000         0.5163903794
p   3 1.0 
        7.8682724000         1.2960827175
        1.8812885000         0.9937536282
        0.5442493000         0.4959527138
s   1 1.0 
        0.1687144000         0.1876178721
p   1 1.0 
        0.1687144000         0.1541275509

  5 0
s   6 1.0 
     3047.5249000000         0.5363343823
      457.3695100000         0.9894506076
      103.9486900000         1.5972822308
       29.2101550000         2.0791870615
        9.2866630000         1.7741742532
        3.1639270000         0.6125798260
s   3 1.0 
        7.8682724000        -0.3995563516
        1.8812885000        -0.1841552393
        0.5442493000         0.5163903794
p   3 1.0 
        7.8682724000         1.2960827175
        1.8812885000         0.9937536282
        0.5442493000         0.4959527138
s   1 1.0 
        0.1687144000         0.1876178721
p   1 1.0 
        0.1687144000         0.1541275509

  6 0
s   6 1.0 
     3047.5249000000         0.5363343823
      457.3695100000         0.9894506076
      103.9486900000         1.5972822308
       29.2101550000         2.0791870615
        9.2866630000         1.7741742532
        3.1639270000         0.6125798260
s   3 1.0 
        7.8682724000        -0.3995563516
        1.8812885000        -0.1841552393
        0.5442493000         0.5163903794
p   3 1.0 
        7.8682724000         1.2960827175
        1.8812885000         0.9937536282
        0.5442493000         0.4959527138
s   1 1.0 
        0.1687144000         0.1876178721
p   1 1.0 
        0.1687144000         0.1541275509

  7 0
s   3 1.0 
       18.7311370000         0.2149354183
        2.8253937000         0.3645711272
        0.6401217000         0.4150514277
s   1 1.0 
        0.1612778000         0.1813806839

  8 0
s   3 1.0 
       18.7311370000         0.2149354183
        2.8253937000         0.3645711272
        0.6401217000         0.4150514277
s   1 1.0 
        0.1612778000         0.1813806839

  9 0
s   3 1.0 
       18.7311370000         0.2149354183
        2.8253937000         0.3645711272
        0.6401217000         0.4150514277
s   1 1.0 
        0.1612778000         0.1813806839

 10 0
s   3 1.0 
       18.7311370000         0.2149354183
        2.8253937000         0.3645711272
        0.6401217000         0.4150514277
s   1 1.0 
        0.1612778000         0.1813806839

 11 0
s   3 1.0 
       18.7311370000         0.2149354183
        2.8253937000         0.3645711272
        0.6401217000         0.4150514277
s   1 1.0 
        0.1612778000         0.1813806839

 12 0
s   3 1.0 
       18.7311370000         0.2149354183
        2.8253937000         0.3645711272
        0.6401217000         0.4150514277
s   1 1.0 
        0.1612778000         0.1813806839

 13 0
s   3 1.0 
       18.7311370000         0.2149354183
        2.8253937000         0.3645711272
        0.6401217000         0.4150514277
s   1 1.0 
        0.1612778000         0.1813806839

[5D]
[7F]
[9G]
[MO]
 Sym=     1a
 Ene= -1.12360982312419E+01
 Spin= Alpha
 Occup= 2.000000
  1      -0.000322621766
  2       0.000013530842
  3       0.000011120457
  4      -0.000043444417
  5       0.000052134995
  6      -0.000058332360
  7       0.000328229747
  8       0.000212107073
  9      -0.000282386040
 10       0.000099247974
 11      -0.000541082500
 12      -0.058792296640
 13      -0.000612350522
 14      -0.000089508975
 15      -0.000173707319
 16       0.000065108061
 17      -0.005556141667
 18       0.001992372226
 19       0.001991609794
 20      -0.000288971152
 21      -0.992791108348
 22      -0.024853348985
 23       0.000071211334
 24      -0.000159966023
 25       0.000070667929
 26       0.017357839917
 27      -0.001422177839
 28       0.001787089812
 29      -0.000767716033
 30      -0.046478709968
 31      -0.000488933113
 32       0.000181509416
 33       0.000069581883
 34       0.000030733500
 35      -0.003968834356
 36      -0.002344127080
 37      -0.001402721352
 38      -0.000088046942
 39      -0.031941658979
 40      -0.000552220798
 41       0.000199393021
 42      -0.000041534076
 43       0.000062117116
 44       0.000612296009
 45      -0.000465687543
 46       0.000403558475
 47      -0.000243356813
 48      -0.000000116874
 49       0.000000270749
 50      -0.000002996788
 51       0.000012082777
 52       0.000277302794
 53       0.000328155856
 54       0.000080941754
 55      -0.000495229792
 56       0.000267918470
 57      -0.002055178934
 58       0.000083404888
 59      -0.000449684733
 60      -0.000040865023
 61      -0.000467983324
 Sym=     1a
 Ene= -1.12352658433704E+01
 Spin= Alpha
 Occup= 2.000000
  1      -0.016624962164
  2       0.000001270239
  3      -0.000022852984
  4      -0.000161868337
  5       0.000036940598
  6      -0.003668781563
  7      -0.000175413002
  8       0.002168060089
  9      -0.001445064177
 10       0.000200316993
 11      -0.000085982754
 12       0.002714656095
 13       0.000071696757
 14      -0.000043088483
 15       0.000029295680
 16      -0.000001551839
 17      -0.000206307389
 18       0.000259312567
 19      -0.000147329732
 20       0.000058709827
 21       0.036632379345
 22       0.001069585386
 23      -0.000183816798
 24      -0.000030374214
 25      -0.000049285580
 26       0.000112739582
 27      -0.000272793759
 28       0.000227390306
 29      -0.000216396340
 30      -0.104357833450
 31      -0.001608877057
 32      -0.000138414047
 33       0.000128362033
 34      -0.000178514637
 35      -0.005220586000
 36       0.000965586026
 37      -0.002001703024
 38       0.002330305405
 39      -0.989823661474
 40      -0.024711344826
 41      -0.000157454883
 42      -0.000022157741
 43      -0.000058730622
 44       0.017196644884
 45       0.002236348297
 46       0.000866168916
 47       0.000029377650
 48       0.000092359643
 49      -0.000198228211
 50       0.000199243925
 51      -0.000898652154
 52       0.000007008761
 53       0.000345232859
 54      -0.000012672196
 55      -0.000108467156
 56      -0.000005147824
 57       0.000073053436
 58       0.000048032897
 59      -0.000798994874
 60       0.000266114829
 61      -0.002079015789
 Sym=     1a
 Ene= -1.12274642688228E+01
 Spin= Alpha
 Occup= 2.000000
  1      -0.003872301541
  2      -0.000077336406
  3       0.000006089158
  4       0.000114278978
  5      -0.000140108077
  6      -0.001799675366
  7      -0.000303933554
  8       0.000645872399
  9      -0.000455221080
 10       0.000065391306
 11       0.000183578344
 12      -0.008139158737
 13      -0.000363533908
 14       0.000158784448
 15       0.000130809736
 16      -0.000046714313
 17      -0.000777025679
 18       0.000014251583
 19      -0.000129957838
 20       0.000261411161
 21      -0.042664356631
 22      -0.001722001177
 23       0.000163053468
 24       0.000034904473
 25       0.000032825600
 26       0.006032741252
 27      -0.002923466416
 28       0.000073946383
 29      -0.000984443148
 30       0.989580404578
 31       0.025123358128
 32       0.000068241891
 33       0.000171941109
 34      -0.000202981986
 35      -0.019551827112
 36      -0.000856754861
 37      -0.002699012769
 38       0.002343803662
 39      -0.106471602808
 40      -0.003707069524
 41      -0.000212949560
 42       0.000035051175
 43      -0.000122166061
 44       0.009470359845
 45       0.003566817679
 46       0.000195747242
 47       0.001284081678
 48       0.000058845492
 49       0.000109767896
 50       0.000043523818
 51      -0.000147500992
 52      -0.000038286687
 53       0.000320009293
 54       0.000043303365
 55       0.000320759927
 56      -0.000063311305
 57       0.000346174981
 58      -0.000297459913
 59       0.001706948312
 60       0.000004908453
 61       0.000343844799
 Sym=     1a
 Ene= -1.12219571876421E+01
 Spin= Alpha
 Occup= 2.000000
  1      -0.000367338692
  2      -0.000032759214
  3      -0.000000659091
  4      -0.000009896545
  5      -0.000099081769
  6       0.000030657884
  7      -0.000362758564
  8      -0.000053209027
  9       0.000620742735
 10      -0.000149239178
 11       0.000930083276
 12       0.994360280985
 13       0.024769892072
 14      -0.000083465748
 15      -0.000198622988
 16      -0.000010977664
 17      -0.016507074002
 18       0.000880244951
 19       0.001669788721
 20      -0.000180808516
 21      -0.059734164152
 22      -0.002334777282
 23      -0.000121527156
 24      -0.000298846267
 25       0.000043715170
 26       0.006837747483
 27       0.001187865320
 28       0.002843672768
 29      -0.000572118566
 30       0.005619878677
 31       0.000032067476
 32      -0.000106421782
 33      -0.000080492378
 34      -0.000002350168
 35      -0.000510658258
 36       0.000415324842
 37      -0.000040791058
 38       0.000139865457
 39      -0.000044132840
 40       0.000016050196
 41      -0.000038628348
 42      -0.000019300283
 43      -0.000017768288
 44      -0.000008308651
 45       0.000131453198
 46      -0.000372983596
 47       0.000360547081
 48       0.000006610418
 49       0.000190864851
 50       0.000033030114
 51      -0.000469853313
 52      -0.000153828653
 53       0.002741845389
 54      -0.000209972283
 55       0.002657555543
 56      -0.000113934127
 57      -0.000007062478
 58       0.000034687809
 59       0.000194436933
 60      -0.000005546335
 61      -0.000004730433
 Sym=     1a
 Ene= -1.12161851726248E+01
 Spin= Alpha
 Occup= 2.000000
  1       0.996059417652
  2       0.026111937229
  3      -0.000022005108
  4       0.000012622029
  5       0.000084817505
  6      -0.019222031254
  7       0.000136311940
  8       0.000726143504
  9      -0.000869702642
 10       0.000074829017
 11       0.003191869270
 12       0.000361728295
 13      -0.000016026835
 14       0.000126018306
 15      -0.000001425421
 16       0.000013833461
 17       0.000265687924
 18      -0.000681070920
 19      -0.000327032461
 20       0.000021069894
 21       0.000112039525
 22       0.000026021963
 23       0.000040945676
 24      -0.000036543095
 25       0.000032980373
 26      -0.000412416682
 27      -0.000097975092
 28      -0.000454152958
 29       0.000178045011
 30       0.002089767204
 31      -0.000135127374
 32       0.000055419317
 33      -0.000099653163
 34       0.000122131771
 35       0.000576597395
 36      -0.000602054069
 37       0.000376887896
 38      -0.000582841792
 39      -0.017110791309
 40      -0.000864152836
 41      -0.000015623247
 42      -0.000116334590
 43       0.000118054880
 44       0.004062692239
 45       0.000080635746
 46       0.002273772734
 47      -0.002101532817
 48       0.000045218146
 49       0.003133869975
 50       0.000069982208
 51       0.003300734934
 52      -0.000052668931
 53       0.000020525767
 54       0.000043591992
 55       0.000442589184
 56      -0.000029509699
 57      -0.000030613354
 58       0.000028637647
 59       0.000419323575
 60      -0.000122887678
 61       0.000090066010
 Sym=     1a
 Ene= -1.09894498988315E+00
 Spin= Alpha
 Occup= 2.000000
  1       0.067455719966
  2      -0.125567751388
  3      -0.001492697376
  4       0.031235052080
  5      -0.029928156180
  6      -0.118586249818
  7      -0.005890951873
  8       0.003545391707
  9      -0.009570655571
 10      -0.037443065708
 11      -0.002017792769
 12       0.075807632987
 13      -0.148257407808
 14       0.033962193079
 15       0.057434152637
 16      -0.008505618218
 17      -0.100793966982
 18      -0.000715562598
 19       0.003240894971
 20       0.000543299102
 21       0.111031282259
 22      -0.220467350006
 23       0.031497431956
 24      -0.031023770604
 25       0.017727668607
 26      -0.139468884731
 27       0.005953942443
 28       0.000358900964
 29       0.002014609331
 30       0.126337621494
 31      -0.249368899057
 32       0.002929248356
 33      -0.041849805140
 34       0.042973421871
 35      -0.164076702672
 36      -0.004222085782
 37      -0.004139158094
 38       0.002492487675
 39       0.113531442642
 40      -0.225474175417
 41      -0.059361127409
 42       0.006992289837
 43      -0.032421634494
 44      -0.137626478184
 45       0.003915899307
 46       0.004503763608
 47      -0.002740639791
 48      -0.031736252253
 49      -0.004632789992
 50      -0.034165030916
 51      -0.000311440655
 52      -0.039691643373
 53      -0.007257782783
 54      -0.033371644458
 55      -0.001976342581
 56      -0.053453783612
 57      -0.008250345984
 58      -0.059853606661
 59      -0.008811714012
 60      -0.053405565793
 61      -0.004435493643
 Sym=     1a
 Ene= -1.02222728778471E+00
 Spin= Alpha
 Occup= 2.000000
  1      -0.101037883822
  2       0.191967579156
  3      -0.009354008731
  4      -0.029884364614
  5       0.024841515415
  6       0.180109187728
  7      -0.002952492087
  8      -0.000917662554
  9       0.001566296926
 10       0.054877050637
 11       0.005563504641
 12       0.120764204049
 13      -0.237094869655
 14       0.026757202712
 15       0.078571472525
 16      -0.018003058998
 17      -0.182204962224
 18       0.004253542161
 19       0.002916899055
 20      -0.000621788713
 21       0.115196025098
 22      -0.230041747844
 23      -0.053538873625
 24      -0.077167365631
 25       0.008503961472
 26      -0.158772487890
 27      -0.011830577590
 28       0.004101492336
 29      -0.005166393248
 30      -0.020904103833
 31       0.041609960144
 32      -0.099138401941
 33       0.007682417723
 34      -0.051698156847
 35       0.026747812529
 36      -0.015546017872
 37      -0.011368440480
 38       0.000972489833
 39      -0.102119705785
 40       0.202701724300
 41       0.011744879590
 42       0.020469478597
 43      -0.014918599653
 44       0.147368951392
 45       0.002369522350
 46       0.006063193166
 47      -0.004554370470
 48       0.060048889147
 49       0.008732283168
 50       0.058556988440
 51       0.005650197499
 52      -0.061360335392
 53      -0.006146517938
 54      -0.068695571213
 55      -0.015638518907
 56      -0.067847143453
 57      -0.011214996986
 58       0.010242484831
 59      -0.003803331075
 60       0.062951568443
 61       0.016518478010
 Sym=     1a
 Ene= -9.40940678454241E-01
 Spin= Alpha
 Occup= 2.000000
  1      -0.139057328575
  2       0.262024481056
  3      -0.002527308293
  4       0.019755215151
  5      -0.016966821233
  6       0.293106004960
  7       0.000870794022
  8       0.002159135566
  9       0.002890410957
 10       0.098206490220
 11       0.022872237288
 12      -0.079633143436
 13       0.156228856991
 14      -0.001215780613
 15      -0.014799743282
 16       0.002012736961
 17       0.135631999102
 18      -0.002497811939
 19       0.002003750449
 20      -0.003309428504
 21      -0.005880659813
 22       0.010535268431
 23       0.096742006624
 24       0.088319776995
 25      -0.007548580073
 26       0.007172561140
 27       0.019915989439
 28       0.006063928909
 29       0.002709732394
 30       0.118247618176
 31      -0.235262902306
 32       0.040791737678
 33       0.010779896755
 34       0.014764970939
 35      -0.182784949838
 36       0.002664958951
 37       0.015182936498
 38      -0.009058801307
 39       0.029901844397
 40      -0.056218885119
 41      -0.051837499653
 42       0.114795161444
 43      -0.128439531879
 44      -0.074585406513
 45      -0.011547279718
 46       0.010351254862
 47      -0.015608625430
 48       0.101773415492
 49       0.027960570221
 50       0.099771292830
 51       0.024631224205
 52       0.058217317944
 53       0.016315896386
 54       0.058120607620
 55       0.018722643586
 56       0.000379943677
 57      -0.003830443420
 58      -0.091224254970
 59      -0.025390914916
 60      -0.020664407010
 61      -0.007356445602
 Sym=     1a
 Ene= -8.14837390382743E-01
 Spin= Alpha
 Occup= 2.000000
  1      -0.058776411301
  2       0.111165113922
  3       0.014341613999
  4       0.062734542822
  5      -0.054227578254
  6       0.144766645838
  7      -0.002798979132
  8       0.014231634800
  9      -0.017060485217
 10       0.059765456030
 11       0.023321436303
 12       0.102348534967
 13      -0.203844794955
 14      -0.040496785141
 15      -0.080780037981
 16       0.015280793488
 17      -0.190040297545
 18      -0.015268899319
 19      -0.031927566634
 20       0.005993008089
 21      -0.086322601169
 22       0.176332799496
 23      -0.081759336585
 24      -0.152128954718
 25       0.031249328570
 26       0.162180396852
 27      -0.019302274183
 28      -0.050421918869
 29       0.011927353295
 30      -0.031330225376
 31       0.065458997086
 32       0.194693979417
 33      -0.032513446597
 34       0.097501170831
 35       0.054561111262
 36       0.046956446650
 37      -0.008286095276
 38       0.023774000245
 39       0.091455273809
 40      -0.182804452633
 41       0.036245991434
 42       0.063753534764
 43      -0.049751759958
 44      -0.177184626479
 45       0.023157365188
 46       0.008257651380
 47      -0.000620899944
 48       0.060201296550
 49       0.020434180748
 50       0.058954513615
 51       0.023677404957
 52      -0.109621170051
 53      -0.043289605049
 54      -0.113156581911
 55      -0.048324790851
 56       0.108535717882
 57       0.044603842204
 58       0.041567965321
 59       0.018883381997
 60      -0.106302149249
 61      -0.043718285223
 Sym=     1a
 Ene= -7.15862899530011E-01
 Spin= Alpha
 Occup= 2.000000
  1       0.022786542396
  2      -0.040828591923
  3      -0.091425905695
  4      -0.108767245503
  5       0.051866035650
  6      -0.065793708808
  7      -0.034116502105
  8      -0.038843863437
  9       0.016467844400
 10      -0.080669821911
 11      -0.044970063470
 12       0.040032351557
 13      -0.080500720576
 14       0.024586521262
 15      -0.198595048897
 16       0.056402896007
 17      -0.081452553166
 18       0.004177889151
 19      -0.065964633218
 20       0.019208724672
 21      -0.069718381630
 22       0.141956584544
 23       0.178846478768
 24      -0.029034490836
 25       0.037286932836
 26       0.140486832479
 27       0.059872128951
 28      -0.042127492820
 29       0.024008315991
 30       0.077491430705
 31      -0.158622455112
 32       0.003004580545
 33       0.028848697343
 34      -0.039477721167
 35      -0.151776677240
 36      -0.005051781200
 37       0.034822471186
 38      -0.035805563678
 39      -0.073482514602
 40       0.149587405272
 41      -0.164621885704
 42       0.005903515178
 43      -0.087686461224
 44       0.152679356365
 45      -0.074383038881
 46      -0.003409080581
 47      -0.035529390677
 48      -0.006146562511
 49      -0.000087176410
 50      -0.053303954352
 51      -0.029703230045
 52      -0.142400112090
 53      -0.087434488041
 54      -0.042225911345
 55      -0.020288009540
 56       0.143031122187
 57       0.068573747466
 58      -0.100378021897
 59      -0.040761482111
 60       0.152084063848
 61       0.076927274708
 Sym=     1a
 Ene= -6.66403660633428E-01
 Spin= Alpha
 Occup= 2.000000
  1      -0.015761780952
  2       0.028361787970
  3      -0.090091420996
  4       0.065739510102
  5      -0.103602257319
  6       0.048848418501
  7      -0.046296970613
  8       0.022663908496
  9      -0.042580514645
 10      -0.016129286108
 11      -0.010048602912
 12      -0.021448292899
 13       0.042547572407
 14       0.193956937804
 15       0.090767573224
 16       0.018842286541
 17       0.061260310053
 18       0.075034998211
 19       0.022873383332
 20       0.013462900144
 21       0.025797505732
 22      -0.055545332399
 23       0.096913298406
 24      -0.143548897723
 25       0.084187235651
 26      -0.047683266716
 27       0.029688339828
 28      -0.045020875163
 29       0.028934547830
 30      -0.019891732824
 31       0.038355040895
 32      -0.068353841174
 33      -0.231504277805
 34       0.166233236985
 35       0.048709388421
 36      -0.025367049710
 37      -0.097129120771
 38       0.069435297690
 39       0.024180241911
 40      -0.050953182438
 41      -0.169081129618
 42      -0.086037254942
 43      -0.004026094638
 44      -0.036722051769
 45      -0.050108845088
 46      -0.037234020145
 47       0.007658756948
 48       0.091818917236
 49       0.055802479929
 50       0.029488272026
 51       0.016763754165
 52      -0.000700606374
 53       0.004672262796
 54       0.139608042956
 55       0.087480388802
 56       0.081115719376
 57       0.059926850286
 58       0.187253975175
 59       0.114323752242
 60       0.081640996305
 61       0.058123614693
 Sym=     1a
 Ene= -6.05100755681552E-01
 Spin= Alpha
 Occup= 2.000000
  1      -0.010057882838
  2       0.018845791306
  3       0.177056465481
  4       0.032608886308
  5      -0.003994241077
  6       0.031971976037
  7       0.078677508847
  8       0.014644637344
  9      -0.007299745848
 10       0.107417324664
 11       0.071925015761
 12       0.006810243118
 13      -0.014870221831
 14       0.247285434261
 15      -0.105473301871
 16       0.040275429268
 17      -0.028698163948
 18       0.113539745423
 19      -0.047368879747
 20       0.015149961696
 21       0.013431767055
 22      -0.031082594748
 23       0.196552714973
 24      -0.056138255047
 25       0.013392027037
 26      -0.022694904916
 27       0.070265943238
 28      -0.012039982070
 29      -0.004444481901
 30      -0.009876867734
 31       0.021832466039
 32      -0.176723495182
 33       0.040064835137
 34      -0.153920348861
 35      -0.007594189430
 36      -0.052177362328
 37      -0.002260116505
 38      -0.044929661420
 39      -0.003324819053
 40       0.009503418843
 41       0.250062547560
 42      -0.035348010385
 43       0.112938044022
 44      -0.001847874481
 45       0.106291478010
 46      -0.007811165756
 47       0.038938471244
 48      -0.060247110038
 49      -0.049637661200
 50       0.005953693367
 51      -0.000399134744
 52      -0.142223584805
 53      -0.091988583350
 54       0.133724045572
 55       0.092621444703
 56       0.086450790603
 57       0.068554786498
 58      -0.033159038501
 59      -0.030702429861
 60      -0.131029046308
 61      -0.091919216903
 Sym=     1a
 Ene= -5.85067179148744E-01
 Spin= Alpha
 Occup= 2.000000
  1      -0.005856304820
  2       0.006000946450
  3      -0.026290412814
  4       0.179064680293
  5      -0.131762345026
  6       0.036193401223
  7      -0.013940140257
  8       0.075162122127
  9      -0.054267985695
 10       0.017317150827
 11       0.009875755744
 12      -0.007335359895
 13       0.019601526586
 14      -0.157056745674
 15      -0.282813944668
 16       0.059310238066
 17      -0.016265021479
 18      -0.053456226225
 19      -0.100856617623
 20       0.023997863165
 21      -0.008254921494
 22       0.019501892676
 23       0.118500223166
 24       0.308176204706
 25      -0.043820847961
 26      -0.003211593919
 27       0.028642205943
 28       0.111043227206
 29      -0.015196890664
 30      -0.009212439899
 31       0.017891031480
 32      -0.195296083003
 33      -0.045113844476
 34       0.018338642966
 35       0.018910907359
 36      -0.080597509951
 37      -0.017851730816
 38       0.013328154504
 39       0.025009864855
 40      -0.051173529599
 41      -0.033014455530
 42      -0.143285651659
 43       0.158422733763
 44      -0.086217397033
 45      -0.020206127595
 46      -0.056831510849
 47       0.064952032429
 48       0.074993294255
 49       0.055584592612
 50       0.070702441899
 51       0.053136870755
 52      -0.090324141534
 53      -0.066347144494
 54      -0.116420575696
 55      -0.091571549722
 56      -0.097648126739
 57      -0.073122117022
 58       0.073842627308
 59       0.051739833079
 60       0.024905377539
 61       0.020959565772
 Sym=     1a
 Ene= -5.67142380005573E-01
 Spin= Alpha
 Occup= 2.000000
  1       0.000440971830
  2      -0.001806495484
  3      -0.094158413601
  4       0.255657419272
  5       0.315475968539
  6      -0.000384748078
  7      -0.049778893035
  8       0.130796467380
  9       0.157992495085
 10      -0.132781090141
 11      -0.103045952581
 12       0.005270863709
 13      -0.010816168348
 14       0.026321718309
 15       0.019961308144
 16       0.018697023423
 17      -0.014590963971
 18       0.006943936424
 19       0.003684732237
 20       0.015172816422
 21      -0.000499612056
 22       0.001168096751
 23       0.023690760951
 24      -0.034342011510
 25       0.044753194747
 26       0.002332148021
 27       0.010545238266
 28      -0.014939608825
 29       0.021542279509
 30       0.002937441518
 31      -0.003559559754
 32      -0.031612124891
 33       0.047220641348
 34       0.042389400680
 35      -0.023911913434
 36      -0.013553333671
 37       0.021626845067
 38       0.039048022228
 39      -0.005417056188
 40       0.008794703416
 41      -0.016855002848
 42       0.099307553105
 43       0.086388949875
 44       0.031308452567
 45      -0.001160065227
 46       0.046579624322
 47       0.048424328918
 48      -0.137124875237
 49      -0.107198343030
 50       0.254967948509
 51       0.198688371002
 52      -0.000147263268
 53       0.009925107730
 54       0.013771337795
 55       0.012853701134
 56       0.037004199180
 57       0.027960099225
 58      -0.004743365553
 59      -0.007303641790
 60      -0.012791507707
 61      -0.011061079615
 Sym=     1a
 Ene= -5.39738510512874E-01
 Spin= Alpha
 Occup= 2.000000
  1       0.005360426937
  2      -0.013573311094
  3       0.309887437043
  4       0.058645337094
  5       0.046431428029
  6       0.004425145227
  7       0.176242278185
  8       0.026760953418
  9       0.036095004794
 10       0.187684353376
 11       0.146980396259
 12       0.009950919341
 13      -0.022233559946
 14      -0.173712999950
 15       0.075926394775
 16      -0.055550324661
 17      -0.007438324158
 18      -0.106877075329
 19       0.035570656140
 20      -0.036604957794
 21      -0.007966330028
 22       0.014485502118
 23       0.126130294414
 24      -0.084879099084
 25       0.040291842544
 26       0.017007885173
 27       0.079592575433
 28      -0.062971666163
 29       0.028290256744
 30       0.035547250032
 31      -0.079531932948
 32      -0.065153286716
 33      -0.102876682108
 34       0.036894166956
 35      -0.073224683007
 36      -0.017653469019
 37      -0.023800376537
 38      -0.001264865175
 39      -0.007843527721
 40       0.015285772832
 41      -0.119924911256
 42      -0.088082913911
 43       0.004152981444
 44       0.017723398035
 45      -0.076278203685
 46      -0.056922175706
 47       0.004330107031
 48      -0.170533047182
 49      -0.132090311366
 50       0.012671454015
 51       0.012814507322
 52       0.119552573684
 53       0.091423786451
 54      -0.127913067979
 55      -0.091944113458
 56       0.116843576351
 57       0.079639809716
 58       0.036177683234
 59       0.045582806041
 60       0.110997173305
 61       0.076522373104
 Sym=     1a
 Ene= -5.06626372713025E-01
 Spin= Alpha
 Occup= 2.000000
  1      -0.016286588183
  2       0.036651569643