[Molden Format]
[Title]
 Molden file created by orca_2mkl for BaseName=h-shift_045

[Atoms] AU
C    1   6          0.0824166259         0.0155108721        -0.0495580679 
H    2   1          2.5089515935        -0.0922299737        -0.0588914252 
C    3   6          4.4922872012         0.0215920108         2.2644267009 
C    4   6          3.5810177957        -2.1221851251         3.4676096612 
C    5   6          1.0702029322        -2.9937268181         3.3410244664 
C    6   6         -0.5151431236        -2.1605295581         1.4551004615 
H    7   1         -0.9298019497         0.1304383464        -1.8348862815 
H    8   1          0.0676899901         1.8362714508         0.8875571219 
H    9   1          3.6380799660         1.8273576126         2.5515195644 
H   10   1          6.4636230479         0.1190962101         1.8475247699 
H   11   1          4.9323987486        -3.4334585305         4.2244563162 
H   12   1          0.6033725470        -4.7026137199         4.3207851059 
H   13   1         -1.9657630444        -3.4349173991         0.8277019364 
[GTO]
  1 0
s   6 1.0 
     3047.5249000000         0.5363343823
      457.3695100000         0.9894506076
      103.9486900000         1.5972822308
       29.2101550000         2.0791870615
        9.2866630000         1.7741742532
        3.1639270000         0.6125798260
s   3 1.0 
        7.8682724000        -0.3995563516
        1.8812885000        -0.1841552393
        0.5442493000         0.5163903794
p   3 1.0 
        7.8682724000         1.2960827175
        1.8812885000         0.9937536282
        0.5442493000         0.4959527138
s   1 1.0 
        0.1687144000         0.1876178721
p   1 1.0 
        0.1687144000         0.1541275509

  2 0
s   3 1.0 
       18.7311370000         0.2149354183
        2.8253937000         0.3645711272
        0.6401217000         0.4150514277
s   1 1.0 
        0.1612778000         0.1813806839

  3 0
s   6 1.0 
     3047.5249000000         0.5363343823
      457.3695100000         0.9894506076
      103.9486900000         1.5972822308
       29.2101550000         2.0791870615
        9.2866630000         1.7741742532
        3.1639270000         0.6125798260
s   3 1.0 
        7.8682724000        -0.3995563516
        1.8812885000        -0.1841552393
        0.5442493000         0.5163903794
p   3 1.0 
        7.8682724000         1.2960827175
        1.8812885000         0.9937536282
        0.5442493000         0.4959527138
s   1 1.0 
        0.1687144000         0.1876178721
p   1 1.0 
        0.1687144000         0.1541275509

  4 0
s   6 1.0 
     3047.5249000000         0.5363343823
      457.3695100000         0.9894506076
      103.9486900000         1.5972822308
       29.2101550000         2.0791870615
        9.2866630000         1.7741742532
        3.1639270000         0.6125798260
s   3 1.0 
        7.8682724000        -0.3995563516
        1.8812885000        -0.1841552393
        0.5442493000         0.5163903794
p   3 1.0 
        7.8682724000         1.2960827175
        1.8812885000         0.9937536282
        0.5442493000         0.4959527138
s   1 1.0 
        0.1687144000         0.1876178721
p   1 1.0 
        0.1687144000         0.1541275509

  5 0
s   6 1.0 
     3047.5249000000         0.5363343823
      457.3695100000         0.9894506076
      103.9486900000         1.5972822308
       29.2101550000         2.0791870615
        9.2866630000         1.7741742532
        3.1639270000         0.6125798260
s   3 1.0 
        7.8682724000        -0.3995563516
        1.8812885000        -0.1841552393
        0.5442493000         0.5163903794
p   3 1.0 
        7.8682724000         1.2960827175
        1.8812885000         0.9937536282
        0.5442493000         0.4959527138
s   1 1.0 
        0.1687144000         0.1876178721
p   1 1.0 
        0.1687144000         0.1541275509

  6 0
s   6 1.0 
     3047.5249000000         0.5363343823
      457.3695100000         0.9894506076
      103.9486900000         1.5972822308
       29.2101550000         2.0791870615
        9.2866630000         1.7741742532
        3.1639270000         0.6125798260
s   3 1.0 
        7.8682724000        -0.3995563516
        1.8812885000        -0.1841552393
        0.5442493000         0.5163903794
p   3 1.0 
        7.8682724000         1.2960827175
        1.8812885000         0.9937536282
        0.5442493000         0.4959527138
s   1 1.0 
        0.1687144000         0.1876178721
p   1 1.0 
        0.1687144000         0.1541275509

  7 0
s   3 1.0 
       18.7311370000         0.2149354183
        2.8253937000         0.3645711272
        0.6401217000         0.4150514277
s   1 1.0 
        0.1612778000         0.1813806839

  8 0
s   3 1.0 
       18.7311370000         0.2149354183
        2.8253937000         0.3645711272
        0.6401217000         0.4150514277
s   1 1.0 
        0.1612778000         0.1813806839

  9 0
s   3 1.0 
       18.7311370000         0.2149354183
        2.8253937000         0.3645711272
        0.6401217000         0.4150514277
s   1 1.0 
        0.1612778000         0.1813806839

 10 0
s   3 1.0 
       18.7311370000         0.2149354183
        2.8253937000         0.3645711272
        0.6401217000         0.4150514277
s   1 1.0 
        0.1612778000         0.1813806839

 11 0
s   3 1.0 
       18.7311370000         0.2149354183
        2.8253937000         0.3645711272
        0.6401217000         0.4150514277
s   1 1.0 
        0.1612778000         0.1813806839

 12 0
s   3 1.0 
       18.7311370000         0.2149354183
        2.8253937000         0.3645711272
        0.6401217000         0.4150514277
s   1 1.0 
        0.1612778000         0.1813806839

 13 0
s   3 1.0 
       18.7311370000         0.2149354183
        2.8253937000         0.3645711272
        0.6401217000         0.4150514277
s   1 1.0 
        0.1612778000         0.1813806839

[5D]
[7F]
[9G]
[MO]
 Sym=     1a
 Ene= -1.12426237005218E+01
 Spin= Alpha
 Occup= 2.000000
  1       0.000340645470
  2       0.000003745591
  3       0.000012565456
  4       0.000052164831
  5      -0.000027287816
  6      -0.000065899883
  7      -0.000473497549
  8      -0.000179134257
  9       0.000035499031
 10      -0.000117968440
 11       0.000727731196
 12       0.035254466125
 13       0.000313683316
 14       0.000042000998
 15       0.000220748156
 16      -0.000119029925
 17       0.004436465678
 18      -0.001124809146
 19      -0.002356463786
 20       0.001200009328
 21       0.994281534531
 22       0.024878277341
 23      -0.000113062242
 24      -0.000038055706
 25      -0.000318294140
 26      -0.017439948981
 27       0.001073563993
 28      -0.001015740259
 29       0.001499825420
 30       0.037194145574
 31       0.000155856399
 32      -0.000212036204
 33      -0.000094295560
 34       0.000010225979
 35       0.004479493789
 36       0.002240856733
 37       0.001321283488
 38      -0.000243251367
 39       0.033221020780
 40       0.000520407821
 41      -0.000107550410
 42       0.000050344874
 43      -0.000092547952
 44      -0.000455204340
 45       0.000331100590
 46      -0.000217306217
 47       0.000282275216
 48      -0.000006638309
 49      -0.000058423185
 50       0.000049169616
 51      -0.000121186557
 52      -0.000219116795
 53       0.000598874210
 54      -0.000102276221
 55       0.000290584815
 56      -0.000197421662
 57       0.002298036619
 58      -0.000073641016
 59       0.000331528613
 60       0.000030456281
 61       0.000287930581
 Sym=     1a
 Ene= -1.12421384759706E+01
 Spin= Alpha
 Occup= 2.000000
  1      -0.021196446601
  2      -0.000049498110
  3      -0.000059300072
  4      -0.000202183416
  5       0.000061428024
  6      -0.004090874546
  7       0.000430891672
  8       0.002354212299
  9      -0.001411660846
 10       0.000140469347
 11      -0.000589514676
 12       0.001759586149
 13      -0.000003144012
 14      -0.000018463052
 15      -0.000012147237
 16       0.000003642084
 17       0.000249300227
 18      -0.000246582586
 19      -0.000113789128
 20      -0.000201903690
 21       0.034904840600
 22       0.001162698243
 23      -0.000151557619
 24      -0.000066982652
 25      -0.000046306215
 26      -0.000626253223
 27       0.000266934712
 28       0.000132198011
 29       0.000152255244
 30      -0.044352306282
 31      -0.000307526654
 32      -0.000138195213
 33       0.000102383945
 34      -0.000160580412
 35      -0.004850685410
 36       0.001266192634
 37      -0.001397853704
 38       0.002138066536
 39      -0.994345718654
 40      -0.024900812607
 41      -0.000317072218
 42       0.000025298673
 43       0.000077388682
 44       0.017579914662
 45       0.002189271544
 46       0.000905854980
 47       0.000104970094
 48       0.000098158734
 49      -0.000151510064
 50       0.000203463039
 51      -0.000754098979
 52      -0.000061554475
 53       0.000235281869
 54      -0.000005869451
 55       0.000062465916
 56      -0.000029593937
 57      -0.000054552355
 58       0.000074695669
 59      -0.000395038825
 60       0.000209277908
 61      -0.002235181514
 Sym=     1a
 Ene= -1.12279246668329E+01
 Spin= Alpha
 Occup= 2.000000
  1      -0.004072672332
  2      -0.000150861971
  3       0.000026785613
  4       0.000083546918
  5      -0.000137169260
  6      -0.001291944671
  7      -0.000136915478
  8       0.000473305528
  9      -0.000004496327
 10      -0.000051255449
 11       0.000319809631
 12      -0.012319711019
 13      -0.000392921782
 14       0.000108688080
 15       0.000086523661
 16      -0.000097366133
 17      -0.000930103130
 18       0.000057795135
 19       0.000369631232
 20       0.000179968694
 21      -0.035581689743
 22      -0.001690648883
 23       0.000215515428
 24       0.000078979120
 25       0.000045777061
 26       0.007041029261
 27      -0.002835873320
 28      -0.000247268493
 29      -0.000997924584
 30       0.994419781446
 31       0.025300934498
 32       0.000220934587
 33       0.000132533891
 34      -0.000327166668
 35      -0.019396972951
 36      -0.001230679055
 37      -0.002123515765
 38       0.002659480596
 39      -0.045975157522
 40      -0.002029212567
 41      -0.000159312925
 42       0.000049362633
 43      -0.000143257434
 44       0.007774777089
 45       0.002715094331
 46      -0.000151449302
 47       0.001699358760
 48       0.000071922415
 49       0.000278596098
 50      -0.000040029951
 51      -0.000066149185
 52      -0.000037867120
 53      -0.000070925998
 54       0.000068579884
 55       0.000258417689
 56      -0.000108679398
 57       0.000230912452
 58      -0.000250780911
 59       0.001889335877
 60      -0.000106112668
 61       0.000233617957
 Sym=     1a
 Ene= -1.12254554493766E+01
 Spin= Alpha
 Occup= 2.000000
  1       0.000464286033
  2       0.000072352844
  3       0.000057472257
  4       0.000038107631
  5       0.000165630588
  6       0.000377333814
  7       0.000301972047
  8      -0.000172724759
  9      -0.001393237021
 10      -0.000200770701
 11      -0.002772606800
 12      -0.995533331450
 13      -0.025705397281
 14       0.000215012598
 15       0.000029472620
 16      -0.000093488098
 17       0.018978890888
 18      -0.001994430424
 19      -0.001050476541
 20       0.000593763607
 21       0.036101829116
 22       0.001646129419
 23       0.000083068377
 24       0.000202907343
 25      -0.000095128190
 26      -0.006808896882
 27      -0.000558343515
 28      -0.002851068812
 29       0.001495417330
 30      -0.011057497139
 31      -0.000186437109
 32       0.000124116794
 33       0.000080055461
 34       0.000003085922
 35       0.000647394864
 36      -0.000122392945
 37       0.000025347947
 38      -0.000115463378
 39      -0.000041013722
 40      -0.000022144823
 41       0.000066524374
 42       0.000032322506
 43      -0.000005380501
 44       0.000376970844
 45       0.000073243505
 46       0.000408956717
 47      -0.000011216953
 48      -0.000147196175
 49      -0.000673207036
 50       0.000046418287
 51       0.000755367879
 52      -0.000092343543
 53      -0.003510493165
 54       0.000133788002
 55      -0.002544977995
 56       0.000097279814
 57      -0.000222479648
 58      -0.000027584244
 59      -0.000284793612
 60       0.000020952718
 61       0.000059747039
 Sym=     1a
 Ene= -1.12206573467813E+01
 Spin= Alpha
 Occup= 2.000000
  1       0.996017450856
  2       0.026010498083
  3       0.000011638200
  4      -0.000044837243
  5       0.000325471078
  6      -0.019541142752
  7      -0.000609194450
  8       0.000887597865
  9      -0.001973438706
 10       0.000146862899
 11       0.003340069166
 12       0.000429573964
 13      -0.000098323145
 14       0.000179300338
 15      -0.000055031886
 16      -0.000060914693
 17       0.000120182046
 18      -0.001300075715
 19       0.000182523690
 20       0.000854258108
 21       0.000257632814
 22       0.000032502947
 23       0.000031595426
 24      -0.000040592475
 25       0.000060152087
 26      -0.000732427189
 27       0.000280720750
 28      -0.000459683034
 29       0.000108055037
 30       0.003097901335
 31      -0.000074063949
 32       0.000079702104
 33      -0.000079100081
 34       0.000093736215
 35      -0.000048097022
 36      -0.000097722872
 37       0.000249989771
 38      -0.000197234036
 39      -0.021626449775
 40      -0.001169812823
 41      -0.000042084032
 42      -0.000158484159
 43       0.000100648983
 44       0.005850755380
 45       0.000833867945
 46       0.002613037680
 47      -0.001400093365
 48      -0.000058518950
 49       0.002520483765
 50       0.000135271938
 51       0.003570966322
 52      -0.000075216330
 53      -0.000752693539
 54       0.000172863334
 55       0.000795723366
 56      -0.000031169964
 57      -0.000087150708
 58       0.000039223891
 59       0.000384339430
 60      -0.000113074977
 61       0.000210656448
 Sym=     1a
 Ene= -1.11906598994819E+00
 Spin= Alpha
 Occup= 2.000000
  1       0.073594327690
  2      -0.135571965546
  3      -0.000948658603
  4       0.040170046300
  5      -0.038501312315
  6      -0.127339815256
  7      -0.013274752776
  8       0.003615493330
  9      -0.016631632284
 10      -0.045880236172
 11       0.000686430005
 12       0.073149509491
 13      -0.138186051682
 14       0.032320677524
 15       0.043798299346
 16      -0.023208163902
 17      -0.112444765421
 18       0.011659070482
 19       0.002551734743
 20       0.002099156822
 21       0.110167196778
 22      -0.218437210603
 23       0.048895831539
 24      -0.014028568999
 25       0.032131036609
 26      -0.131540429977
 27       0.003146025556
 28       0.001510892727
 29       0.003519229448
 30       0.122107914840
 31      -0.240536111496
 32      -0.021723933747
 33      -0.041895605651
 34       0.053655295251
 35      -0.158920043441
 36      -0.003777949624
 37      -0.003811923578
 38       0.006558220518
 39       0.110524917637
 40      -0.219596164774
 41      -0.061820657825
 42      -0.009002392922
 43      -0.025015459291
 44      -0.127114896321
 45      -0.000641952488
 46       0.005049503632
 47       0.001199179316
 48      -0.030798161721
 49      -0.007627482202
 50      -0.036875733034
 51       0.001454901622
 52      -0.038748924628
 53      -0.001297465793
 54      -0.031449169351
 55      -0.004141202828
 56      -0.050364523644
 57      -0.006492259362
 58      -0.053855123409
 59      -0.006102653996
 60      -0.049415684473
 61      -0.003820301344
 Sym=     1a
 Ene= -1.01190035142866E+00
 Spin= Alpha
 Occup= 2.000000
  1       0.103413258940
  2      -0.197115334203
  3       0.028876875592
  4       0.047492910459
  5      -0.034923877984
  6      -0.187234527497
  7       0.000030691351
  8       0.003010336361
  9      -0.012800044915
 10      -0.018223360537
 11      -0.002070009810
 12      -0.114384525883
 13       0.219975398972
 14      -0.011989368238
 15      -0.058304767906
 16       0.046291780756
 17       0.194667423157
 18      -0.010998277287
 19      -0.002822733729
 20       0.006422446078
 21      -0.114896562573
 22       0.231181216802
 23       0.037343371437
 24       0.052033177557
 25      -0.029249454275
 26       0.163230315015
 27       0.009821661967
 28      -0.004353938881
 29       0.001163748892
 30       0.007155263519
 31      -0.013277134468
 32       0.102440384017
 33      -0.000080409417
 34       0.054535962972
 35      -0.013276319519
 36       0.011905009370
 37       0.001368316504
 38       0.006083484288
 39       0.109944667268
 40      -0.221647368758
 41      -0.012811128427
 42      -0.036250107809
 43       0.031183704342
 44      -0.153356210104
 45       0.004581805486
 46       0.003234775377
 47       0.006841281048
 48      -0.060937091008
 49      -0.014571424933
 50      -0.056383932406
 51      -0.003059883524
 52       0.061219364057
 53       0.003774772654
 54       0.069253405202
 55       0.017687320781
 56       0.072196116915
 57       0.014061262996
 58      -0.003611735072
 59       0.000059161191
 60      -0.068585115119
 61      -0.013876376808
 Sym=     1a
 Ene= -9.44263281440845E-01
 Spin= Alpha
 Occup= 2.000000
  1      -0.117371468674
  2       0.218992721647
  3      -0.000389467494
  4       0.014198723829
  5       0.005170838062
  6       0.258343303393
  7       0.014997834810
  8      -0.000285481938
  9       0.018738511587
 10       0.079731181290
 11       0.016701048138
 12      -0.099774424022
 13       0.190394175600
 14      -0.001900610070
 15       0.011831473041
 16       0.003869536456
 17       0.199215147706
 18      -0.015610739389
 19       0.003696779648
 20      -0.003758612049
 21       0.016712809636
 22      -0.033611670456
 23       0.107881180294
 24       0.105863342189
 25      -0.036534225542
 26      -0.043389524903
 27       0.024924275110
 28       0.004171708099
 29       0.000503437010
 30       0.124932755143
 31      -0.249085076288
 32      -0.001842256361
 33       0.019561099221
 34       0.012016074776
 35      -0.188401830433
 36       0.000858616164
 37       0.022649113200
 38      -0.007607675268
 39       0.018772191557
 40      -0.034406026387
 41      -0.035360058541
 42       0.111830148259
 43      -0.115520820576
 44      -0.064003018223
 45      -0.020157188846
 46       0.000218100295
 47      -0.019206208313
 48       0.081039071730
 49       0.028469717261
 50       0.089329547000
 51       0.020115425273
 52       0.081953678274
 53       0.020512087528
 54       0.072350740422
 55       0.024695475280
 56      -0.017011221541
 57      -0.011277753531
 58      -0.096552933141
 59      -0.025048188120
 60      -0.017165464670
 61      -0.012475913592
 Sym=     1a
 Ene= -8.11398717680765E-01
 Spin= Alpha
 Occup= 2.000000
  1      -0.084106648087
  2       0.159845480062
  3      -0.010731219650
  4       0.074406455782
  5      -0.035056623511
  6       0.200081290456
  7      -0.005226386808
  8       0.017353107840
  9      -0.008660585423
 10       0.023169258458
 11       0.010877934087
 12       0.094266492308
 13      -0.183134930840
 14      -0.048878076331
 15      -0.079801662614
 16       0.009550451228
 17      -0.201353308505
 18      -0.013130228009
 19      -0.024792428920
 20       0.005053783102
 21      -0.084143746616
 22       0.171781833084
 23      -0.058368234203
 24      -0.128474409439
 25       0.053997812954
 26       0.169498354515
 27      -0.008006351845
 28      -0.036919964257
 29       0.017247546413
 30      -0.005379550630
 31       0.011813958833
 32       0.196722297744
 33      -0.001427031734
 34       0.099476098521
 35       0.006503649841
 36       0.043941884439
 37       0.000559400107
 38       0.022247499910
 39       0.088102251540
 40      -0.178134799301
 41       0.022092488666
 42       0.114304457174
 43      -0.065391625680
 44      -0.183855510436
 45       0.015085070485
 46       0.025542468394
 47      -0.006575716866
 48       0.087860299546
 49       0.034741399742
 50       0.090164397079
 51       0.035122043081
 52      -0.101988359396
 53      -0.038808678738
 54      -0.106553787109
 55      -0.043896355685
 56       0.104529616934
 57       0.042943984413
 58       0.007180988304
 59       0.003860640092
 60      -0.109082598471
 61      -0.044968861522
 Sym=     1a
 Ene= -7.28299724493130E-01
 Spin= Alpha
 Occup= 2.000000
  1       0.018265873575
  2      -0.025956227186
  3      -0.097772864307
  4      -0.137719335989
  5      -0.007172531555
  6      -0.072735489210
  7      -0.050498230968
  8      -0.044242946201
  9      -0.017461228839
 10      -0.076730282556
 11      -0.039542081207
 12       0.024241669777
 13      -0.041789396147
 14       0.050114073898
 15      -0.171548373774
 16       0.062852346472
 17      -0.071875676244
 18       0.032816513127
 19      -0.055491069044
 20       0.027708594772
 21      -0.071549671450
 22       0.144697437456
 23       0.189698672897
 24      -0.016918504200
 25       0.021877093893
 26       0.162395788290
 27       0.058450073470
 28      -0.021349760309
 29       0.014402083523
 30       0.079197094374
 31      -0.161928755190
 32       0.010281380874
 33       0.024919348529
 34      -0.030516428824
 35      -0.171150939666
 36       0.003393899674
 37       0.026385695525
 38      -0.023028023636
 39      -0.072931628106
 40       0.147812480799
 41      -0.135087605591
 42      -0.016670672118
 43      -0.136644585267
 44       0.168438500203
 45      -0.046973275296
 46      -0.011461531505
 47      -0.044766410916
 48       0.008417491573
 49       0.001183618976
 50      -0.084844365041
 51      -0.044327541756
 52      -0.116469159083
 53      -0.063994479951
 54      -0.008531710062
 55      -0.006315054578
 56       0.145436099212
 57       0.073402633157
 58      -0.098410988916
 59      -0.039486304130
 60       0.149859802935
 61       0.078227389043
 Sym=     1a
 Ene= -6.79495740913520E-01
 Spin= Alpha
 Occup= 2.000000
  1       0.026456064122
  2      -0.052140499366
  3       0.078841588401
  4      -0.090000630767
  5       0.129703420304
  6      -0.072977046041
  7       0.040614290049
  8      -0.030231515872
  9       0.054189485741
 10       0.026334783886
 11       0.015908307204
 12       0.024185135937
 13      -0.048706425644
 14      -0.164625318033
 15      -0.093785047477
 16       0.035433419175
 17      -0.067209481335
 18      -0.064467149988
 19      -0.029292562703
 20       0.006942577447
 21      -0.024225798275
 22       0.049266538974
 23      -0.100561996209
 24       0.121929425294
 25      -0.096464486992
 26       0.049631310753
 27      -0.039443590347
 28       0.044366365980
 29      -0.038451336522
 30       0.028254346774
 31      -0.053972975087
 32       0.061708663460
 33       0.239032174325
 34      -0.155953740631
 35      -0.087712966954
 36       0.021200460593
 37       0.093134213071
 38      -0.058994520888
 39      -0.024131654844
 40       0.049176406853
 41       0.143344823026
 42       0.099638336860
 43       0.035622608472
 44       0.045304643653
 45       0.052681242908
 46       0.038281100440
 47       0.008777916757
 48      -0.112756132636
 49      -0.065197253947
 50      -0.038170521221
 51      -0.026114069931
 52      -0.029561894707
 53      -0.021429190965
 54      -0.121278996497
 55      -0.072824654077
 56      -0.076150040309
 57      -0.049114988704
 58      -0.191403298304
 59      -0.113188316406
 60      -0.072384238821
 61      -0.047585316086
 Sym=     1a
 Ene= -5.94891834265889E-01
 Spin= Alpha
 Occup= 2.000000
  1      -0.014855013174
  2       0.025875535672
  3       0.077551383240
  4       0.110930887484
  5       0.105888600306
  6       0.052883937570
  7       0.033907113230
  8       0.047844742468
  9       0.047620805983
 10       0.018641562785
 11       0.018902586201
 12       0.008761378708
 13      -0.014009531288
 14       0.218417973926
 15      -0.180884858397
 16      -0.049437857282
 17      -0.047220879222
 18       0.110415145890
 19      -0.078676426679
 20      -0.024126021525
 21       0.013947331458
 22      -0.032941141583
 23       0.216467204948
 24      -0.021909986875
 25      -0.024239583323
 26      -0.018457803912
 27       0.077104927165
 28      -0.004142264029
 29      -0.019477713936
 30      -0.008235314939
 31       0.017968556203
 32      -0.203270229308
 33       0.005169355833
 34      -0.120915315176
 35       0.001145868068
 36      -0.065167839607
 37      -0.010741978240
 38      -0.033388668893
 39      -0.001408575272
 40       0.005363826949
 41       0.179380428447
 42       0.027119077172
 43       0.188928135671
 44      -0.005365034017
 45       0.081343088708
 46       0.019143157979
 47       0.080827054661
 48      -0.062473518002
 49      -0.049877313651
 50       0.098009879798
 51       0.062959057314
 52      -0.168237859791
 53      -0.111884755276
 54       0.125997446055
 55       0.087630137838
 56       0.078366686797
 57       0.063156992762
 58      -0.000390014456
 59      -0.006015176148
 60      -0.128778209167
 61      -0.088803367089
 Sym=     1a
 Ene= -5.80773554656271E-01
 Spin= Alpha
 Occup= 2.000000
  1       0.000451618170
  2      -0.007663490846
  3      -0.010798110642
  4       0.236482362612
  5      -0.120205026928
  6       0.030002315125
  7      -0.008562799753
  8       0.092135172384
  9      -0.037846059447
 10      -0.003835121017
 11      -0.006849798751
 12      -0.001677275891
 13       0.007889490889
 14      -0.207173727838
 15      -0.205130169253
 16       0.130725110905
 17      -0.015639409554
 18      -0.091515441399
 19      -0.074801259838
 20       0.049097747752
 21      -0.019021546843
 22       0.043154730444
 23       0.097358038174
 24       0.251933540320
 25      -0.103263008274
 26       0.036774436321
 27       0.033593388870
 28       0.090810349845
 29      -0.030579122584
 30       0.001381869771
 31      -0.004486371617
 32      -0.158730670238
 33      -0.038000222935
 34      -0.018419802637
 35       0.009694986427
 36      -0.062786405893
 37      -0.006948815370
 38      -0.008721500075
 39       0.017878263399
 40      -0.038401840575
 41      -0.093547236520
 42      -0.203723166234
 43       0.130296820057
 44      -0.061890649534
 45      -0.051448975818
 46      -0.087222669043
 47       0.046078913196
 48       0.078288022067
 49       0.062145080356
 50       0.098472336163
 51       0.075988883659
 52      -0.042933624757
 53      -0.031511242887
 54      -0.153002510869
 55      -0.112413229462
 56      -0.064263172138
 57      -0.053452998258
 58       0.037062337072
 59       0.030023375520
 60       0.077090652717
 61       0.055716527283
 Sym=     1a
 Ene= -5.65812786182618E-01
 Spin= Alpha
 Occup= 2.000000
  1       0.013147400027
  2      -0.031482176757
  3       0.080653297518
  4       0.131955938039
  5       0.265885318445
  6       0.001243895574
  7       0.058991127500
  8       0.064228986545
  9       0.155376571700
 10       0.010547581299
 11      -0.017997005481
 12       0.019135182720
 13      -0.043974620771
 14      -0.117633197804
 15       0.161682130682
 16       0.037676865695
 17      -0.014653133918
 18      -0.092967264836
 19       0.070402734114
 20       0.025690555644
 21      -0.011446823592
 22       0.024805250279
 23       0.121540580380
 24      -0.114408621369
 25       0.137464180927
 26       0.011713915747
 27       0.089295992588
 28      -0.080106449836
 29       0.081689087027
 30       0.031861033742
 31      -0.069547149281
 32      -0.051152542861
 33      -0.020669507333
 34       0.043984557580
 35      -0.043515013701
 36      -0.010712530176
 37       0.031527414169
 38       0.009761877415
 39      -0.024378451014
 40       0.053221972224
 41      -0.092149166791
 42       0.003274960765
 43       0.017875684141
 44       0.043450146383
 45      -0.075427495725
 46      -0.026177902879
 47       0.002748230621
 48      -0.190871335790
 49      -0.135206163719
 50       0.150383082708
 51       0.115786692343
 52       0.123647978576
 53       0.095502596381
 54      -0.100693593775
 55      -0.060137970157
 56       0.152921757344
 57       0.094384169912
 58      -0.005996597396
 59       0.013195516595
 60       0.071565278547
 61       0.034263494058
 Sym=     1a
 Ene= -5.33887414695274E-01
 Spin= Alpha
 Occup= 2.000000
  1      -0.001880304844
  2       0.012670477946
  3      -0.271394331381
  4       0.087315965244
  5       0.073683067304
  6      -0.033826671752
  7      -0.163758826216
  8       0.051746516150
  9       0.020997188872
 10      -0.214400063047
 11      -0.220859328319
 12      -0.010242877106
 13       0.025271721520
 14       0.102755684457
 15       0.044743571778
 16       0.128638895204
 17       0.006826451669
 18       0.067157891516
 19       0.026690014390
 20       0.078985950231
 21      -0.007383075437
 22       0.019425801622
 23      -0.097342292395
 24       0.097020874150
 25       0.077415902909
 26       0.021962356610
 27      -0.046716004012
 28       0.066301201646
 29       0.052958908528
 30      -0.021562269075
 31       0.047626299167
 32       0.001534802509
 33       0.164414160968
 34       0.050447752973
 35       0.060185858488
 36      -0.013076811428
 37       0.079270192084
 38       0.039949309611
 39      -0.011043960385
 40       0.024914589392
 41      -0.029677572736
 42       0.147238765384
 43       0.101558559260
 44       0.038015957661
 45      -0.015799933099
 46       0.098068606962
 47       0.060818932018
 48       0.051321704532
 49       0.031084852209
 50       0.082763675561
 51       0.083635624714
 52       0.015861613507
 53       0.022349290574
 54       0.067465011867
 55       0.048159283303
 56      -0.059579342670
 57      -0.044246232830
 58      -0.051520039791
 59      -0.046215191046
 60      -0.055372436291
 61      -0.034477943651
 Sym=     1a
 Ene= -5.13771425812254E-01
 Spin= Alpha
 Occup= 2.000000
  1      -0.015840116568
  2       0.036364859013