[Molden Format]
[Title]
 Molden file created by orca_2mkl for BaseName=h-shift_026

[Atoms] AU
C    1   6          0.0512626008         0.0215863416        -0.2597976592 
H    2   1          2.0081684988         0.0158000002        -0.8587142320 
C    3   6          4.8114354890         0.0333725635         2.8171394698 
C    4   6          3.8143177150        -2.1943783326         3.4257295506 
C    5   6          1.1749202162        -3.0286036036         3.1835876027 
C    6   6         -0.4525402762        -2.1739125986         1.4619261523 
H    7   1         -1.1370066408         0.0141918433        -1.9182591088 
H    8   1         -0.2580969056         1.7949733758         0.7290279966 
H    9   1          3.7059627082         1.6612563546         2.3523802244 
H   10   1          6.8201217728         0.2838652112         2.7270014229 
H   11   1          5.0888964184        -3.6652561176         4.0146645900 
H   12   1          0.6316504089        -4.6156768691         4.3357970903 
H   13   1         -2.2297615647        -3.1366127905         1.2338891202 
[GTO]
  1 0
s   6 1.0 
     3047.5249000000         0.5363343823
      457.3695100000         0.9894506076
      103.9486900000         1.5972822308
       29.2101550000         2.0791870615
        9.2866630000         1.7741742532
        3.1639270000         0.6125798260
s   3 1.0 
        7.8682724000        -0.3995563516
        1.8812885000        -0.1841552393
        0.5442493000         0.5163903794
p   3 1.0 
        7.8682724000         1.2960827175
        1.8812885000         0.9937536282
        0.5442493000         0.4959527138
s   1 1.0 
        0.1687144000         0.1876178721
p   1 1.0 
        0.1687144000         0.1541275509

  2 0
s   3 1.0 
       18.7311370000         0.2149354183
        2.8253937000         0.3645711272
        0.6401217000         0.4150514277
s   1 1.0 
        0.1612778000         0.1813806839

  3 0
s   6 1.0 
     3047.5249000000         0.5363343823
      457.3695100000         0.9894506076
      103.9486900000         1.5972822308
       29.2101550000         2.0791870615
        9.2866630000         1.7741742532
        3.1639270000         0.6125798260
s   3 1.0 
        7.8682724000        -0.3995563516
        1.8812885000        -0.1841552393
        0.5442493000         0.5163903794
p   3 1.0 
        7.8682724000         1.2960827175
        1.8812885000         0.9937536282
        0.5442493000         0.4959527138
s   1 1.0 
        0.1687144000         0.1876178721
p   1 1.0 
        0.1687144000         0.1541275509

  4 0
s   6 1.0 
     3047.5249000000         0.5363343823
      457.3695100000         0.9894506076
      103.9486900000         1.5972822308
       29.2101550000         2.0791870615
        9.2866630000         1.7741742532
        3.1639270000         0.6125798260
s   3 1.0 
        7.8682724000        -0.3995563516
        1.8812885000        -0.1841552393
        0.5442493000         0.5163903794
p   3 1.0 
        7.8682724000         1.2960827175
        1.8812885000         0.9937536282
        0.5442493000         0.4959527138
s   1 1.0 
        0.1687144000         0.1876178721
p   1 1.0 
        0.1687144000         0.1541275509

  5 0
s   6 1.0 
     3047.5249000000         0.5363343823
      457.3695100000         0.9894506076
      103.9486900000         1.5972822308
       29.2101550000         2.0791870615
        9.2866630000         1.7741742532
        3.1639270000         0.6125798260
s   3 1.0 
        7.8682724000        -0.3995563516
        1.8812885000        -0.1841552393
        0.5442493000         0.5163903794
p   3 1.0 
        7.8682724000         1.2960827175
        1.8812885000         0.9937536282
        0.5442493000         0.4959527138
s   1 1.0 
        0.1687144000         0.1876178721
p   1 1.0 
        0.1687144000         0.1541275509

  6 0
s   6 1.0 
     3047.5249000000         0.5363343823
      457.3695100000         0.9894506076
      103.9486900000         1.5972822308
       29.2101550000         2.0791870615
        9.2866630000         1.7741742532
        3.1639270000         0.6125798260
s   3 1.0 
        7.8682724000        -0.3995563516
        1.8812885000        -0.1841552393
        0.5442493000         0.5163903794
p   3 1.0 
        7.8682724000         1.2960827175
        1.8812885000         0.9937536282
        0.5442493000         0.4959527138
s   1 1.0 
        0.1687144000         0.1876178721
p   1 1.0 
        0.1687144000         0.1541275509

  7 0
s   3 1.0 
       18.7311370000         0.2149354183
        2.8253937000         0.3645711272
        0.6401217000         0.4150514277
s   1 1.0 
        0.1612778000         0.1813806839

  8 0
s   3 1.0 
       18.7311370000         0.2149354183
        2.8253937000         0.3645711272
        0.6401217000         0.4150514277
s   1 1.0 
        0.1612778000         0.1813806839

  9 0
s   3 1.0 
       18.7311370000         0.2149354183
        2.8253937000         0.3645711272
        0.6401217000         0.4150514277
s   1 1.0 
        0.1612778000         0.1813806839

 10 0
s   3 1.0 
       18.7311370000         0.2149354183
        2.8253937000         0.3645711272
        0.6401217000         0.4150514277
s   1 1.0 
        0.1612778000         0.1813806839

 11 0
s   3 1.0 
       18.7311370000         0.2149354183
        2.8253937000         0.3645711272
        0.6401217000         0.4150514277
s   1 1.0 
        0.1612778000         0.1813806839

 12 0
s   3 1.0 
       18.7311370000         0.2149354183
        2.8253937000         0.3645711272
        0.6401217000         0.4150514277
s   1 1.0 
        0.1612778000         0.1813806839

 13 0
s   3 1.0 
       18.7311370000         0.2149354183
        2.8253937000         0.3645711272
        0.6401217000         0.4150514277
s   1 1.0 
        0.1612778000         0.1813806839

[5D]
[7F]
[9G]
[MO]
 Sym=     1a
 Ene= -1.12360419980830E+01
 Spin= Alpha
 Occup= 2.000000
  1      -0.003243090388
  2       0.000034005905
  3      -0.000003317448
  4      -0.000087996838
  5       0.000062334912
  6      -0.000742629063
  7       0.000378901306
  8       0.000678667415
  9      -0.000509447221
 10       0.000145339540
 11      -0.000623394836
 12      -0.053203717727
 13      -0.000533510407
 14      -0.000094383331
 15      -0.000171376422
 16       0.000096167919
 17      -0.005301049217
 18       0.001887570155
 19       0.001914094165
 20      -0.000530621254
 21      -0.964796318585
 22      -0.024102909282
 23       0.000017147291
 24      -0.000137733682
 25       0.000118253591
 26       0.016817156378
 27      -0.001249633462
 28       0.001597928589
 29      -0.000922698082
 30      -0.066384764185
 31      -0.000831679790
 32       0.000142875478
 33       0.000091036476
 34      -0.000008077036
 35      -0.004630771173
 36      -0.001998042788
 37      -0.001647255169
 38       0.000361357665
 39      -0.232736378376
 40      -0.005529050690
 41       0.000145402815
 42      -0.000042422880
 43       0.000053012637
 44       0.003898678765
 45      -0.000119239242
 46       0.000539454716
 47      -0.000279313575
 48       0.000020026242
 49      -0.000026071857
 50       0.000032496883
 51      -0.000162216476
 52       0.000261037286
 53       0.000291952483
 54       0.000079127956
 55      -0.000495757198
 56       0.000249531384
 57      -0.002081051356
 58       0.000092900459
 59      -0.000532178118
 60       0.000010742072
 61      -0.000897886670
 Sym=     1a
 Ene= -1.12359186578487E+01
 Spin= Alpha
 Occup= 2.000000
  1       0.014399733215
  2      -0.000016641820
  3       0.000032847735
  4       0.000141349373
  5      -0.000021340348
  6       0.003569593971
  7       0.000066096284
  8      -0.002109786093
  9       0.001333185724
 10      -0.000172839280
 11       0.000092294123
 12      -0.013582545555
 13      -0.000157383209
 14       0.000008975802
 15      -0.000064158186
 16       0.000018402815
 17      -0.000948874657
 18       0.000236018514
 19       0.000609678569
 20      -0.000105828331
 21      -0.237661167433
 22      -0.006143434832
 23       0.000179785820
 24       0.000026732357
 25       0.000078035033
 26       0.003632907545
 27      -0.000043093502
 28       0.000080102556
 29      -0.000068118669
 30       0.085890182483
 31       0.001325369675
 32       0.000163690502
 33      -0.000109897194
 34       0.000173407675
 35       0.004396026324
 36      -0.001468673154
 37       0.001646737226
 38      -0.002372957790
 39       0.963356166438
 40       0.024129764106
 41       0.000213570296
 42       0.000034845300
 43       0.000084192229
 44      -0.016874615005
 45      -0.002372999533
 46      -0.000908699382
 47      -0.000324708063
 48      -0.000085164954
 49       0.000172271876
 50      -0.000201589577
 51       0.000884935355
 52       0.000071253771
 53      -0.000344786589
 54       0.000024052022
 55      -0.000041963131
 56       0.000050518447
 57      -0.000534669475
 58      -0.000033038059
 59       0.000686456504
 60      -0.000270385795
 61       0.001897116769
 Sym=     1a
 Ene= -1.12276155977984E+01
 Spin= Alpha
 Occup= 2.000000
  1      -0.003080596456
  2      -0.000073555729
  3       0.000017864630
  4       0.000105995929
  5      -0.000142562687
  6      -0.001718115130
  7      -0.000228740897
  8       0.000652393636
  9      -0.000324654043
 10       0.000050595798
 11       0.000171954673
 12      -0.006891483594
 13      -0.000310091409
 14       0.000155000966
 15       0.000121353327
 16      -0.000060038987
 17      -0.000861280655
 18       0.000031809332
 19      -0.000041706154
 20       0.000261343744
 21      -0.044046728283
 22      -0.001744002817
 23       0.000164103993
 24       0.000039205744
 25       0.000035890948
 26       0.006116194407
 27      -0.002880478371
 28       0.000009548384
 29      -0.000966280314
 30       0.990228873278
 31       0.025151440197
 32       0.000103233439
 33       0.000158144601
 34      -0.000268966742
 35      -0.019584179052
 36      -0.000905287011
 37      -0.002604352528
 38       0.002625005606
 39      -0.099754258709
 40      -0.003514921896
 41      -0.000197205362
 42       0.000024855845
 43      -0.000136242038
 44       0.009408482396
 45       0.003435972040
 46       0.000190247121
 47       0.001554762263
 48       0.000061880105
 49       0.000175542973
 50       0.000011981575
 51      -0.000144518659
 52      -0.000034246997
 53       0.000280775790
 54       0.000049700723
 55       0.000319577337
 56      -0.000076860447
 57       0.000355330667
 58      -0.000294905853
 59       0.001676375400
 60      -0.000013861138
 61       0.000326729229
 Sym=     1a
 Ene= -1.12210158166448E+01
 Spin= Alpha
 Occup= 2.000000
  1      -0.000420628911
  2      -0.000063322666
  3      -0.000017795913
  4      -0.000009703376
  5      -0.000134231671
  6      -0.000012910617
  7      -0.000385155328
  8      -0.000095682961
  9       0.000933284165
 10      -0.000164683005
 11       0.001298662785
 12       0.994602298185
 13       0.024890071886
 14      -0.000102246832
 15      -0.000208677171
 16      -0.000044764967
 17      -0.016716129180
 18       0.000993078988
 19       0.001684199622
 20      -0.000136984766
 21      -0.055736871972
 22      -0.002221757047
 23      -0.000124753962
 24      -0.000283806418
 25       0.000052472658
 26       0.006848428121
 27       0.001173291221
 28       0.002786438641
 29      -0.000794580820
 30       0.004470351946
 31       0.000016112012
 32      -0.000112350980
 33      -0.000081809233
 34      -0.000001211961
 35      -0.000409708267
 36       0.000371788769
 37       0.000046746554
 38       0.000101623779
 39       0.000034443653
 40       0.000049829948
 41      -0.000041092962
 42      -0.000018570785
 43      -0.000013732648
 44      -0.000303742207
 45      -0.000008959647
 46      -0.000476916632
 47       0.000320399107
 48       0.000040356569
 49       0.000337152199
 50       0.000000967852
 51      -0.000558640964
 52      -0.000112434259
 53       0.002728016768
 54      -0.000208781616
 55       0.002656833831
 56      -0.000115821999
 57      -0.000002918208
 58       0.000038083959
 59       0.000231817104
 60      -0.000008958279
 61      -0.000047868685
 Sym=     1a
 Ene= -1.12141780512290E+01
 Spin= Alpha
 Occup= 2.000000
  1      -0.996089662090
  2      -0.026163030840
  3      -0.000002167561
  4       0.000000870864
  5      -0.000114548200
  6       0.019238888324
  7      -0.000035627153
  8      -0.000723271213
  9       0.000893166700
 10      -0.000074764722
 11      -0.003283495007
 12      -0.000418344353
 13       0.000045503828
 14      -0.000151407784
 15       0.000011896027
 16      -0.000002376833
 17      -0.000300991996
 18       0.000875243851
 19       0.000254469863
 20      -0.000121369139
 21      -0.000143683171
 22      -0.000010247303
 23      -0.000050637432
 24       0.000044033656
 25      -0.000042505492
 26       0.000572248654
 27      -0.000009167359
 28       0.000406222085
 29      -0.000170821970
 30      -0.001596060548
 31       0.000165038140
 32      -0.000050114786
 33       0.000089967360
 34      -0.000114435887
 35      -0.000675260802
 36       0.000436416739
 37      -0.000430288378
 38       0.000614630415
 39       0.015155602631
 40       0.000806376721
 41       0.000008520107
 42       0.000106491545
 43      -0.000108035027
 44      -0.004071460098
 45      -0.000099783003
 46      -0.002202620948
 47       0.001972563400
 48      -0.000032619553
 49      -0.003083274003
 50      -0.000074041381
 51      -0.003334807753
 52       0.000039285204
 53       0.000130651288
 54      -0.000072294460
 55      -0.000524635776
 56       0.000023611274
 57       0.000013743379
 58      -0.000034430850
 59      -0.000454593610
 60       0.000141317752
 61      -0.000030054190
 Sym=     1a
 Ene= -1.10190180487537E+00
 Spin= Alpha
 Occup= 2.000000
  1      -0.069719843280
  2       0.129040763343
  3       0.001751120423
  4      -0.032605898672
  5       0.030236827374
  6       0.123266191513
  7       0.008046832332
  8      -0.003847712744
  9       0.011378650150
 10       0.039963429240
 11       0.001001422907
 12      -0.074663104587
 13       0.145593508519
 14      -0.033922598211
 15      -0.055386710592
 16       0.011153344261
 17       0.099376606762
 18       0.000879606474
 19      -0.002953138325
 20      -0.001544009336
 21      -0.109745626716
 22       0.217529150804
 23      -0.031933211566
 24       0.027666668983
 25      -0.022406794848
 26       0.138253994239
 27      -0.006250609313
 28       0.000081476851
 29      -0.003015654079
 30      -0.125431722874
 31       0.247367770613
 32      -0.000520324446
 33       0.041101166721
 34      -0.049958007456
 35       0.163232479811
 36       0.004035171610
 37       0.003637471887
 38      -0.003581121293
 39      -0.114074524387
 40       0.226506921749
 41       0.060614309343
 42      -0.003089844378
 43       0.035180011595
 44       0.136379863637
 45      -0.003743506229
 46      -0.004243478010
 47       0.001560964450
 48       0.032086421006
 49       0.005597866268
 50       0.035572244177
 51       0.000159335183
 52       0.039519899764
 53       0.006880411957
 54       0.032664086825
 55       0.001409580444
 56       0.052732602909
 57       0.008262059817
 58       0.058064104094
 59       0.007871926056
 60       0.052607227755
 61       0.004069424927
 Sym=     1a
 Ene= -1.02008417419268E+00
 Spin= Alpha
 Occup= 2.000000
  1      -0.099014292505
  2       0.188445606969
  3      -0.010718471195
  4      -0.030889763248
  5       0.023786287711
  6       0.175832554142
  7      -0.003110817947
  8      -0.000966020623
  9       0.001699177361
 10       0.052326332975
 11       0.005227684442
 12       0.122550532912
 13      -0.240377973233
 14       0.025810155439
 15       0.078743782898
 16      -0.022301495411
 17      -0.186315537209
 18       0.004386283773
 19       0.003179843835
 20      -0.000912705489
 21       0.116747315978
 22      -0.233151472497
 23      -0.055917728943
 24      -0.075916642558
 25       0.016798039149
 26      -0.161968312160
 27      -0.011750673747
 28       0.004754228955
 29      -0.003872459598
 30      -0.020723470254
 31       0.041168601014
 32      -0.097123858310
 33       0.004965595965
 34      -0.053816669019
 35       0.025355886385
 36      -0.013789600905
 37      -0.011753830157
 38       0.001251191853
 39      -0.101329874909
 40       0.201211088826
 41       0.013558834886
 42       0.021666971717
 43      -0.012757142792
 44       0.148906278036
 45       0.003759320731
 46       0.005764188640
 47      -0.003213436183
 48       0.058753045102
 49       0.008801408267
 50       0.057300394915
 51       0.005447140458
 52      -0.061913684726
 53      -0.005805717699
 54      -0.070264498837
 55      -0.016230215644
 56      -0.069504895058
 57      -0.011813840346
 58       0.010112943050
 59      -0.003758842518
 60       0.062230412751
 61       0.016583284480
 Sym=     1a
 Ene= -9.41604492135239E-01
 Spin= Alpha
 Occup= 2.000000
  1       0.138916769231
  2      -0.261087066145
  3      -0.001956338619
  4      -0.021004147609
  5       0.015620114315
  6      -0.294556869096
  7      -0.003377261874
  8      -0.002028360849
  9      -0.003984444263
 10      -0.099737787462
 11      -0.022069300737
 12       0.078799900033
 13      -0.153943269673
 14       0.002300221774
 15       0.010453604604
 16      -0.000056873678
 17      -0.136292571381
 18       0.003640004051
 19      -0.001875572096
 20       0.004400129098
 21       0.001654796590
 22      -0.002251494536
 23      -0.095329781172
 24      -0.088718932077
 25       0.014306263250
 26       0.000891553916
 27      -0.019905329213
 28      -0.005674370869
 29      -0.001689745621
 30      -0.118948028513
 31       0.236584414183
 32      -0.034484537721
 33      -0.013302537531
 34      -0.018514209836
 35       0.184855586195
 36      -0.001931153059
 37      -0.015753290545
 38       0.008009599282
 39      -0.029565588263
 40       0.055647949195
 41       0.045970776963
 42      -0.113947160120
 43       0.128064117139
 44       0.073950588347
 45       0.010910635543
 46      -0.009185740452
 47       0.015642747228
 48      -0.101020376663
 49      -0.028092569275
 50      -0.099741736259
 51      -0.024278031465
 52      -0.060439700645
 53      -0.018017651587
 54      -0.057227887482
 55      -0.018393245742
 56       0.003228723427
 57       0.005186815080
 58       0.091035054647
 59       0.025089796070
 60       0.020481238165
 61       0.007321604126
 Sym=     1a
 Ene= -8.13145327590144E-01
 Spin= Alpha
 Occup= 2.000000
  1       0.060549748383
  2      -0.114966899578
  3      -0.015859405354
  4      -0.064774742023
  5       0.050951294023
  6      -0.146528255398
  7       0.002973813770
  8      -0.015253985193
  9       0.017868685567
 10      -0.058285105716
 11      -0.022879081414
 12      -0.101986038117
 13       0.202964471537
 14       0.041446788684
 15       0.079317273024
 16      -0.022061851353
 17       0.190249400998
 18       0.015316229363
 19       0.032102765027
 20      -0.009207281214
 21       0.085986927112
 22      -0.175627081271
 23       0.078240398574
 24       0.151069797375
 25      -0.037162345906
 26      -0.163032487575
 27       0.019928088222
 28       0.050384914117
 29      -0.013275662209
 30       0.029607016376
 31      -0.061662940458
 32      -0.192327048124
 33       0.025190126052
 34      -0.101021366391
 35      -0.050796232092
 36      -0.044615656137
 37       0.007071415590
 38      -0.024681768190
 39      -0.092007671082
 40       0.184421173487
 41      -0.038377721632
 42      -0.068277746720
 43       0.047103472207
 44       0.179058945735
 45      -0.024588902897
 46      -0.011960395323
 47      -0.000017290635
 48      -0.063274893500
 49      -0.021267849071
 50      -0.060308286809
 51      -0.024186907027
 52       0.108983943005
 53       0.041909470139
 54       0.113384943313
 55       0.048469172010
 56      -0.108890111193
 57      -0.045196398512
 58      -0.039261157496
 59      -0.017649159192
 60       0.108010594522
 61       0.043610582473
 Sym=     1a
 Ene= -7.18642264725838E-01
 Spin= Alpha
 Occup= 2.000000
  1       0.020165251173
  2      -0.034778250790
  3      -0.096426801717
  4      -0.110768925423
  5       0.036216056368
  6      -0.059940293587
  7      -0.038142748359
  8      -0.040113647239
  9       0.009378800897
 10      -0.078653377802
 11      -0.042853366049
 12       0.038550406467
 13      -0.076959594102
 14       0.026281657579
 15      -0.196864738429
 16       0.063815641436
 17      -0.080448139133
 18       0.006855009713
 19      -0.063987622134
 20       0.023751743794
 21      -0.069865860548
 22       0.141832164550
 23       0.178410528586
 24      -0.025385053788
 25       0.028457443711
 26       0.140821002627
 27       0.059037062114
 28      -0.038657962450
 29       0.019787519251
 30       0.078244139436
 31      -0.159950044132
 32       0.005696222096
 33       0.030363227454
 34      -0.040736163970
 35      -0.156189218995
 36      -0.002192072659
 37       0.034776666837
 38      -0.034726658287
 39      -0.073803347956
 40       0.150153730332
 41      -0.155942105055
 42       0.000329979947
 43      -0.103578921367
 44       0.155682236323
 45      -0.068543148399
 46      -0.007543292882
 47      -0.040273126972
 48      -0.001737967866
 49       0.001448955219
 50      -0.054289503246
 51      -0.029479769258
 52      -0.142401518163
 53      -0.087310856900
 54      -0.039962958112
 55      -0.019589110704
 56       0.140539205782
 57       0.067637855169
 58      -0.102486920419
 59      -0.041639809852
 60       0.151839171028
 61       0.076531882948
 Sym=     1a
 Ene= -6.68144724050201E-01
 Spin= Alpha
 Occup= 2.000000
  1      -0.017411036567
  2       0.032308706054
  3      -0.086429238143
  4       0.068602465176
  5      -0.112419160943
  6       0.051427045021
  7      -0.044775602132
  8       0.023855859541
  9      -0.048451611384
 10      -0.015670955750
 11      -0.010144312554
 12      -0.021765503184
 13       0.043254267001
 14       0.189589757769
 15       0.084720728275
 16      -0.004620208944
 17       0.061180803264
 18       0.072818807116
 19       0.020906595360
 20       0.004775321555
 21       0.024741217674
 22      -0.052687912272
 23       0.099009697876
 24      -0.138423080266
 25       0.081924052404
 26      -0.046565221467
 27       0.031524968019
 28      -0.043739761399
 29       0.028800724257
 30      -0.021149713896
 31       0.040676954240
 32      -0.064449521942
 33      -0.232928552251
 34       0.167655715119
 35       0.055798152205
 36      -0.024065751665
 37      -0.097436917784
 38       0.068512165029
 39       0.023114083976
 40      -0.048244687826
 41      -0.168157272192
 42      -0.092268771812
 43      -0.020218300095
 44      -0.034083073481
 45      -0.052004851126
 46      -0.037721702979
 47       0.001779259740
 48       0.098131870154
 49       0.058684192249
 50       0.026301304601
 51       0.015349795805
 52       0.002031062690
 53       0.006896670463
 54       0.135210196117
 55       0.084897172203
 56       0.080097227859
 57       0.058563201299
 58       0.188115630871
 59       0.114003968002
 60       0.083831794271
 61       0.058683395474
 Sym=     1a
 Ene= -6.02018670792524E-01
 Spin= Alpha
 Occup= 2.000000
  1       0.010920489489
  2      -0.021107757384
  3      -0.157466872554
  4      -0.028178812496
  5      -0.021693460709
  6      -0.030874952873
  7      -0.067933174307
  8      -0.014190055642
  9      -0.002118969680
 10      -0.091906797481
 11      -0.062197437114
 12      -0.007879604546
 13       0.017427406677
 14      -0.266028500842
 15       0.099712622517
 16      -0.008231517211
 17       0.030994163640
 18      -0.122150923839
 19       0.047033873029
 20      -0.001278014385
 21      -0.016018398960
 22       0.037044603022
 23      -0.190592501898
 24       0.075494094764
 25      -0.003384502971
 26       0.025368335621
 27      -0.067180470012
 28       0.018265737409
 29       0.010790707332
 30       0.009790588878
 31      -0.022264839866
 32       0.164252628252
 33      -0.035894350940
 34       0.156889183813
 35       0.012642361958
 36       0.049717487798
 37       0.006792968075
 38       0.043221433406
 39       0.003318049135
 40      -0.009054586555
 41      -0.243292636629
 42       0.011880845164
 43      -0.128007356082
 44      -0.003050899649
 45      -0.108899108586
 46      -0.003884042272
 47      -0.046709294048
 48       0.059059587909
 49       0.050252490274
 50      -0.013166444785
 51      -0.003940733257
 52       0.142523965363
 53       0.091934253129
 54      -0.146062997206
 55      -0.102059246010
 56      -0.089962991836
 57      -0.072307384921
 58       0.034738018516
 59       0.033748915153
 60       0.136438608327
 61       0.094627632141
 Sym=     1a
 Ene= -5.84548564422543E-01
 Spin= Alpha
 Occup= 2.000000
  1      -0.007023607201
  2       0.008668707183
  3      -0.014706794608
  4       0.180887515643
  5      -0.122536695040
  6       0.037823166853
  7      -0.009185017353
  8       0.075637603150
  9      -0.050730070742
 10       0.016673187602
 11       0.009565537958
 12      -0.007184131835
 13       0.019235386011
 14      -0.145452859851
 15      -0.282989150547
 16       0.089739072284
 17      -0.017009320868
 18      -0.048343297999
 19      -0.101967974952
 20       0.035110135210
 21      -0.007656714644
 22       0.018327216831
 23       0.127455432242
 24       0.306516709115
 25      -0.058107161119
 26      -0.004472041059
 27       0.031870018649
 28       0.111065786081
 29      -0.019580072740
 30      -0.011019954277
 31       0.022112916539
 32      -0.205025627033
 33      -0.049158966896
 34       0.004294817249
 35       0.022739442837
 36      -0.084096446234
 37      -0.021187868466
 38       0.008476689620
 39       0.024100031847
 40      -0.048946429633
 41      -0.021201067649
 42      -0.140774410453
 43       0.160231905206
 44      -0.083871460330
 45      -0.014456606727
 46      -0.054617861660
 47       0.064822657594
 48       0.075888472205
 49       0.055638679168
 50       0.068687058912
 51       0.051981611130
 52      -0.098457103886
 53      -0.071533449097
 54      -0.109981786005
 55      -0.086569341044
 56      -0.094232676071
 57      -0.070138984865
 58       0.073608314693
 59       0.050866150495
 60       0.012093478733
 61       0.011960916852
 Sym=     1a
 Ene= -5.67709194866234E-01
 Spin= Alpha
 Occup= 2.000000
  1      -0.000452490984
  2       0.001874430303
  3       0.132104191611
  4      -0.233480072635
  5      -0.315597354706
  6       0.000897875981
  7       0.066697349559
  8      -0.120000119748
  9      -0.158162258655
 10       0.149414379985
 11       0.117802424980
 12      -0.004247008398
 13       0.008185721728
 14      -0.022459532574
 15      -0.024421043427
 16      -0.021787467218
 17       0.011541736898
 18      -0.004597773888
 19      -0.005680209287
 20      -0.018640649484
 21       0.001360218037
 22      -0.003634446780
 23      -0.025471145486
 24       0.030508174459
 25      -0.051463441965
 26      -0.004346254279
 27      -0.011873191484
 28       0.015949781982
 29      -0.027243271935
 30      -0.003052510580
 31       0.004056016986
 32       0.033957652810
 33      -0.045156171751
 34      -0.048208130026
 35       0.020046337570
 36       0.018200419827
 37      -0.022847047923
 38      -0.039661805223
 39       0.005979387523
 40      -0.010205356431
 41       0.031063639033
 42      -0.104694734486
 43      -0.081165933529
 44      -0.029345712732
 45       0.009954143848
 46      -0.050013978635
 47      -0.045345049762
 48       0.121953461911
 49       0.093845672199
 50      -0.250730434946
 51      -0.195543208942
 52      -0.005148321682
 53      -0.014475189101
 54      -0.011056426446
 55      -0.011372913757
 56      -0.037886849991
 57      -0.027366974155
 58       0.002174994542
 59       0.004700682031
 60       0.013669655624
 61       0.011223612521
 Sym=     1a
 Ene= -5.42939744287758E-01
 Spin= Alpha
 Occup= 2.000000
  1      -0.006289732464
  2       0.016610863110
  3      -0.306064264422
  4      -0.069601060863
  5      -0.073679514794
  6      -0.009081159771
  7      -0.173252762380
  8      -0.031486009230
  9      -0.053561824186
 10      -0.182728408656
 11      -0.141437093934
 12      -0.013459047957
 13       0.029642683439
 14       0.165719353317
 15      -0.069510637128
 16       0.035014025785
 17       0.016681631067
 18       0.103793957403
 19      -0.031727388981
 20       0.024935747473
 21       0.007943814501
 22      -0.014782695517
 23      -0.138856488167
 24       0.087753769149
 25      -0.040045086253
 26      -0.014083268721
 27      -0.086154468276
 28       0.064414990831
 29      -0.026112505222
 30      -0.035028768988
 31       0.077972858278
 32       0.071836637943
 33       0.102838448567
 34      -0.023530221193
 35       0.071424055341
 36       0.017330272052
 37       0.023369912362
 38       0.005947085803
 39       0.007959966527
 40      -0.016057724621
 41       0.106402724423
 42       0.104487613775
 43      -0.002030564317
 44      -0.014829397816
 45       0.072282852351
 46       0.068654110657
 47      -0.000719709000
 48       0.175104705145
 49       0.134074407234
 50      -0.029844644830
 51      -0.024396768039
 52      -0.108010138067
 53      -0.083703984559
 54       0.125222265737
 55       0.088848149769
 56      -0.123527876121
 57      -0.084235535686
 58      -0.032098834879
 59      -0.041488373679
 60      -0.107925129586
 61      -0.070925116498
 Sym=     1a
 Ene= -5.07422448644494E-01
 Spin= Alpha
 Occup= 2.000000
  1       0.017055700571
  2      -0.037941805061