[Molden Format]
[Title]
 Molden file created by orca_2mkl for BaseName=h-shift_076

[Atoms] AU
C    1   6         -0.7995828115         0.0201501498         0.0574268875 
H    2   1          3.9925793607         0.0223856958         0.0600384890 
C    3   6          4.6470803380         0.0192071764         1.9991828511 
C    4   6          3.5130915898        -2.1449090819         3.4405790186 
C    5   6          1.1793837494        -3.0350022163         3.1241538261 
C    6   6         -0.6196468685        -2.2291625215         1.1651560013 
H    7   1         -2.0375934244         0.3111377388        -1.5204585295 
H    8   1          0.2634523895         1.6354294675         0.6516985134 
H    9   1          4.0801152547         1.8123456282         2.8250441942 
H   10   1          6.6884551044        -0.0421201058         1.9957189830 
H   11   1          4.7127936746        -3.0501238048         4.8115923363 
H   12   1          0.5811285807        -4.6023108361         4.2763368575 
H   13   1         -1.8579088150        -3.7060949890         0.5137636235 
[GTO]
  1 0
s   6 1.0 
     3047.5249000000         0.5363343823
      457.3695100000         0.9894506076
      103.9486900000         1.5972822308
       29.2101550000         2.0791870615
        9.2866630000         1.7741742532
        3.1639270000         0.6125798260
s   3 1.0 
        7.8682724000        -0.3995563516
        1.8812885000        -0.1841552393
        0.5442493000         0.5163903794
p   3 1.0 
        7.8682724000         1.2960827175
        1.8812885000         0.9937536282
        0.5442493000         0.4959527138
s   1 1.0 
        0.1687144000         0.1876178721
p   1 1.0 
        0.1687144000         0.1541275509

  2 0
s   3 1.0 
       18.7311370000         0.2149354183
        2.8253937000         0.3645711272
        0.6401217000         0.4150514277
s   1 1.0 
        0.1612778000         0.1813806839

  3 0
s   6 1.0 
     3047.5249000000         0.5363343823
      457.3695100000         0.9894506076
      103.9486900000         1.5972822308
       29.2101550000         2.0791870615
        9.2866630000         1.7741742532
        3.1639270000         0.6125798260
s   3 1.0 
        7.8682724000        -0.3995563516
        1.8812885000        -0.1841552393
        0.5442493000         0.5163903794
p   3 1.0 
        7.8682724000         1.2960827175
        1.8812885000         0.9937536282
        0.5442493000         0.4959527138
s   1 1.0 
        0.1687144000         0.1876178721
p   1 1.0 
        0.1687144000         0.1541275509

  4 0
s   6 1.0 
     3047.5249000000         0.5363343823
      457.3695100000         0.9894506076
      103.9486900000         1.5972822308
       29.2101550000         2.0791870615
        9.2866630000         1.7741742532
        3.1639270000         0.6125798260
s   3 1.0 
        7.8682724000        -0.3995563516
        1.8812885000        -0.1841552393
        0.5442493000         0.5163903794
p   3 1.0 
        7.8682724000         1.2960827175
        1.8812885000         0.9937536282
        0.5442493000         0.4959527138
s   1 1.0 
        0.1687144000         0.1876178721
p   1 1.0 
        0.1687144000         0.1541275509

  5 0
s   6 1.0 
     3047.5249000000         0.5363343823
      457.3695100000         0.9894506076
      103.9486900000         1.5972822308
       29.2101550000         2.0791870615
        9.2866630000         1.7741742532
        3.1639270000         0.6125798260
s   3 1.0 
        7.8682724000        -0.3995563516
        1.8812885000        -0.1841552393
        0.5442493000         0.5163903794
p   3 1.0 
        7.8682724000         1.2960827175
        1.8812885000         0.9937536282
        0.5442493000         0.4959527138
s   1 1.0 
        0.1687144000         0.1876178721
p   1 1.0 
        0.1687144000         0.1541275509

  6 0
s   6 1.0 
     3047.5249000000         0.5363343823
      457.3695100000         0.9894506076
      103.9486900000         1.5972822308
       29.2101550000         2.0791870615
        9.2866630000         1.7741742532
        3.1639270000         0.6125798260
s   3 1.0 
        7.8682724000        -0.3995563516
        1.8812885000        -0.1841552393
        0.5442493000         0.5163903794
p   3 1.0 
        7.8682724000         1.2960827175
        1.8812885000         0.9937536282
        0.5442493000         0.4959527138
s   1 1.0 
        0.1687144000         0.1876178721
p   1 1.0 
        0.1687144000         0.1541275509

  7 0
s   3 1.0 
       18.7311370000         0.2149354183
        2.8253937000         0.3645711272
        0.6401217000         0.4150514277
s   1 1.0 
        0.1612778000         0.1813806839

  8 0
s   3 1.0 
       18.7311370000         0.2149354183
        2.8253937000         0.3645711272
        0.6401217000         0.4150514277
s   1 1.0 
        0.1612778000         0.1813806839

  9 0
s   3 1.0 
       18.7311370000         0.2149354183
        2.8253937000         0.3645711272
        0.6401217000         0.4150514277
s   1 1.0 
        0.1612778000         0.1813806839

 10 0
s   3 1.0 
       18.7311370000         0.2149354183
        2.8253937000         0.3645711272
        0.6401217000         0.4150514277
s   1 1.0 
        0.1612778000         0.1813806839

 11 0
s   3 1.0 
       18.7311370000         0.2149354183
        2.8253937000         0.3645711272
        0.6401217000         0.4150514277
s   1 1.0 
        0.1612778000         0.1813806839

 12 0
s   3 1.0 
       18.7311370000         0.2149354183
        2.8253937000         0.3645711272
        0.6401217000         0.4150514277
s   1 1.0 
        0.1612778000         0.1813806839

 13 0
s   3 1.0 
       18.7311370000         0.2149354183
        2.8253937000         0.3645711272
        0.6401217000         0.4150514277
s   1 1.0 
        0.1612778000         0.1813806839

[5D]
[7F]
[9G]
[MO]
 Sym=     1a
 Ene= -1.12360006091519E+01
 Spin= Alpha
 Occup= 2.000000
  1      -0.056742361112
  2      -0.000584204431
  3      -0.000011834837
  4      -0.000176751159
  5       0.000122167349
  6      -0.005466655496
  7      -0.000832515447
  8       0.001989730316
  9      -0.001807697041
 10       0.000110741878
 11      -0.000587261960
 12      -0.000702592716
 13       0.000023900724
 14      -0.000049435933
 15      -0.000056621532
 16       0.000029277272
 17      -0.000121837040
 18       0.000016411431
 19       0.000287371358
 20      -0.000470958245
 21      -0.058943661517
 22      -0.001200360206
 23      -0.000163931630
 24      -0.000039111617
 25      -0.000112498179
 26       0.000942660686
 27       0.000538338110
 28       0.000403048179
 29       0.000218654735
 30      -0.049616333157
 31      -0.000562984298
 32      -0.000123658409
 33       0.000070179898
 34      -0.000123049444
 35      -0.003908392477
 36       0.001419364024
 37      -0.001373786601
 38       0.001785489296
 39      -0.991520080508
 40      -0.024814381439
 41      -0.000116823396
 42      -0.000147940926
 43       0.000014216633
 44       0.017265746839
 45       0.001475358941
 46       0.001692884520
 47       0.000568187404
 48       0.000081169546
 49      -0.000495996061
 50       0.000272189897
 51       0.000285105466
 52      -0.000001020241
 53      -0.000008240759
 54       0.000003392905
 55      -0.000000059127
 56      -0.000036514481
 57      -0.000547755588
 58       0.000086877424
 59      -0.000432174227
 60       0.000261811929
 61      -0.002094882504
 Sym=     1a
 Ene= -1.12355380896852E+01
 Spin= Alpha
 Occup= 2.000000
  1       0.004138454958
  2       0.000074989701
  3       0.000020927889
  4       0.000033612101
  5       0.000025132064
  6      -0.000037582022
  7      -0.000120949199
  8      -0.000230503988
  9      -0.000103574405
 10       0.000196745399
 11      -0.000129048225
 12      -0.015560236976
 13       0.000013404927
 14      -0.000009190284
 15      -0.000157171031
 16       0.000042290684
 17      -0.003664318347
 18       0.001184641684
 19       0.002185262869
 20      -0.000789631417
 21      -0.988996382422
 22      -0.024711028939
 23       0.000159829450
 24      -0.000034275769
 25       0.000098222492
 26       0.017259476777
 27      -0.001518970825
 28       0.000928577959
 29      -0.001742897018
 30      -0.099295722886
 31      -0.001511272245
 32       0.000223585932
 33       0.000125770076
 34       0.000003842301
 35      -0.005158777139
 36      -0.002534575531
 37      -0.001950637752
 38       0.000596801388
 39       0.063599152167
 40       0.001768416946
 41       0.000150741018
 42      -0.000039337502
 43       0.000111436726
 44      -0.000468799560
 45       0.000245223992
 46       0.000195287543
 47       0.000081826572
 48      -0.000011454266
 49      -0.000069896451
 50      -0.000012169479
 51       0.000366513543
 52       0.000201934955
 53      -0.000905769195
 54       0.000090136044
 55      -0.000185967411
 56       0.000268631563
 57      -0.002037860684
 58       0.000046847697
 59      -0.000784559266
 60      -0.000008896126
 61       0.000147732859
 Sym=     1a
 Ene= -1.12274533968821E+01
 Spin= Alpha
 Occup= 2.000000
  1       0.007480688061
  2       0.000338635276
  3       0.000052409008
  4      -0.000126219315
  5       0.000158832526
  6       0.000798390907
  7       0.000210791019
  8       0.000101114107
  9      -0.000159208027
 10      -0.000060043223
 11      -0.000174052466
 12       0.003416909593
 13       0.000073182712
 14      -0.000103650353
 15      -0.000109737006
 16       0.000096368163
 17       0.001767890579
 18      -0.000478535836
 19      -0.000659510683
 20       0.000027461327
 21       0.102746438805
 22       0.003604775484
 23      -0.000227194719
 24      -0.000029358328
 25      -0.000086141519
 26      -0.009459925192
 27       0.003258093925
 28      -0.000196200500
 29       0.001950867071
 30      -0.989953577680
 31      -0.025140936987
 32      -0.000137907605
 33      -0.000167176515
 34       0.000214566468
 35       0.019578511466
 36       0.001464945726
 37       0.002660038441
 38      -0.002227733152
 39       0.043256831779
 40       0.001723302814
 41       0.000124415422
 42      -0.000036807042
 43       0.000109421434
 44      -0.006047765376
 45      -0.002515897215
 46      -0.000023247650
 47      -0.001744077578
 48      -0.000047831695
 49      -0.000333681188
 50       0.000040329803
 51      -0.000305649100
 52      -0.000027955079
 53       0.000150485027
 54      -0.000059925948
 55      -0.000139293620
 56       0.000003526007
 57      -0.000342590599
 58       0.000297850175
 59      -0.001679232974
 60       0.000072245123
 61      -0.000350594657
 Sym=     1a
 Ene= -1.12214226506559E+01
 Spin= Alpha
 Occup= 2.000000
  1       0.994482930716
  2       0.024832027395
  3       0.000080035451
  4      -0.000203622784
  5       0.000057825986
  6      -0.016607554209
  7      -0.000444737842
  8       0.001676691511
  9      -0.000845208838
 10      -0.000164022426
 11       0.001137214804
 12      -0.000404288402
 13      -0.000050640592
 14       0.000101238860
 15      -0.000011187422
 16      -0.000064448724
 17       0.000014641450
 18      -0.000405658068
 19      -0.000070225345
 20       0.000781812711
 21      -0.000003603656
 22       0.000034373950
 23       0.000037154229
 24      -0.000018526011
 25       0.000021815037
 26      -0.000173291308
 27      -0.000308446854
 28      -0.000432864740
 29       0.000167733588
 30       0.005013366387
 31       0.000021257230
 32       0.000067493880
 33      -0.000080755555
 34       0.000086314852
 35      -0.000452502255
 36      -0.000330771671
 37       0.000008582491
 38      -0.000245912846
 39      -0.057744634023
 40      -0.002276404648
 41       0.000035871921
 42      -0.000291280364
 43       0.000125556469
 44       0.006836828458
 45      -0.000164685797
 46       0.002818985742
 47      -0.001344831256
 48      -0.000211158859
 49       0.002649318079
 50      -0.000131472931
 51       0.002737829049
 52       0.000016296874
 53      -0.000528118405
 54       0.000023763301
 55       0.000270358510
 56      -0.000007165456
 57      -0.000029259555
 58       0.000037025788
 59       0.000213633034
 60      -0.000114841650
 61      -0.000002811925
 Sym=     1a
 Ene= -1.12150512514057E+01
 Spin= Alpha
 Occup= 2.000000
  1       0.000400900753
  2      -0.000032041324
  3      -0.000092914513
  4      -0.000006327739
  5      -0.000108447003
  6       0.000276200564
  7       0.000426264502
  8      -0.000291281464
  9       0.000675520623
 10       0.000075750914
 11       0.003232568843
 12       0.996077052744
 13       0.026138120978
 14      -0.000076051942
 15       0.000007859703
 16       0.000070264215
 17      -0.019224983128
 18       0.000655988675
 19       0.000715479591
 20      -0.000608118915
 21      -0.016007762692
 22      -0.000831614501
 23      -0.000082486972
 24      -0.000110804235
 25       0.000077768530
 26       0.004071292116
 27       0.001556143318
 28       0.002233997363
 29      -0.001306304001
 30       0.001805093911
 31      -0.000151310360
 32      -0.000126198878
 33      -0.000093440679
 34       0.000029603620
 35       0.000629092345
 36       0.000782856317
 37       0.000398113266
 38       0.000042946762
 39       0.000131799363
 40       0.000016854088
 41      -0.000058583808
 42      -0.000041693196
 43      -0.000014049719
 44      -0.000500973647
 45      -0.000120152940
 46      -0.000421925913
 47       0.000132412688
 48       0.000059429298
 49       0.000495389982
 50      -0.000045707226
 51      -0.000060268709
 52       0.000072721489
 53       0.003322811863
 54       0.000037875548
 55       0.003103974112
 56      -0.000132790345
 57       0.000060541037
 58       0.000031098752
 59       0.000436345730
 60      -0.000026120571
 61      -0.000020911788
 Sym=     1a
 Ene= -1.10056857122269E+00
 Spin= Alpha
 Occup= 2.000000
  1       0.075267768650
  2      -0.146977453291
  3      -0.012597863949
  4       0.056492576685
  5      -0.032969209807
  6      -0.099991411132
  7      -0.000350435501
  8       0.003017026384
  9       0.001331620064
 10      -0.038724417575
 11      -0.001466766050
 12       0.068629338191
 13      -0.127346185946
 14       0.024970392322
 15       0.031884822005
 16      -0.017012081507
 17      -0.121040167486
 18       0.012678151777
 19       0.003680520337
 20      -0.000745850643
 21       0.113807306376
 22      -0.225986422809
 23       0.063327735942
 24       0.004970348752
 25       0.027533390259
 26      -0.136823047431
 27      -0.000679645254
 28       0.004299568978
 29      -0.004424142503
 30       0.125841487280
 31      -0.248246853234
 32      -0.038388172180
 33      -0.041645873701
 34       0.026976824212
 35      -0.163668220394
 36      -0.000025816610
 37      -0.003970615131
 38       0.005170487535
 39       0.110380227827
 40      -0.218938047460
 41      -0.035189656686
 42      -0.029596108257
 43      -0.013385288225
 44      -0.138927118922
 45      -0.005746355517
 46      -0.000003977912
 47      -0.003340370100
 48      -0.032989000808
 49      -0.001653426201
 50      -0.039676685516
 51      -0.007076177801
 52      -0.034919730100
 53      -0.000224329875
 54      -0.031881642962
 55      -0.005150741224
 56      -0.052901843948
 57      -0.004190601253
 58      -0.058794366092
 59      -0.008304663935
 60      -0.053014736502
 61      -0.008257058693
 Sym=     1a
 Ene= -1.02102942071279E+00
 Spin= Alpha
 Occup= 2.000000
  1       0.121753636871
  2      -0.238922664842
  3       0.000315558773
  4       0.078848965916
  5      -0.032936062127
  6      -0.184510302516
  7      -0.001991075458
  8       0.003055826219
  9      -0.003962253035
 10       0.053510695109
 11       0.005394581559
 12      -0.099953026689
 13       0.190076812202
 14      -0.013288486471
 15      -0.030287499023
 16       0.022868684439
 17       0.177786540009
 18       0.000553639795
 19      -0.000866130590
 20       0.003469219928
 21      -0.101735328128
 22       0.201952994628
 23       0.003152953781
 24       0.021092752174
 25      -0.018510578750
 26       0.148513389327
 27       0.001058056006
 28       0.005904370152
 29      -0.004874867136
 30      -0.020898974816
 31       0.041590571054
 32       0.101208038378
 33       0.006418194599
 34       0.046526667838
 35       0.025856225945
 36       0.007771023093
 37      -0.011709263844
 38       0.012431970388
 39       0.115998191175
 40      -0.231667262723
 41       0.022808673923
 42      -0.076875081442
 43       0.051334725137
 44      -0.160320729113
 45       0.010749292730
 46       0.004501350078
 47       0.006782911860
 48      -0.069528311022
 49      -0.015962208437
 50      -0.061665609192
 51      -0.005902164534
 52       0.057949709209
 53       0.005518054999
 54       0.059325961648
 55       0.008750270150
 56       0.062561290183
 57       0.016561824497
 58       0.010225924837
 59      -0.003829200584
 60      -0.068651801058
 61      -0.011461552482
 Sym=     1a
 Ene= -9.41149130853542E-01
 Spin= Alpha
 Occup= 2.000000
  1      -0.079094348524
  2       0.154851396782
  3       0.000267752424
  4      -0.012464670078
  5       0.001928898236
  6       0.135848790620
  7       0.004927551202
  8       0.001929034517
  9       0.000109132719
 10       0.098986206934
 11       0.022468190979
 12      -0.139047216117
 13       0.261645301612
 14       0.013027706092
 15       0.020574943229
 16      -0.009640349656
 17       0.294064648490
 18      -0.004116417603
 19       0.002142755296
 20       0.000433989186
 21       0.029755818485
 22      -0.055970905903
 23       0.131679664537
 24       0.114365818200
 25      -0.038845114687
 26      -0.074325557174
 27       0.019191056271
 28       0.009697871317
 29      -0.000486129820
 30       0.118644608686
 31      -0.236022885461
 32      -0.036056470448
 33       0.011884405448
 34      -0.019879947432
 35      -0.183964826875
 36       0.005377124448
 37       0.015484142065
 38      -0.007070171726
 39      -0.003621868777
 40       0.006100642308
 41      -0.048877044689
 42       0.088478201635
 43      -0.083312068014
 44       0.002799942344
 45      -0.013681492362
 46       0.005822320226
 47      -0.014621322520
 48       0.057603756906
 49       0.018525019818
 50       0.059338108854
 51       0.017227743115
 52       0.099872382898
 53       0.024501440836
 54       0.101411888852
 55       0.028061684748
 56      -0.020535991512
 57      -0.007320350487
 58      -0.091070564681
 59      -0.025174791657
 60      -0.001496921518
 61      -0.004524851301
 Sym=     1a
 Ene= -8.13774200630623E-01
 Spin= Alpha
 Occup= 2.000000
  1       0.102186756678
  2      -0.203455112044
  3       0.009827279535
  4      -0.080427521396
  5       0.043962461362
  6      -0.190224426773
  7       0.003193110299
  8      -0.032137982020
  9       0.016775293222
 10       0.059049629090
 11       0.023130169251
 12      -0.059634880586
 13       0.113037730851
 14       0.032587434045
 15       0.063643756181
 16      -0.044058624310
 17       0.145424495172
 18       0.015706420962
 19       0.014775005688
 20      -0.008303402037
 21       0.091699316786
 22      -0.183565544563
 23       0.015907594294
 24       0.065676986410
 25      -0.059490991937
 26      -0.178165270185
 27      -0.014111406607
 28       0.010098775779
 29      -0.019518287204
 30      -0.030444219484
 31       0.063524346414
 32      -0.195519902534
 33      -0.028878102486
 34      -0.094861287956
 35       0.052763584400
 36      -0.046760222415
 37      -0.007729654734
 38      -0.021826927158
 39      -0.086240303629
 40       0.176166290928
 41       0.020849474585
 42      -0.151635440024
 43       0.084098495175
 44       0.162956809119
 45       0.001744210226
 46      -0.050503643872
 47       0.023076155078
 48      -0.113477141758
 49      -0.048507637897
 50      -0.109321603886
 51      -0.042617168394
 52       0.059501078584
 53       0.023875634788
 54       0.061782238783
 55       0.020861192789
 56      -0.107196364380
 57      -0.043661657654
 58       0.040247305715
 59       0.018123847547
 60       0.108776508294
 61       0.044882014057
 Sym=     1a
 Ene= -7.17370012080469E-01
 Spin= Alpha
 Occup= 2.000000
  1       0.039194566649
  2      -0.078518059233
  3      -0.063134420749
  4      -0.197646394333
  5       0.014682971442
  6      -0.080690470712
  7      -0.020514288546
  8      -0.064909180475
  9       0.008162914653
 10      -0.079595183957
 11      -0.043776142917
 12       0.021423131739
 13      -0.037684172731
 14       0.022333529743
 15      -0.109499069917
 16       0.101649862389
 17      -0.062613748559
 18       0.011843120879
 19      -0.039487465066
 20       0.036736839929
 21      -0.073717665949
 22       0.150022465761
 23       0.173114833512
 24       0.003275017819
 25       0.070064864478
 26       0.154339202724
 27       0.073348150061
 28      -0.005548819780
 29       0.034206812396
 30       0.077850972019
 31      -0.159245117728
 32       0.029814305950
 33       0.029364397410
 34      -0.028016699981
 35      -0.153794914724
 36       0.030289475422
 37       0.034695185084
 38      -0.018804839387
 39      -0.069801164073
 40       0.141914803957
 41      -0.133090050881
 42      -0.027542347514
 43      -0.123807064249
 44       0.140412606624
 45      -0.053089518801
 46      -0.040418630030
 47      -0.034832354540
 48      -0.040896852360
 49      -0.019887460654
 50      -0.142254365908
 51      -0.087333503966
 52      -0.053671594120
 53      -0.029488236754
 54      -0.003857082128
 55       0.000676836559
 56       0.152020976455
 57       0.076696059726
 58      -0.101548433777
 59      -0.041258977861
 60       0.141929769304
 61       0.068188674546
 Sym=     1a
 Ene= -6.67345541243839E-01
 Spin= Alpha
 Occup= 2.000000
  1       0.021613504368
  2      -0.042946962904
  3       0.120598702234
  4      -0.087753058030
  5       0.149352587343
  6      -0.061081857764
  7       0.051659041663
  8      -0.021900590846
  9       0.053794351171
 10       0.015961519350
 11       0.010091406908
 12       0.016715088832
 13      -0.030609040561
 14      -0.139532813142
 15      -0.067641755772
 16      -0.004863115298
 17      -0.050334687838
 18      -0.063960271710
 19      -0.023482419026
 20      -0.008732838457
 21      -0.023680208250
 22       0.049634896331
 23      -0.111504983675
 24       0.088541668575
 25      -0.127509718690
 26       0.035305762623
 27      -0.027082510798
 28       0.037166503626
 29      -0.043660581420
 30       0.020785333093
 31      -0.040089792535
 32       0.093669178550
 33       0.231557697187
 34      -0.154589694645
 35      -0.052908904378
 36       0.040328747453
 37       0.097174713991
 38      -0.061861690496
 39      -0.025096497756
 40       0.053723713544
 41       0.124895486032
 42       0.140706553478
 43       0.029006070434
 44       0.046508571097
 45       0.041336906787
 46       0.044312707094
 47       0.007274927049
 48      -0.137336207474
 49      -0.086102334384
 50      -0.000395781995
 51      -0.005717770080
 52      -0.028107305387
 53      -0.016185322476
 54      -0.095221281232
 55      -0.057330067068
 56      -0.082548416443
 57      -0.058270339823
 58      -0.187938690820
 59      -0.114156762643
 60      -0.080482882752
 61      -0.059082146335
 Sym=     1a
 Ene= -6.03480228080837E-01
 Spin= Alpha
 Occup= 2.000000
  1      -0.007410160553
  2       0.016308100529
  3       0.172946705080
  4       0.099369208692
  5       0.193325166036
  6       0.029539436149
  7       0.076918119040
  8       0.045999280604
  9       0.090404918153
 10      -0.100209377086
 11      -0.067558074607
 12       0.010472688432
 13      -0.019977541112
 14       0.108667404313
 15      -0.028081935961
 16       0.128760938046
 17      -0.031272622011
 18       0.042510962351
 19      -0.013394450055
 20       0.060351226508
 21       0.003442832588
 22      -0.009574452710
 23       0.244717419557
 24       0.024202227778
 25       0.125248463555
 26      -0.000672725329
 27       0.098745242693
 28       0.002414467913
 29       0.060612757075
 30       0.009800783554
 31      -0.021970959710
 32      -0.226851341330
 33      -0.037987124108
 34      -0.040589043846
 35       0.010062209764
 36      -0.066119335428
 37       0.004391618224
 38      -0.013319263612
 39      -0.014830259924
 40       0.034290084783
 41       0.121408229393
 42       0.068594592424
 43       0.150187338474
 44       0.024070204174
 45       0.034666224541
 46       0.016228798152
 47       0.059881164155
 48      -0.140590327174
 49      -0.097868122060
 50       0.141375039324
 51       0.091337223057
 52      -0.008092128893
 53      -0.000657274589
 54       0.059431992742
 55       0.049760293761
 56       0.133987648666
 57       0.093526217701
 58       0.034708965276
 59       0.032681922278
 60      -0.089045679797
 61      -0.070992586342
 Sym=     1a
 Ene= -5.84806426630887E-01
 Spin= Alpha
 Occup= 2.000000
  1      -0.007212463902
  2       0.019306271282
  3       0.029798674588
  4      -0.285185628731
  5       0.164373504221
  6      -0.017004527578
  7       0.006306193380
  8      -0.102275849226
  9       0.057734305041
 10       0.019046465206
 11       0.011179309792
 12      -0.006542073121
 13       0.007576367624
 14       0.112371681693
 15       0.178134685327
 16      -0.064078389272
 17       0.037166399738
 18       0.048273682677
 19       0.074521082352
 20      -0.024267214059
 21       0.024415476531
 22      -0.049728923219
 23      -0.111547615157
 24      -0.141927208312
 25       0.116419389039
 26      -0.084651901675
 27      -0.041587749632
 28      -0.055565130396
 29       0.052310218835
 30      -0.010153023013
 31       0.020103936441
 32       0.112829099242
 33      -0.046357126690
 34       0.167597243025
 35       0.020713894537
 36       0.041244050774
 37      -0.019416643881
 38       0.072682300818
 39      -0.007876638715
 40       0.018722273504
 41      -0.034571174899
 42       0.308175340903
 43      -0.129495540822
 44      -0.003977667662
 45      -0.004755183863
 46       0.111482634287
 47      -0.034853256513
 48      -0.112558540847
 49      -0.088619309219
 50      -0.095743462233
 51      -0.069899752970
 52       0.067847473095
 53       0.051161842634
 54       0.075118109097
 55       0.055320336298
 56       0.017418305393
 57       0.015663046457
 58       0.073714353780
 59       0.051217784612
 60      -0.095686835668
 61      -0.071380334639
 Sym=     1a
 Ene= -5.67366198659403E-01
 Spin= Alpha
 Occup= 2.000000
  1      -0.004969186948
  2       0.009895451564
  3       0.030488129208
  4      -0.019775521244
  5       0.006689479735
  6       0.013761267602
  7       0.016726360817
  8      -0.003556221812
  9      -0.005798882010
 10       0.139455269619
 11       0.109246039890
 12      -0.000469417677
 13       0.001961350975
 14       0.185116084977
 15      -0.245770231768
 16      -0.279290773588
 17       0.000540907947
 18       0.091846201265
 19      -0.125912057558
 20      -0.141119916623
 21       0.005493126143
 22      -0.009020228244
 23       0.053901940365
 24      -0.101079158835
 25      -0.069847169872
 26      -0.029685973206
 27       0.034752348112
 28      -0.047986407027
 29      -0.032782378885
 30      -0.003089811258
 31       0.003989862792
 32       0.014680570305
 33      -0.045356403776
 34      -0.055057876557
 35       0.022436973730
 36       0.021275576136
 37      -0.021796560791
 38      -0.037183182488
 39       0.000996762980
 40      -0.002561590209
 41       0.054652257251
 42       0.031587656126
 43      -0.006739179974
 44      -0.003367359782
 45       0.026801923887
 46       0.015476165063
 47      -0.004733842200
 48      -0.011540705214
 49      -0.011473890561
 50      -0.001626338694
 51      -0.011748685362
 52      -0.253605113006
 53      -0.197700431950
 54       0.130689020233
 55       0.101403241205
 56       0.013478226871
 57       0.011339220165
 58       0.002632563345
 59       0.005509210006
 60      -0.038121856800
 61      -0.028080385980
 Sym=     1a
 Ene= -5.41454987311357E-01
 Spin= Alpha
 Occup= 2.000000
  1       0.011773912821
  2      -0.026078629365
  3       0.138210515836
  4       0.073142505771
  5       0.109358240394
  6      -0.011976679085
  7       0.087942049557
  8       0.033825198987
  9       0.066113901477
 10       0.186056245567
 11       0.144694914334
 12       0.005953943115
 13      -0.015407741783
 14      -0.232615598915
 15       0.062669937989
 16      -0.210872879408
 17       0.006761927747
 18      -0.140837759847
 19       0.028208406430
 20      -0.113093736853
 21      -0.007850586475
 22       0.015622181075
 23       0.066295101245
 24      -0.097582090212
 25       0.092600382452
 26       0.015831107392
 27       0.043295655230
 28      -0.063448279961
 29       0.061267657534
 30       0.035200968906
 31      -0.078590516844
 32       0.017561760393
 33      -0.102479040523
 34       0.072486275316
 35      -0.071669918250
 36       0.013661206740
 37      -0.023397371718
 38       0.011218032329
 39      -0.007977736096
 40       0.014661618504
 41      -0.110604239523
 42      -0.087311090683
 43      -0.082355727259
 44       0.015554704369
 45      -0.070966486895
 46      -0.064042989052
 47      -0.050554856353
 48      -0.126649832801
 49      -0.090439771069
 50       0.114235781576
 51       0.087770317015
 52       0.019746947825
 53       0.017463576254
 54      -0.171545919152
 55      -0.131940523824
 56       0.109984837987
 57       0.074040884120
 58       0.033620322946
 59       0.043144413689
 60       0.120370511950
 61       0.082055768211
 Sym=     1a
 Ene= -5.07193476026168E-01
 Spin= Alpha
 Occup= 2.000000
  1      -0.011697254296
  2       0.026381512924