[Molden Format]
[Title]
 Molden file created by orca_2mkl for BaseName=h-shift_041

[Atoms] AU
C    1   6          0.1777759860         0.0348654472        -0.0828701602 
H    2   1          2.2311051600        -0.0837621109        -0.3011316389 
C    3   6          4.6171565247         0.0435298415         2.5344288812 
C    4   6          3.6442310246        -2.0910292103         3.4829428991 
C    5   6          1.0449429630        -2.9984983766         3.3200655139 
C    6   6         -0.4886038097        -2.1998188541         1.4793135224 
H    7   1         -0.8600805040         0.1253795495        -1.8314432005 
H    8   1         -0.0238710205         1.8256228440         0.8919790811 
H    9   1          3.6145982291         1.7985468480         2.4554610055 
H   10   1          6.5460680197         0.1328156219         1.9288321265 
H   11   1          4.9536052553        -3.4874328884         4.1541414965 
H   12   1          0.5987276002        -4.7020543609         4.3332497395 
H   13   1         -2.0263268772        -3.3875589725         0.8794010640 
[GTO]
  1 0
s   6 1.0 
     3047.5249000000         0.5363343823
      457.3695100000         0.9894506076
      103.9486900000         1.5972822308
       29.2101550000         2.0791870615
        9.2866630000         1.7741742532
        3.1639270000         0.6125798260
s   3 1.0 
        7.8682724000        -0.3995563516
        1.8812885000        -0.1841552393
        0.5442493000         0.5163903794
p   3 1.0 
        7.8682724000         1.2960827175
        1.8812885000         0.9937536282
        0.5442493000         0.4959527138
s   1 1.0 
        0.1687144000         0.1876178721
p   1 1.0 
        0.1687144000         0.1541275509

  2 0
s   3 1.0 
       18.7311370000         0.2149354183
        2.8253937000         0.3645711272
        0.6401217000         0.4150514277
s   1 1.0 
        0.1612778000         0.1813806839

  3 0
s   6 1.0 
     3047.5249000000         0.5363343823
      457.3695100000         0.9894506076
      103.9486900000         1.5972822308
       29.2101550000         2.0791870615
        9.2866630000         1.7741742532
        3.1639270000         0.6125798260
s   3 1.0 
        7.8682724000        -0.3995563516
        1.8812885000        -0.1841552393
        0.5442493000         0.5163903794
p   3 1.0 
        7.8682724000         1.2960827175
        1.8812885000         0.9937536282
        0.5442493000         0.4959527138
s   1 1.0 
        0.1687144000         0.1876178721
p   1 1.0 
        0.1687144000         0.1541275509

  4 0
s   6 1.0 
     3047.5249000000         0.5363343823
      457.3695100000         0.9894506076
      103.9486900000         1.5972822308
       29.2101550000         2.0791870615
        9.2866630000         1.7741742532
        3.1639270000         0.6125798260
s   3 1.0 
        7.8682724000        -0.3995563516
        1.8812885000        -0.1841552393
        0.5442493000         0.5163903794
p   3 1.0 
        7.8682724000         1.2960827175
        1.8812885000         0.9937536282
        0.5442493000         0.4959527138
s   1 1.0 
        0.1687144000         0.1876178721
p   1 1.0 
        0.1687144000         0.1541275509

  5 0
s   6 1.0 
     3047.5249000000         0.5363343823
      457.3695100000         0.9894506076
      103.9486900000         1.5972822308
       29.2101550000         2.0791870615
        9.2866630000         1.7741742532
        3.1639270000         0.6125798260
s   3 1.0 
        7.8682724000        -0.3995563516
        1.8812885000        -0.1841552393
        0.5442493000         0.5163903794
p   3 1.0 
        7.8682724000         1.2960827175
        1.8812885000         0.9937536282
        0.5442493000         0.4959527138
s   1 1.0 
        0.1687144000         0.1876178721
p   1 1.0 
        0.1687144000         0.1541275509

  6 0
s   6 1.0 
     3047.5249000000         0.5363343823
      457.3695100000         0.9894506076
      103.9486900000         1.5972822308
       29.2101550000         2.0791870615
        9.2866630000         1.7741742532
        3.1639270000         0.6125798260
s   3 1.0 
        7.8682724000        -0.3995563516
        1.8812885000        -0.1841552393
        0.5442493000         0.5163903794
p   3 1.0 
        7.8682724000         1.2960827175
        1.8812885000         0.9937536282
        0.5442493000         0.4959527138
s   1 1.0 
        0.1687144000         0.1876178721
p   1 1.0 
        0.1687144000         0.1541275509

  7 0
s   3 1.0 
       18.7311370000         0.2149354183
        2.8253937000         0.3645711272
        0.6401217000         0.4150514277
s   1 1.0 
        0.1612778000         0.1813806839

  8 0
s   3 1.0 
       18.7311370000         0.2149354183
        2.8253937000         0.3645711272
        0.6401217000         0.4150514277
s   1 1.0 
        0.1612778000         0.1813806839

  9 0
s   3 1.0 
       18.7311370000         0.2149354183
        2.8253937000         0.3645711272
        0.6401217000         0.4150514277
s   1 1.0 
        0.1612778000         0.1813806839

 10 0
s   3 1.0 
       18.7311370000         0.2149354183
        2.8253937000         0.3645711272
        0.6401217000         0.4150514277
s   1 1.0 
        0.1612778000         0.1813806839

 11 0
s   3 1.0 
       18.7311370000         0.2149354183
        2.8253937000         0.3645711272
        0.6401217000         0.4150514277
s   1 1.0 
        0.1612778000         0.1813806839

 12 0
s   3 1.0 
       18.7311370000         0.2149354183
        2.8253937000         0.3645711272
        0.6401217000         0.4150514277
s   1 1.0 
        0.1612778000         0.1813806839

 13 0
s   3 1.0 
       18.7311370000         0.2149354183
        2.8253937000         0.3645711272
        0.6401217000         0.4150514277
s   1 1.0 
        0.1612778000         0.1813806839

[5D]
[7F]
[9G]
[MO]
 Sym=     1a
 Ene= -1.12370829571993E+01
 Spin= Alpha
 Occup= 2.000000
  1      -0.000206069929
  2      -0.000002576826
  3      -0.000022873087
  4      -0.000067242319
  5       0.000044881242
  6       0.000235966041
  7       0.000542228347
  8       0.000244137348
  9      -0.000127587377
 10       0.000106083820
 11      -0.000853853938
 12      -0.051628743541
 13      -0.000625940950
 14      -0.000081213342
 15      -0.000209021225
 16       0.000153772373
 17      -0.004821376063
 18       0.001590922108
 19       0.002189844035
 20      -0.001116196478
 21      -0.993114840915
 22      -0.024866451187
 23       0.000028808922
 24      -0.000088011828
 25       0.000243756933
 26       0.017172150526
 27      -0.000883877529
 28       0.001299499471
 29      -0.001216979098
 30      -0.047025166756
 31      -0.000518647710
 32       0.000176811638
 33       0.000073933613
 34       0.000008926992
 35      -0.003471208967
 36      -0.002106751642
 37      -0.001203954361
 38      -0.000038747159
 39      -0.033468096540
 40      -0.000494301535
 41       0.000126795702
 42      -0.000039579801
 43       0.000082801333
 44       0.000194520140
 45      -0.000540464039
 46       0.000284538694
 47      -0.000417695264
 48      -0.000002904759
 49       0.000021978452
 50      -0.000036545307
 51       0.000061030195
 52       0.000246568249
 53      -0.000256771222
 54       0.000086331509
 55      -0.000540262398
 56       0.000220620575
 57      -0.002284152843
 58       0.000073109062
 59      -0.000309311303
 60      -0.000035810508
 61      -0.000374528460
 Sym=     1a
 Ene= -1.12362577472569E+01
 Spin= Alpha
 Occup= 2.000000
  1      -0.012458288896
  2       0.000069905734
  3      -0.000051750300
  4      -0.000165788608
  5       0.000038734839
  6      -0.003605149206
  7       0.000406386802
  8       0.002201679243
  9      -0.001330564612
 10       0.000161347830
 11      -0.000523389700
 12       0.002526870417
 13      -0.000004805744
 14      -0.000022340228
 15       0.000005178718
 16       0.000007451460
 17       0.000248529222
 18      -0.000108627812
 19      -0.000242399288
 20      -0.000139028951
 21       0.037921197490
 22       0.001246166430
 23      -0.000153987559
 24      -0.000076034179
 25      -0.000048584200
 26      -0.000852578255
 27       0.000117580908
 28       0.000166051585
 29       0.000128625925
 30      -0.096580961300
 31      -0.001549464529
 32      -0.000142802528
 33       0.000110555265
 34      -0.000142374110
 35      -0.004716385375
 36       0.001285710782
 37      -0.001549884712
 38       0.002240663622
 39      -0.990633469763
 40      -0.024809085817
 41      -0.000283787320
 42       0.000016617924
 43      -0.000039443747
 44       0.017298610165
 45       0.002260488559
 46       0.000888395228
 47       0.000373127964
 48       0.000085429884
 49      -0.000126334395
 50       0.000205545978
 51      -0.000798296058
 52      -0.000048986800
 53       0.000310272828
 54      -0.000022022986
 55      -0.000002515806
 56      -0.000002619745
 57       0.000045515324
 58       0.000079784748
 59      -0.000607517105
 60       0.000242516204
 61      -0.002126606756
 Sym=     1a
 Ene= -1.12280204117304E+01
 Spin= Alpha
 Occup= 2.000000
  1       0.002192745245
  2       0.000070354929
  3      -0.000029202440
  4      -0.000077670550
  5       0.000136213510
  6       0.001549213856
  7       0.000099872147
  8      -0.000611147972
  9       0.000071266145
 10       0.000015544612
 11      -0.000265069663
 12       0.006943386227
 13       0.000268670885
 14      -0.000120415639
 15      -0.000093071116
 16       0.000083544045
 17       0.000939543890
 18      -0.000114952072
 19      -0.000240038735
 20      -0.000225666089
 21       0.043454474058
 22       0.001760085739
 23      -0.000174654721
 24      -0.000066909302
 25      -0.000046612264
 26      -0.006416241724
 27       0.002692279527
 28       0.000169652040
 29       0.000945244928
 30      -0.990352260279
 31      -0.025216353840
 32      -0.000156974698
 33      -0.000135244972
 34       0.000363668291
 35       0.019668391148
 36       0.000898874694
 37       0.002245473800
 38      -0.002892257882
 39       0.098770085481
 40       0.003416548183
 41       0.000172043405
 42      -0.000035174139
 43       0.000153697678
 44      -0.009257376150
 45      -0.003016359023
 46       0.000083630579
 47      -0.001858678231
 48      -0.000077519402
 49      -0.000291581480
 50       0.000027787752
 51       0.000121933020
 52       0.000026364624
 53      -0.000063465062
 54      -0.000060723620
 55      -0.000240992414
 56       0.000101672050
 57      -0.000248187239
 58       0.000250356330
 59      -0.001829090782
 60       0.000078407080
 61      -0.000164218008
 Sym=     1a
 Ene= -1.12218561545571E+01
 Spin= Alpha
 Occup= 2.000000
  1      -0.000221545914
  2      -0.000054725634
  3      -0.000057147591
  4      -0.000028347235
  5      -0.000164628620
  6      -0.000563354378
  7      -0.000515810709
  8       0.000084898158
  9       0.001390797907
 10       0.000026495816
 11       0.002454775984
 12       0.994816565702
 13       0.025431217048
 14      -0.000194406024
 15      -0.000178841097
 16      -0.000094296446
 17      -0.018182972316
 18       0.001578226568
 19       0.001537935273
 20      -0.000061166578
 21      -0.052476021584
 22      -0.002092003390
 23      -0.000124187610
 24      -0.000242103031
 25       0.000066789167
 26       0.007164391496
 27       0.000982275928
 28       0.002798788546
 29      -0.001285263457
 30       0.004712466912
 31       0.000054086689
 32      -0.000117716681
 33      -0.000081711350
 34      -0.000002941573
 35      -0.000416429558
 36       0.000195893193
 37       0.000076842356
 38       0.000100921006
 39       0.000115758096
 40       0.000070253588
 41      -0.000052343623
 42      -0.000017878684
 43      -0.000000331731
 44      -0.000488063202
 45      -0.000140894801
 46      -0.000524178201
 47       0.000078101340
 48       0.000130581769
 49       0.000615318752
 50      -0.000036976092
 51      -0.000749773948
 52       0.000017262169
 53       0.003034709728
 54      -0.000146940641
 55       0.002708921133
 56      -0.000109941398
 57       0.000064751174
 58       0.000034791262
 59       0.000267245687
 60      -0.000022618051
 61      -0.000104173893
 Sym=     1a
 Ene= -1.12083240282541E+01
 Spin= Alpha
 Occup= 2.000000
  1       0.996123488510
  2       0.026330022620
  3       0.000039647814
  4      -0.000042240002
  5       0.000211407563
  6      -0.019747465818
  7      -0.000392790636
  8       0.000798395766
  9      -0.001183967445
 10       0.000033111602
 11       0.003866366734
 12       0.000224110054
 13      -0.000076027267
 14       0.000154594312
 15      -0.000049401046
 16      -0.000048389468
 17       0.000291255262
 18      -0.001099841119
 19       0.000048987732
 20       0.000577343968
 21       0.000175339161
 22       0.000022217457
 23       0.000048901882
 24      -0.000043667614
 25       0.000049570665
 26      -0.000810431652
 27       0.000207664383
 28      -0.000382965540
 29       0.000095673482
 30       0.000941743008
 31      -0.000185884476
 32       0.000057632453
 33      -0.000081607667
 34       0.000085943459
 35       0.000575282795
 36      -0.000176475452
 37       0.000507528708
 38      -0.000468308865
 39      -0.012788573458
 40      -0.000784323966
 41      -0.000016408750
 42      -0.000106114576
 43       0.000088632584
 44       0.004510036594
 45       0.000341753051
 46       0.002175611735
 47      -0.001660236164
 48       0.000004909354
 49       0.002931209407
 50       0.000078691249
 51       0.003460128998
 52      -0.000036083872
 53      -0.000523103698
 54       0.000154113140
 55       0.000593671762
 56      -0.000021663592
 57       0.000002559364
 58       0.000047160477
 59       0.000476771562
 60      -0.000151850439
 61       0.000004355913
 Sym=     1a
 Ene= -1.11307013914463E+00
 Spin= Alpha
 Occup= 2.000000
  1      -0.074209039974
  2       0.135645561091
  3       0.005179372544
  4      -0.036054710094
  5       0.032730091138
  6       0.132426279884
  7       0.013286208159
  8      -0.004517287800
  9       0.016242505935
 10       0.049330333338
 11      -0.002036110164
 12      -0.074213983472
 13       0.142588668290
 14      -0.035024643170
 15      -0.050400303562
 16       0.017539968545
 17       0.102656411900
 18      -0.001558964898
 19      -0.002462515388
 20      -0.004321220150
 21      -0.108028580269
 22       0.212960352590
 23      -0.035029189263
 24       0.022374818176
 25      -0.030249876761
 26       0.135367559352
 27      -0.007467471983
 28       0.001260455142
 29      -0.004875543437
 30      -0.122427390557
 31       0.240985110101
 32       0.006592527808
 33       0.040977668095
 34      -0.059349485570
 35       0.157795453255
 36       0.003695011495
 37       0.002237183698
 38      -0.005421311423
 39      -0.113252857820
 40       0.224404199611
 41       0.065027767668
 42       0.001940185905
 43       0.034468517445
 44       0.130646509827
 45      -0.001491767974
 46      -0.004731988987
 47      -0.001477009496
 48       0.032399425905
 49       0.007648415195
 50       0.036871222617
 51      -0.000887184802
 52       0.039482109560
 53       0.004957598132
 54       0.031755594983
 55       0.000461748362
 56       0.050749801951
 57       0.008499424466
 58       0.054274526149
 59       0.005825106529
 60       0.050253437523
 61       0.003406504585
 Sym=     1a
 Ene= -1.01621982561431E+00
 Spin= Alpha
 Occup= 2.000000
  1      -0.094450752968
  2       0.180518978677
  3      -0.015317224156
  4      -0.036235890601
  5       0.024794743803
  6       0.166526183086
  7      -0.002331075953
  8      -0.001852990782
  9       0.004755799129
 10       0.041523673646
 11       0.004443109192
 12       0.125136326448
 13      -0.243510681331
 14       0.022914327862
 15       0.074960001221
 16      -0.035053775996
 17      -0.198890991351
 18       0.006517522820
 19       0.003886864733
 20      -0.002213406950
 21       0.118284030855
 22      -0.236522666440
 23      -0.057964174833
 24      -0.071749750456
 25       0.030165328449
 26      -0.165698343006
 27      -0.010387761741
 28       0.006237224149
 29      -0.002669009246
 30      -0.021460368179
 31       0.041946654528
 32      -0.095828548665
 33       0.001491025975
 34      -0.057788608655
 35       0.028815316388
 36      -0.010557212047
 37      -0.009173035493
 38      -0.000636012238
 39      -0.102923128278
 40       0.205137593495
 41       0.019488234994
 42       0.021033459185
 43      -0.012374425219
 44       0.151716311659
 45       0.003087554321
 46       0.002181316193
 47      -0.003508446165
 48       0.056133800049
 49       0.010027727388
 50       0.052676682748
 51       0.004245637601
 52      -0.063513124393
 53      -0.005688986475
 54      -0.072697671944
 55      -0.016634732014
 56      -0.072158112672
 57      -0.012851413088
 58       0.010602475159
 59      -0.002099454902
 60       0.062824684320
 61       0.015435176310
 Sym=     1a
 Ene= -9.45554281022611E-01
 Spin= Alpha
 Occup= 2.000000
  1       0.136360163882
  2      -0.254905340863
  3      -0.012314729778
  4      -0.019531113728
  5       0.006970818392
  6      -0.292733397676
  7      -0.011573876935
  8      -0.000460254750
  9      -0.010512013946
 10      -0.102626608769
 11      -0.018021999327
 12       0.078094335277
 13      -0.150026046159
 14       0.005333018604
 15      -0.002575522773
 16       0.004009932718
 17      -0.146116895531
 18       0.009071276913
 19      -0.002738986001
 20       0.006877902167
 21      -0.011467049174
 22       0.023766939711
 23      -0.092504767772
 24      -0.090181624041
 25       0.026763532614
 26       0.026422369338
 27      -0.020344202082
 28      -0.003662426831
 29      -0.000564201603
 30      -0.121704602705
 31       0.242207880837
 32      -0.017560215283
 33      -0.017123438711
 34      -0.022050461143
 35       0.187198586988
 36       0.001064811481
 37      -0.018835346487
 38       0.007104601094
 39      -0.026602342776
 40       0.049906555028
 41       0.037209889700
 42      -0.114689564883
 43       0.124003943694
 44       0.071656983214
 45       0.013322308721
 46      -0.005803634964
 47       0.017391357865
 48      -0.095559703520
 49      -0.028604596689
 50      -0.099006175713
 51      -0.023213494335
 52      -0.065288597464
 53      -0.019214706040
 54      -0.055914568392
 55      -0.018028793420
 56       0.013976548941
 57       0.009593120480
 58       0.092280360748
 59       0.024317074011
 60       0.019609567745
 61       0.009137822258
 Sym=     1a
 Ene= -8.10361895198028E-01
 Spin= Alpha
 Occup= 2.000000
  1      -0.067792853462
  2       0.129658464714
  3       0.012535244185
  4       0.067881942191
  5      -0.040876994629
  6       0.159198333218
  7      -0.003821522633
  8       0.015382133144
  9      -0.015125878094
 10       0.048327232617
 11       0.020957696381
 12       0.101163359495
 13      -0.199431632587
 14      -0.044590860505
 15      -0.079112410215
 16       0.027144404602
 17      -0.198339454633
 18      -0.014686715665
 19      -0.030283906979
 20       0.013165853761
 21      -0.085330487691
 22       0.173836736682
 23      -0.069729335425
 24      -0.144298673043
 25       0.051038267414
 26       0.166291108937
 27      -0.017724313190
 28      -0.046725859060
 29       0.016743204647
 30      -0.022257278276
 31       0.045831082057
 32       0.190592312918
 33      -0.013646371583
 34       0.104709246032
 35       0.038127780868
 36       0.043363496823
 37      -0.002890734214
 38       0.023883680354
 39       0.091414168987
 40      -0.183788212247
 41       0.033739156905
 42       0.086759766124
 43      -0.045607816263
 44      -0.182451646807
 45       0.021937606046
 46       0.019378617329
 47       0.001247656835
 48       0.070516403848
 49       0.024822480395
 50       0.070559328075
 51       0.028623445273
 52      -0.108036967685
 53      -0.041214779625
 54      -0.113892556035
 55      -0.047970421128
 56       0.108944954876
 57       0.045933773306
 58       0.030996124920
 59       0.015152659873
 60      -0.109370441955
 61      -0.043797101728
 Sym=     1a
 Ene= -7.25431425714534E-01
 Spin= Alpha
 Occup= 2.000000
  1      -0.014922826507
  2       0.022151515610
  3       0.110520509912
  4       0.116560963301
  5      -0.002610024925
  6       0.053505950458
  7       0.049306247645
  8       0.040896158252
  9       0.008394058783
 10       0.080095451430
 11       0.039350416864
 12      -0.031530577811
 13       0.059821917317
 14      -0.031105309922
 15       0.191009050822
 16      -0.070055749481
 17       0.076445535671
 18      -0.016380518748
 19       0.061098678763
 20      -0.030223267038
 21       0.069796802747
 22      -0.141038496198
 23      -0.180169588609
 24       0.013812617888
 25      -0.018828969477
 26      -0.146358097475
 27      -0.056022811396
 28       0.030025503941
 29      -0.014928947090
 30      -0.079613229860
 31       0.162190348564
 32      -0.005926541601
 33      -0.031992895830
 34       0.036598547704
 35       0.167561903568
 36       0.002006983854
 37      -0.032883703255
 38       0.028337903794
 39       0.074601625071
 40      -0.151021977386
 41       0.137613185589
 42       0.009490823795
 43       0.132016142052
 44      -0.164413781411
 45       0.052928841545
 46       0.011210557088
 47       0.047399274704
 48      -0.013896750886
 49      -0.006738617738
 50       0.062805841846
 51       0.032683991373
 52       0.134143206869
 53       0.078549005139
 54       0.030908354481
 55       0.015409415689
 56      -0.135827820425
 57      -0.065453682355
 58       0.102651280446
 59       0.041439445599
 60      -0.151699017276
 61      -0.078065728360
 Sym=     1a
 Ene= -6.74467748394097E-01
 Spin= Alpha
 Occup= 2.000000
  1      -0.022403338828
  2       0.043461218038
  3      -0.085413847952
  4       0.077477553835
  5      -0.123738328753
  6       0.061465016890
  7      -0.042834193352
  8       0.027518634694
  9      -0.056303085906
 10      -0.024951632418
 11      -0.016625915453
 12      -0.023697084516
 13       0.047349150108
 14       0.173969347938
 15       0.084790653710
 16      -0.044735557917
 17       0.067425257913
 18       0.064875853418
 19       0.022682276385
 20      -0.011234689635
 21       0.023760159552
 22      -0.048654497899
 23       0.095054085246
 24      -0.132406501762
 25       0.085494993583
 26      -0.047814183602
 27       0.036360731867
 28      -0.044523377417
 29       0.033624895127
 30      -0.024513984453
 31       0.046681800630
 32      -0.049441743372
 33      -0.239313133922
 34       0.160668372198
 35       0.075793735317
 36      -0.017958860634
 37      -0.096025478442
 38       0.060693670276
 39       0.022033630813
 40      -0.044946595093
 41      -0.156607019964
 42      -0.097474059491
 43      -0.047346715964
 44      -0.034705474732
 45      -0.053444557237
 46      -0.037059297712
 47      -0.010234000520
 48       0.108971647395
 49       0.062671944184
 50       0.031542610109
 51       0.020780357821
 52       0.017507737793
 53       0.015831342737
 54       0.127555010149
 55       0.079920667335
 56       0.077621492808
 57       0.052926719896
 58       0.188383521473
 59       0.112937976989
 60       0.081996469169
 61       0.055423438074
 Sym=     1a
 Ene= -5.98433423422033E-01
 Spin= Alpha
 Occup= 2.000000
  1       0.012557668380
  2      -0.025295751258
  3      -0.113247144547
  4      -0.023263346196
  5      -0.070372941377
  6      -0.030030795909
  7      -0.045950854631
  8      -0.013467437962
  9      -0.020955614889
 10      -0.060577385372
 11      -0.044831694583
 12      -0.009124820509
 13       0.019656324712
 14      -0.283271440374
 15       0.116758228407
 16       0.077859349595
 17       0.036921705759
 18      -0.135892669629
 19       0.057322156869
 20       0.036282599083
 21      -0.019013497878
 22       0.044586437702
 23      -0.174132449562
 24       0.101561752290
 25       0.008782886008
 26       0.024179641749
 27      -0.055472704300
 28       0.025701649893
 29       0.020549707398
 30       0.008617986667
 31      -0.020585265335
 32       0.140935613537
 33      -0.028680815287
 34       0.138998897270
 35       0.023056871371
 36       0.044554425957
 37       0.015132143573
 38       0.034375981006
 39       0.002869779973
 40      -0.007502187565
 41      -0.208339632282
 42      -0.034066394847
 43      -0.144105320531
 44      -0.010571037656
 45      -0.101606473204
 46      -0.026968358276
 47      -0.060166414672
 48       0.061106856958
 49       0.052544635701
 50      -0.031110475101
 51      -0.015026059858
 52       0.153404952389
 53       0.099494028182
 54      -0.168813220242
 55      -0.117048065106
 56      -0.090188329105
 57      -0.075543264230
 58       0.029366037328
 59       0.032057895679
 60       0.136592904382
 61       0.092413307630
 Sym=     1a
 Ene= -5.84024733974697E-01
 Spin= Alpha
 Occup= 2.000000
  1      -0.008920168503
  2       0.012439539275
  3      -0.023740249127
  4       0.223287217635
  5      -0.070711746320
  6       0.043376257904
  7      -0.015723321837
  8       0.093203273093
  9      -0.023813299378
 10      -0.015389390730
 11      -0.012679592067
 12      -0.006204881553
 13       0.017961243023
 14      -0.124309860541
 15      -0.262249255853
 16       0.128652557950
 17      -0.017573265353
 18      -0.042939696965
 19      -0.097521898708
 20       0.050795768616
 21      -0.006949722527
 22       0.017788269620
 23       0.146197051698
 24       0.278837591709
 25      -0.085558912039
 26      -0.006151137066
 27       0.043410950484
 28       0.099438932293
 29      -0.025191142070
 30      -0.011757229496
 31       0.023984382277
 32      -0.219900069272
 33      -0.054594011339
 34      -0.016794632829
 35       0.028359456801
 36      -0.088494773183
 37      -0.023120338513
 38       0.000722133553
 39       0.020580617384
 40      -0.041158582011
 41      -0.020567327368
 42      -0.131267144301
 43       0.176311799543
 44      -0.076259145865
 45      -0.015094473191
 46      -0.049897831442
 47       0.070820462487
 48       0.062275733908
 49       0.045558473318
 50       0.111275418493
 51       0.083961260282
 52      -0.097538520371
 53      -0.068596571705
 54      -0.100803859952
 55      -0.077221148632
 56      -0.073476529752
 57      -0.055989637435
 58       0.068721216354
 59       0.047127197667
 60      -0.000987115483
 61       0.002344771292
 Sym=     1a
 Ene= -5.61067045539367E-01
 Spin= Alpha
 Occup= 2.000000
  1      -0.006759145657
  2       0.016559441160
  3       0.073107550493
  4      -0.199693057214
  5      -0.303722666797
  6      -0.001131708490
  7       0.026500966988
  8      -0.101882388473
  9      -0.164070821005
 10       0.100328758899
 11       0.097600076112
 12      -0.010137940338
 13       0.022179438103
 14       0.020492851810
 15      -0.122697096887
 16      -0.031925137266
 17       0.009527852455
 18       0.033838246839
 19      -0.051108543233
 20      -0.027031714945
 21       0.007458187325
 22      -0.017467989059
 23      -0.061818090661
 24       0.096659433442
 25      -0.114646904873
 26      -0.012283722556
 27      -0.053691693686
 28       0.057983960307
 29      -0.066999614604
 30      -0.017162712300
 31       0.036328940239
 32       0.039814818561
 33      -0.045255182515
 34      -0.038660262780
 35       0.025724301432
 36       0.014146897876
 37      -0.047223728687
 38      -0.019728681598
 39       0.021366987539
 40      -0.045707285351
 41       0.074370799889
 42      -0.070803732158
 43      -0.063040120254
 44      -0.049579037605
 45       0.054457229783
 46      -0.022041050088
 47      -0.030208861757
 48       0.155071505699
 49       0.114770368212
 50      -0.217679814272
 51      -0.173723207453
 52      -0.078280521241
 53      -0.067398577945
 54       0.028375635636
 55       0.010427658254
 56      -0.107249485922
 57      -0.068590623281
 58       0.027341882573
 59       0.010774919865
 60      -0.026627748868
 61      -0.009780862498
 Sym=     1a
 Ene= -5.51200220396846E-01
 Spin= Alpha
 Occup= 2.000000
  1       0.005847910715
  2      -0.016351133013
  3       0.339148782353
  4      -0.002012761949
  5       0.031445112830
  6       0.018745596580
  7       0.183730597271
  8      -0.007405574962
  9       0.037393836914
 10       0.221409710760
 11       0.176618084034
 12       0.018692668970
 13      -0.041498731617
 14      -0.137915373471
 15       0.019185942051
 16      -0.015905571296
 17      -0.029046038454
 18      -0.089479067224
 19       0.009482778419
 20      -0.015851075889
 21      -0.004075005075
 22       0.006476698571
 23       0.144968269374
 24      -0.068532892714
 25       0.008867422369
 26      -0.002637187385
 27       0.083923786973
 28      -0.055654014970
 29       0.003682590182
 30       0.031969587948
 31      -0.071268955335
 32      -0.059103110933
 33      -0.139495116986
 34      -0.002550390007
 35      -0.064673422160
 36      -0.007855531493
 37      -0.043980993693
 38      -0.017599161526
 39      -0.001803739842
 40       0.003574079541
 41      -0.060524669194
 42      -0.151551028296
 43      -0.045855638994
 44      -0.006731922263
 45      -0.045696029659
 46      -0.099305358426
 47      -0.027955204259
 48      -0.142702550364
 49      -0.102635484687
 50      -0.022531381374
 51      -0.026689563701
 52       0.052002014316
 53       0.035626665615
 54      -0.111722295793
 55      -0.077988306584
 56       0.103839576466
 57       0.069544043674
 58       0.045623231213
 59       0.048832826942
 60       0.101576291998
 61       0.062835708453
 Sym=     1a
 Ene= -5.08625550397522E-01
 Spin= Alpha
 Occup= 2.000000
  1      -0.015325237377
  2       0.033490536066