[Molden Format]
[Title]
 Molden file created by orca_2mkl for BaseName=h-shift_029

[Atoms] AU
C    1   6          0.0641826584         0.0224386081        -0.2444417446 
H    2   1          2.0267388375         0.0108451383        -0.8242380684 
C    3   6          4.7972757711         0.0378190891         2.8011618353 
C    4   6          3.7994909238        -2.1838544478         3.4359964327 
C    5   6          1.1630395080        -3.0257331096         3.2004382907 
C    6   6         -0.4545811804        -2.1803282188         1.4617126132 
H    7   1         -1.1077347830         0.0295931113        -1.9138333702 
H    8   1         -0.2431926356         1.7918213126         0.7520335225 
H    9   1          3.6940442055         1.6711736374         2.3527713977 
H   10   1          6.8045693267         0.2727498421         2.6601655890 
H   11   1          5.0774465677        -3.6543977512         4.0169757251 
H   12   1          0.6248398359        -4.6205202372         4.3433900099 
H   13   1         -2.2167904845        -3.1610015960         1.2022380972 
[GTO]
  1 0
s   6 1.0 
     3047.5249000000         0.5363343823
      457.3695100000         0.9894506076
      103.9486900000         1.5972822308
       29.2101550000         2.0791870615
        9.2866630000         1.7741742532
        3.1639270000         0.6125798260
s   3 1.0 
        7.8682724000        -0.3995563516
        1.8812885000        -0.1841552393
        0.5442493000         0.5163903794
p   3 1.0 
        7.8682724000         1.2960827175
        1.8812885000         0.9937536282
        0.5442493000         0.4959527138
s   1 1.0 
        0.1687144000         0.1876178721
p   1 1.0 
        0.1687144000         0.1541275509

  2 0
s   3 1.0 
       18.7311370000         0.2149354183
        2.8253937000         0.3645711272
        0.6401217000         0.4150514277
s   1 1.0 
        0.1612778000         0.1813806839

  3 0
s   6 1.0 
     3047.5249000000         0.5363343823
      457.3695100000         0.9894506076
      103.9486900000         1.5972822308
       29.2101550000         2.0791870615
        9.2866630000         1.7741742532
        3.1639270000         0.6125798260
s   3 1.0 
        7.8682724000        -0.3995563516
        1.8812885000        -0.1841552393
        0.5442493000         0.5163903794
p   3 1.0 
        7.8682724000         1.2960827175
        1.8812885000         0.9937536282
        0.5442493000         0.4959527138
s   1 1.0 
        0.1687144000         0.1876178721
p   1 1.0 
        0.1687144000         0.1541275509

  4 0
s   6 1.0 
     3047.5249000000         0.5363343823
      457.3695100000         0.9894506076
      103.9486900000         1.5972822308
       29.2101550000         2.0791870615
        9.2866630000         1.7741742532
        3.1639270000         0.6125798260
s   3 1.0 
        7.8682724000        -0.3995563516
        1.8812885000        -0.1841552393
        0.5442493000         0.5163903794
p   3 1.0 
        7.8682724000         1.2960827175
        1.8812885000         0.9937536282
        0.5442493000         0.4959527138
s   1 1.0 
        0.1687144000         0.1876178721
p   1 1.0 
        0.1687144000         0.1541275509

  5 0
s   6 1.0 
     3047.5249000000         0.5363343823
      457.3695100000         0.9894506076
      103.9486900000         1.5972822308
       29.2101550000         2.0791870615
        9.2866630000         1.7741742532
        3.1639270000         0.6125798260
s   3 1.0 
        7.8682724000        -0.3995563516
        1.8812885000        -0.1841552393
        0.5442493000         0.5163903794
p   3 1.0 
        7.8682724000         1.2960827175
        1.8812885000         0.9937536282
        0.5442493000         0.4959527138
s   1 1.0 
        0.1687144000         0.1876178721
p   1 1.0 
        0.1687144000         0.1541275509

  6 0
s   6 1.0 
     3047.5249000000         0.5363343823
      457.3695100000         0.9894506076
      103.9486900000         1.5972822308
       29.2101550000         2.0791870615
        9.2866630000         1.7741742532
        3.1639270000         0.6125798260
s   3 1.0 
        7.8682724000        -0.3995563516
        1.8812885000        -0.1841552393
        0.5442493000         0.5163903794
p   3 1.0 
        7.8682724000         1.2960827175
        1.8812885000         0.9937536282
        0.5442493000         0.4959527138
s   1 1.0 
        0.1687144000         0.1876178721
p   1 1.0 
        0.1687144000         0.1541275509

  7 0
s   3 1.0 
       18.7311370000         0.2149354183
        2.8253937000         0.3645711272
        0.6401217000         0.4150514277
s   1 1.0 
        0.1612778000         0.1813806839

  8 0
s   3 1.0 
       18.7311370000         0.2149354183
        2.8253937000         0.3645711272
        0.6401217000         0.4150514277
s   1 1.0 
        0.1612778000         0.1813806839

  9 0
s   3 1.0 
       18.7311370000         0.2149354183
        2.8253937000         0.3645711272
        0.6401217000         0.4150514277
s   1 1.0 
        0.1612778000         0.1813806839

 10 0
s   3 1.0 
       18.7311370000         0.2149354183
        2.8253937000         0.3645711272
        0.6401217000         0.4150514277
s   1 1.0 
        0.1612778000         0.1813806839

 11 0
s   3 1.0 
       18.7311370000         0.2149354183
        2.8253937000         0.3645711272
        0.6401217000         0.4150514277
s   1 1.0 
        0.1612778000         0.1813806839

 12 0
s   3 1.0 
       18.7311370000         0.2149354183
        2.8253937000         0.3645711272
        0.6401217000         0.4150514277
s   1 1.0 
        0.1612778000         0.1813806839

 13 0
s   3 1.0 
       18.7311370000         0.2149354183
        2.8253937000         0.3645711272
        0.6401217000         0.4150514277
s   1 1.0 
        0.1612778000         0.1813806839

[5D]
[7F]
[9G]
[MO]
 Sym=     1a
 Ene= -1.12361602937783E+01
 Spin= Alpha
 Occup= 2.000000
  1      -0.013735398029
  2       0.000036876479
  3      -0.000032036447
  4      -0.000166768433
  5       0.000050501726
  6      -0.003442817606
  7       0.000167651437
  8       0.002164550965
  9      -0.001400017260
 10       0.000222284969
 11      -0.000421027733
 12      -0.015169866908
 13      -0.000137752265
 14      -0.000054105206
 15      -0.000032987331
 16       0.000035198320
 17      -0.001849539718
 18       0.000735040946
 19       0.000441506692
 20      -0.000201488975
 21      -0.285977449554
 22      -0.006958414877
 23      -0.000144596218
 24      -0.000094141238
 25      -0.000004148486
 26       0.005369801157
 27      -0.000575929541
 28       0.000734622410
 29      -0.000402837709
 30      -0.106559571092
 31      -0.001543034827
 32      -0.000068393021
 33       0.000140470808
 34      -0.000152298553
 35      -0.006107864602
 36       0.000265925371
 37      -0.002232630938
 38       0.002225953281
 39      -0.947989325126
 40      -0.023588392853
 41      -0.000112659281
 42      -0.000052951476
 43      -0.000043883321
 44       0.016501723804
 45       0.001975983901
 46       0.001065482762
 47       0.000159546007
 48       0.000082935934
 49      -0.000158803390
 50       0.000190092547
 51      -0.000839944408
 52       0.000067925544
 53       0.000440517214
 54       0.000019515041
 55      -0.000211388759
 56       0.000083735193
 57      -0.000598692629
 58       0.000076511583
 59      -0.000850789956
 60       0.000237952270
 61      -0.002089357253
 Sym=     1a
 Ene= -1.12360577498066E+01
 Spin= Alpha
 Occup= 2.000000
  1      -0.004435988359
  2      -0.000020509560
  3      -0.000012857767
  4       0.000005933325
  5      -0.000043228253
  6      -0.001187785830
  7      -0.000357833052
  8       0.000487677365
  9      -0.000246248472
 10      -0.000038534127
 11       0.000491450742
 12       0.052040998068
 13       0.000528998643
 14       0.000077570077
 15       0.000181182261
 16      -0.000097209313
 17       0.005015824197
 18      -0.001733395122
 19      -0.001962603758
 20       0.000546055169
 21       0.951597787564
 22       0.023878818485
 23      -0.000103946463
 24       0.000096899390
 25      -0.000150546394
 26      -0.016319359362
 27       0.001069515946
 28      -0.001378330766
 29       0.000856021216
 30       0.014662745651
 31       0.000072471976
 32      -0.000205417679
 33      -0.000022473971
 34      -0.000080225681
 35       0.001704599378
 36       0.002457733436
 37       0.000566718586
 38       0.000903791118
 39      -0.289544600726
 40      -0.007518199086
 41      -0.000231803755
 42       0.000017347228
 43      -0.000089243537
 44       0.005263871727
 45       0.001325482985
 46       0.000012523463
 47       0.000429175874
 48       0.000025964631
 49      -0.000064960830
 50       0.000075788760
 51      -0.000310839045
 52      -0.000260707617
 53      -0.000053068836
 54      -0.000080798968
 55       0.000451516778
 56      -0.000237280426
 57       0.002083059660
 58      -0.000062985854
 59       0.000101984659
 60       0.000128323183
 61      -0.000190550079
 Sym=     1a
 Ene= -1.12277705694322E+01
 Spin= Alpha
 Occup= 2.000000
  1      -0.002939784278
  2      -0.000072981214
  3       0.000019279535
  4       0.000104349979
  5      -0.000142648981
  6      -0.001696946050
  7      -0.000217275830
  8       0.000647408307
  9      -0.000300262958
 10       0.000046887124
 11       0.000173414696
 12      -0.006704510123
 13      -0.000300906255
 14       0.000153119694
 15       0.000119152059
 16      -0.000062139051
 17      -0.000873673004
 18       0.000040851725
 19      -0.000023144364
 20       0.000260700547
 21      -0.044855451595
 22      -0.001763647101
 23       0.000165607267
 24       0.000040570845
 25       0.000036728956
 26       0.006141793814
 27      -0.002872861478
 28      -0.000002041526
 29      -0.000963388415
 30       0.990338798319
 31       0.025151639204
 32       0.000111195766
 33       0.000153245527
 34      -0.000276726169
 35      -0.019569446546
 36      -0.000916622382
 37      -0.002572436151
 38       0.002651566429
 39      -0.098304710300
 40      -0.003471061654
 41      -0.000193886874
 42       0.000023975181
 43      -0.000138113941
 44       0.009358978874
 45       0.003396594087
 46       0.000179804897
 47       0.001591074604
 48       0.000062452405
 49       0.000186025350
 50       0.000007062966
 51      -0.000142226296
 52      -0.000032736076
 53       0.000270529176
 54       0.000050420417
 55       0.000314213632
 56      -0.000078947641
 57       0.000354342756
 58      -0.000292829955
 59       0.001682240603
 60      -0.000018179203
 61       0.000319267493
 Sym=     1a
 Ene= -1.12209139905406E+01
 Spin= Alpha
 Occup= 2.000000
  1      -0.000419644975
  2      -0.000067078379
  3      -0.000020595083
  4      -0.000010021105
  5      -0.000139208656
  6      -0.000028065198
  7      -0.000390353930
  8      -0.000098885490
  9       0.000984560172
 10      -0.000162897433
 11       0.001364925510
 12       0.994644100595
 13       0.024914310941
 14      -0.000105662744
 15      -0.000209451244
 16      -0.000053262473
 17      -0.016765217830
 18       0.001013990020
 19       0.001684732326
 20      -0.000121466468
 21      -0.055026331344
 22      -0.002200968443
 23      -0.000125500331
 24      -0.000280814117
 25       0.000053371616
 26       0.006848028931
 27       0.001171775411
 28       0.002775032052
 29      -0.000830730283
 30       0.004271218295
 31       0.000013370169
 32      -0.000113232579
 33      -0.000082007350
 34      -0.000001154637
 35      -0.000390490744
 36       0.000362377875
 37       0.000060293316
 38       0.000095606418
 39       0.000048674910
 40       0.000054985878
 41      -0.000041629412
 42      -0.000018481286
 43      -0.000012676960
 44      -0.000349615128
 45      -0.000031548405
 46      -0.000492121141
 47       0.000306767378
 48       0.000047154797
 49       0.000361733671
 50      -0.000004152991
 51      -0.000572667286
 52      -0.000104898581
 53       0.002729821994
 54      -0.000207044284
 55       0.002662720658
 56      -0.000116334544
 57      -0.000002773006
 58       0.000038363998
 59       0.000237880130
 60      -0.000009877724
 61      -0.000055181450
 Sym=     1a
 Ene= -1.12138375226401E+01
 Spin= Alpha
 Occup= 2.000000
  1      -0.996094490895
  2      -0.026172967952
  3      -0.000005983139
  4       0.000004908463
  5      -0.000117527057
  6       0.019250154842
  7      -0.000015743867
  8      -0.000728189370
  9       0.000892125937
 10      -0.000074160823
 11      -0.003305999460
 12      -0.000417791293
 13       0.000050207938
 14      -0.000153354065
 15       0.000013980601
 16       0.000000468759
 17      -0.000309381972
 18       0.000897972212
 19       0.000240181964
 20      -0.000144378492
 21      -0.000147690014
 22      -0.000008191326
 23      -0.000051675733
 24       0.000044534677
 25      -0.000043708560
 26       0.000594131442
 27      -0.000023018429
 28       0.000401743502
 29      -0.000167136480
 30      -0.001508823253
 31       0.000169630151
 32      -0.000049478951
 33       0.000088964525
 34      -0.000112889075
 35      -0.000686266319
 36       0.000413548835
 37      -0.000441820369
 38       0.000616473288
 39       0.014814355107
 40       0.000797264134
 41       0.000007769432
 42       0.000105284199
 43      -0.000106851616
 44      -0.004077229546
 45      -0.000103698306
 46      -0.002190369829
 47       0.001955932735
 48      -0.000031175259
 49      -0.003077371001
 50      -0.000074123173
 51      -0.003337334035
 52       0.000037378839
 53       0.000153682461
 54      -0.000077344176
 55      -0.000530559168
 56       0.000022722715
 57       0.000011709460
 58      -0.000035457166
 59      -0.000460187241
 60       0.000144060589
 61      -0.000020988184
 Sym=     1a
 Ene= -1.10232639718554E+00
 Spin= Alpha
 Occup= 2.000000
  1       0.070114759916
  2      -0.129663917387
  3      -0.001848638762
  4       0.032843052173
  5      -0.030269162234
  6      -0.124067736490
  7      -0.008349392772
  8       0.003907902576
  9      -0.011612166325
 10      -0.040464662797
 11      -0.000827217472
 12       0.074526116177
 13      -0.145240918370
 14       0.033949888637
 15       0.055032267266
 16      -0.011508205627
 17      -0.099356371339
 18      -0.000827096935
 19       0.002949204843
 20       0.001758489881
 21       0.109638807712
 22      -0.217267381234
 23       0.032084602474
 24      -0.027017422603
 25       0.023153203575
 26      -0.138197537520
 27       0.006279787421
 28      -0.000070886878
 29       0.003143539840
 30       0.125200385237
 31      -0.246907404452
 32      -0.000218864426
 33      -0.040849449319
 34       0.050806715148
 35      -0.163021748291
 36      -0.003985494391
 37      -0.003532032819
 38       0.003785663757
 39       0.114006405308
 40      -0.226384348983
 41      -0.060646243399
 42       0.002456781023
 43      -0.035306438952
 44      -0.136077489199
 45       0.003597046090
 46       0.004209092549
 47      -0.001378968865
 48      -0.032166563654
 49      -0.005723065376
 50      -0.035777520062
 51      -0.000146574000
 52      -0.039519780268
 53      -0.006806116393
 54      -0.032600235001
 55      -0.001335814632
 56      -0.052694217701
 57      -0.008245747624
 58      -0.057826657634
 59      -0.007737737350
 60      -0.052495428545
 61      -0.004057964576
 Sym=     1a
 Ene= -1.01966078446635E+00
 Spin= Alpha
 Occup= 2.000000
  1       0.098958504331
  2      -0.188399150459
  3       0.010943097706
  4       0.031162357599
  5      -0.023617005019
  6      -0.175685995171
  7       0.003127150826
  8       0.001042505644
  9      -0.001724564021
 10      -0.052042589801
 11      -0.005228608137
 12      -0.122638634670
 13       0.240515174418
 14      -0.025635766695
 15      -0.078554712563
 16       0.022849609338
 17       0.186669859195
 18      -0.004397798106
 19      -0.003226226525
 20       0.000935837129
 21      -0.116880420421
 22       0.233413718537
 23       0.056071072123
 24       0.075352531564
 25      -0.018087847000
 26       0.162498367278
 27       0.011641248198
 28      -0.004785420598
 29       0.003585896083
 30       0.020493948566
 31      -0.040672562657
 32       0.096732650331
 33      -0.004500350369
 34       0.054060103037
 35      -0.025127946443
 36       0.013512988819
 37       0.011621054837
 38      -0.001121729706
 39       0.101257397238
 40      -0.201129870016
 41      -0.013696301811
 42      -0.021983636156
 43       0.012824493030
 44      -0.149011872115
 45      -0.003860563301
 46      -0.005649836631
 47       0.003058789013
 48      -0.058729191264
 49      -0.008857698442
 50      -0.057211044186
 51      -0.005463432926
 52       0.061945661625
 53       0.005799380459
 54       0.070443569593
 55       0.016302647458
 56       0.069748390732
 57       0.011956081888
 58      -0.010013376129
 59       0.003685025173
 60      -0.062227229822
 61      -0.016595532086
 Sym=     1a
 Ene= -9.41725189384478E-01
 Spin= Alpha
 Occup= 2.000000
  1      -0.138608410118
  2       0.260384405351
  3       0.002777756064
  4       0.021099582096
  5      -0.015469499208
  6       0.294240121729
  7       0.003861666557
  8       0.001960642943
  9       0.004121625643
 10       0.099870129822
 11       0.021855406790
 12      -0.078964943706
 13       0.154138564777
 14      -0.002505871838
 15      -0.009779314189
 16      -0.000350401645
 17       0.136936825806
 18      -0.003821484362
 19       0.001892777160
 20      -0.004619381168
 21      -0.000995417349
 22       0.000939746288
 23       0.095335768683
 24       0.089005205622
 25      -0.015369578645
 26      -0.002059844434
 27       0.019901954790
 28       0.005719181707
 29       0.001478968042
 30       0.119148621887
 31      -0.236988735922
 32       0.033271945294
 33       0.013838619126
 34       0.019000840633
 35      -0.185452383900
 36       0.001788054011
 37       0.015815085987
 38      -0.007744866277
 39       0.029574873996
 40      -0.055689263897
 41      -0.044972217512
 42       0.113700302705
 43      -0.127753554348
 44      -0.073952450027
 45      -0.010850043090
 46       0.009008216271
 47      -0.015640439967
 48       0.100677983218
 49       0.028058237375
 50       0.099523487846
 51       0.024187478526
 52       0.060998404262
 53       0.018290114005
 54       0.057314987263
 55       0.018390375525
 56      -0.003817010249
 57      -0.005378085837
 58      -0.091185043436
 59      -0.025129256840
 60      -0.020592644707
 61      -0.007394534821
 Sym=     1a
 Ene= -8.12971452321584E-01
 Spin= Alpha
 Occup= 2.000000
  1       0.060995241362
  2      -0.115868920963
  3      -0.016081884459
  4      -0.065162137667
  5       0.050559667908
  6      -0.147244029554
  7       0.002943342042
  8      -0.015383407063
  9       0.017969721029
 10      -0.058085830369
 11      -0.022843545327
 12      -0.101867485733
 13       0.202694687582
 14       0.041497144780
 15       0.078898216200
 16      -0.023185025922
 17       0.190263879402
 18       0.015284632469
 19       0.031972912539
 20      -0.009745510341
 21       0.085838856814
 22      -0.175315955035
 23       0.077651842063
 24       0.150757855199
 25      -0.037989503725
 26      -0.162966296006
 27       0.019968457388
 28       0.050250728129
 29      -0.013417735667
 30       0.029227523420
 31      -0.060846877958
 32      -0.191871177269
 33       0.024047494867
 34      -0.101441307884
 35      -0.049916249642
 36      -0.044339087988
 37       0.006885378538
 38      -0.024800938846
 39      -0.092200801658
 40       0.184898545971
 41      -0.038733146116
 42      -0.069276110012
 43       0.046631889032
 44       0.179659560681
 45      -0.024689681630
 46      -0.012574579187
 47      -0.000190415171
 48      -0.063885951584
 49      -0.021475717354
 50      -0.060750875588
 51      -0.024370405165
 52       0.108801186535
 53       0.041703790284
 54       0.113311206290
 55       0.048414458512
 56      -0.108825298515
 57      -0.045243404548
 58      -0.038733454074
 59      -0.017382650856
 60       0.108525706449
 61       0.043727986312
 Sym=     1a
 Ene= -7.19145081350735E-01
 Spin= Alpha
 Occup= 2.000000
  1       0.019763620619
  2      -0.033833777783
  3      -0.097015899830
  4      -0.111030371798
  5       0.033926459744
  6      -0.059166837575
  7      -0.038692787657
  8      -0.040230000953
  9       0.008315477101
 10      -0.078314923179
 11      -0.042468260852
 12       0.038339956422
 13      -0.076415698622
 14       0.026233684540
 15      -0.196602735623
 16       0.064855613939
 17      -0.080486594857
 18       0.007201180519
 19      -0.063678225665
 20       0.024450807501
 21      -0.070003587200
 22       0.142033103092
 23       0.178138645248
 24      -0.024877366335
 25       0.027002574196
 26       0.141361887675
 27       0.058735028797
 28      -0.038132920603
 29       0.019009842148
 30       0.078435083107
 31      -0.160309583872
 32       0.006426607671
 33       0.031001048440
 34      -0.040799770144
 35      -0.157244059575
 36      -0.001786962903
 37       0.034845645221
 38      -0.034347821889
 39      -0.073806440653
 40       0.150169297315
 41      -0.154284490634
 42      -0.000495605958
 43      -0.106089268492
 44       0.156087852041
 45      -0.067391720048
 46      -0.008103311789
 47      -0.041040125983
 48      -0.001097249249
 49       0.001668704056
 50      -0.054517921953
 51      -0.029484140822
 52      -0.142297193946
 53      -0.087128814977
 54      -0.039773629593
 55      -0.019521281951
 56       0.140178599340
 57       0.067498257542
 58      -0.103048367415
 59      -0.041924714651
 60       0.151700119698
 61       0.076416277831
 Sym=     1a
 Ene= -6.68421733095952E-01
 Spin= Alpha
 Occup= 2.000000
  1       0.017659446241
  2      -0.032906546852
  3       0.085742336093
  4      -0.068921310780
  5       0.113893416486
  6      -0.051890639213
  7       0.044432467782
  8      -0.023981147882
  9       0.049410046933
 10       0.015646243227
 11       0.010230647819
 12       0.021798755783
 13      -0.043329823206
 14      -0.188788714163
 15      -0.083213279543
 16       0.008483049793
 17      -0.061118771736
 18      -0.072402669964
 19      -0.020434611455
 20      -0.003297679867
 21      -0.024541534229
 22       0.052164587251
 23      -0.099668427334
 24       0.137790970335
 25      -0.081439384772
 26       0.046444379799
 27      -0.031987674041
 28       0.043629012683
 29      -0.028795562756
 30       0.021214108756
 31      -0.040748193671
 32       0.063794397085
 33       0.233543031638
 34      -0.167256265628
 35      -0.056678939563
 36       0.023722495937
 37       0.097523032005
 38      -0.068006077863
 39      -0.022906296862
 40       0.047740835908
 41       0.167789985108
 42       0.093380157672
 43       0.022948651894
 44       0.033803537519
 45       0.052347697800
 46       0.037891325779
 47      -0.000732470876
 48      -0.099058683545
 49      -0.059100386603
 50      -0.025871794458
 51      -0.015185512242
 52      -0.002312697665
 53      -0.007108257389
 54      -0.134486222088
 55      -0.084485497305
 56      -0.080154016198
 57      -0.058474136714
 58      -0.188138146162
 59      -0.113927342856
 60      -0.084258549049
 61      -0.058772480858
 Sym=     1a
 Ene= -6.01564993785570E-01
 Spin= Alpha
 Occup= 2.000000
  1      -0.010999451335
  2       0.021394653825
  3       0.153923072548
  4       0.026861277080
  5       0.026143857155
  6       0.030387395307
  7       0.066022750225
  8       0.013856338476
  9       0.003662008102
 10       0.089198074900
 11       0.060505134810
 12       0.008018937420
 13      -0.017776967051
 14       0.268699691160
 15      -0.099658912168
 16       0.001944798343
 17      -0.031288780761
 18       0.123412511956
 19      -0.047337303617
 20      -0.001454118631
 21       0.016444717474
 22      -0.038047454305
 23       0.189098777515
 24      -0.078461145345
 25       0.001604887562
 26      -0.025723320703
 27       0.066317508734
 28      -0.019234545942
 29      -0.011892684326
 30      -0.009732307530
 31       0.022242337086
 32      -0.161881379000
 33       0.035361250797
 34      -0.156763085475
 35      -0.013447634762
 36      -0.049305296484
 37      -0.007514042539
 38      -0.042832955549
 39      -0.003381872239
 40       0.009072445924
 41       0.241712434216
 42      -0.007356347174
 43       0.129842822706
 44       0.004271727975
 45       0.109197291481
 46       0.006168013832
 47       0.047897933253
 48      -0.059135873279
 49      -0.050568535722
 50       0.014137321479
 51       0.004545403432
 52      -0.142825541297
 53      -0.092120399821
 54       0.148207383447
 55       0.103669322197
 56       0.090185610736
 57       0.072689352026
 58      -0.034811450660
 59      -0.034113006418
 60      -0.137189382710
 61      -0.094887988333
 Sym=     1a
 Ene= -5.84426613069321E-01
 Spin= Alpha
 Occup= 2.000000
  1      -0.007197019028
  2       0.009052528042
  3      -0.013652458796
  4       0.182403175038
  5      -0.119593408248
  6       0.038117020758
  7      -0.008867866578
  8       0.076292260590
  9      -0.049420775470
 10       0.015668941744
 11       0.008890902165
 12      -0.007113804130
 13       0.019089597249
 14      -0.143199621887
 15      -0.282524908128
 16       0.094452001154
 17      -0.017164195229
 18      -0.047433845294
 19      -0.102024804731
 20       0.036882270126
 21      -0.007568235360
 22       0.018158246126
 23       0.129350449152
 24       0.305640868901
 25      -0.060049338896
 26      -0.004545399633
 27       0.032677226160
 28       0.110895671833
 29      -0.020126665437
 30      -0.011257037469
 31       0.022682179496
 32      -0.206760293386
 33      -0.049667682788
 34       0.001843198159
 35       0.023197465614
 36      -0.084646398750
 37      -0.021607700557
 38       0.007689486519
 39       0.023902566406
 40      -0.048507046607
 41      -0.019403959244
 42      -0.139887861076
 43       0.161304162220
 44      -0.083193471126
 45      -0.013486675147
 46      -0.054078048257
 47       0.065276559476
 48       0.075319416742
 49       0.055130588114
 50       0.069943437298
 51       0.052957195615
 52      -0.099669933226
 53      -0.072262300009
 54      -0.108792938214
 55      -0.085608839748
 56      -0.093186255754
 57      -0.069298561334
 58       0.073425520264
 59       0.050638969777
 60       0.010039925579
 61       0.010545541828
 Sym=     1a
 Ene= -5.67792708149361E-01
 Spin= Alpha
 Occup= 2.000000
  1      -0.000439754712
  2       0.001812462287
  3       0.138114468829
  4      -0.229809102876
  5      -0.314992240850
  6       0.000995001358
  7       0.069332080504
  8      -0.118291621071
  9      -0.157953501234
 10       0.152004088107
 11       0.120098966004
 12      -0.004050129493
 13       0.007717099517
 14      -0.022566342693
 15      -0.027166367343
 16      -0.021945139217
 17       0.010756036763
 18      -0.004457853818
 19      -0.006838011045
 20      -0.019080925055
 21       0.001497692408
 22      -0.004030099632
 23      -0.024925262719
 24       0.031660486510
 25      -0.052970078546
 26      -0.004702814868
 27      -0.011983772763
 28       0.016776328484
 29      -0.028401278354
 30      -0.003114264272
 31       0.004248085813
 32       0.033137095855
 33      -0.045250781018
 34      -0.048834057173
 35       0.019224595324
 36       0.018342315755
 37      -0.023425058626
 38      -0.039388583416
 39       0.006344843481
 40      -0.011058277040
 41       0.033355403998
 42      -0.105954065327
 43      -0.079448913786
 44      -0.029680131096
 45       0.011571259147
 46      -0.050612342498
 47      -0.044378386685
 48       0.119903275993
 49       0.091955766936
 50      -0.249513599217
 51      -0.194623908410
 52      -0.006919751553
 53      -0.015846381873
 54      -0.011143845063
 55      -0.011587052455
 56      -0.038586621937
 57      -0.027677878133
 58       0.002509591456
 59       0.004676417421
 60       0.013608570989
 61       0.011170413911
 Sym=     1a
 Ene= -5.43378130394416E-01
 Spin= Alpha
 Occup= 2.000000
  1       0.006397160308
  2      -0.016985643878
  3       0.305186277105
  4       0.071170988233
  5       0.077984516210
  6       0.009852755713
  7       0.172552644082
  8       0.032179345814
  9       0.056342972916
 10       0.181864549255
 11       0.140588017630
 12       0.014047736153
 13      -0.030921912435
 14      -0.164164326363
 15       0.069071034153
 16      -0.031465675569
 17      -0.018159330915
 18      -0.103246626581
 19       0.031427756319
 20      -0.022895910532
 21      -0.007889560065
 22       0.014716152638
 23       0.141121480566
 24      -0.088621781469
 25       0.040091668941
 26       0.013477582945
 27       0.087298942005
 28      -0.064915688889
 29       0.025760706078
 30       0.034973888492
 31      -0.077787007520
 32      -0.072891513552
 33      -0.102896028785
 34       0.020979926569
 35      -0.071310400705
 36      -0.017271553745
 37      -0.023285256916
 38      -0.006780984221
 39      -0.007976111881
 40       0.016188393676
 41      -0.103542476454
 42      -0.106882270374
 43       0.001913223170
 44       0.014301792642
 45      -0.071215857825
 46      -0.070440956901
 47       0.000147686824
 48      -0.175631848289
 49      -0.134284374171
 50       0.032425454924
 51       0.026058705504
 52       0.106206782987
 53       0.082431518587
 54      -0.124791291803
 55      -0.088324590214
 56       0.124862088664
 57       0.085171745717
 58       0.031388245361
 59       0.040804731033
 60       0.107101065196
 61       0.069760769929
 Sym=     1a
 Ene= -5.07552628072882E-01
 Spin= Alpha
 Occup= 2.000000
  1       0.017143347576
  2      -0.038082946896