
                                 *****************
                                 * O   R   C   A *
                                 *****************

                                            #,                                       
                                            ###                                      
                                            ####                                     
                                            #####                                    
                                            ######                                   
                                           ########,                                 
                                     ,,################,,,,,                         
                               ,,#################################,,                 
                          ,,##########################################,,             
                       ,#########################################, ''#####,          
                    ,#############################################,,   '####,        
                  ,##################################################,,,,####,       
                ,###########''''           ''''###############################       
              ,#####''   ,,,,##########,,,,          '''####'''          '####       
            ,##' ,,,,###########################,,,                        '##       
           ' ,,###''''                  '''############,,,                           
         ,,##''                                '''############,,,,        ,,,,,,###''
      ,#''                                            '''#######################'''  
     '                                                          ''''####''''         
             ,#######,   #######,   ,#######,      ##                                
            ,#'     '#,  ##    ##  ,#'     '#,    #''#        ,####,    ,#,          
            ##       ##  ##   ,#'  ##            #'  '#       #'       ,# #          
            ##       ##  #######   ##           ,######,      #####,      #          
            '#,     ,#'  ##    ##  '#,     ,#' ,#      #,     #,   #      #          
             '#######'   ##     ##  '#######'  #'      '#     '####' #    #          



                #########################################################
                #                        -***-                          #
                #          Department of theory and spectroscopy        #
                #                                                       #
                #                      Frank Neese                      #
                #                                                       #
                #     Directorship, Architecture, Infrastructure        #
                #                    SHARK, DRIVERS                     #
                #        Core code/Algorithms in most modules           #
                #                                                       #
                #        Max Planck Institute fuer Kohlenforschung      #
                #                Kaiser Wilhelm Platz 1                 #
                #                 D-45470 Muelheim/Ruhr                 #
                #                      Germany                          #
                #                                                       #
                #                  All rights reserved                  #
                #                        -***-                          #
                #########################################################


                         Program Version 6.1.0  -  RELEASE   -
                                (GIT: $679e74b$)
                          ($2025-06-10 18:02:51 +0200$)


 With contributions from (in alphabetic order):
[Max-Planck-Institut fuer Kohlenforschung]                               
  Daniel Aravena         : Magnetic Suceptibility                        
  Michael Atanasov       : Ab Initio Ligand Field Theory (pilot matlab implementation)
  Alexander A. Auer      : GIAO ZORA, VPT2 properties, NMR spectrum      
  Ute Becker             : All parallelization in ORCA, NUMFREQ, NUMCALC 
  Giovanni Bistoni       : ED, misc. LED, open-shell LED, HFLD           
  Dmytro Bykov           : pre 5.0 version of the SCF Hessian            
  Marcos Casanova-Páez   : Triplet and SCS-CIS(D). UHF-(DLPNO)-IP/EA/STEOM-CCSD. UHF-CVS-IP/STEOM-CCSD   
  Vijay G. Chilkuri      : MRCI spin determinant printing, contributions to CSF-ICE 
  Pauline Colinet        : FMM embedding                                 
  Dipayan Datta          : RHF DLPNO-CCSD density                        
  Achintya Kumar Dutta   : EOM-CC, STEOM-CC                              
  Nicolas Foglia         : Exact transition moments, OPA infrastructure, MCD improvements    
  Dmitry Ganyushin       : Spin-Orbit,Spin-Spin,Magnetic field MRCI      
  Miquel Garcia-Rates    : C-PCM and meta-GGA Hessian, CCSD/C-PCM, Gaussian charge scheme 
  Tiago L. C. Gouveia    : GS-ROHF, GS-ROCIS                             
  Yang Guo               : DLPNO-NEVPT2, F12-NEVPT2, CIM, IAO-localization        
  Andreas Hansen         : Spin unrestricted coupled pair/coupled cluster methods 
  Ingolf Harden          : AUTO-CI MPn and infrastructure                
  Benjamin Helmich-Paris : MC-RPA, TRAH-(SCF,CASSCF), AVAS, COSX integrals, SCF dyn. polar., MC-PDFT, srDFT 
  Lee Huntington         : MR-EOM, pCC                                   
  Robert Izsak           : Overlap fitted RIJCOSX, COSX-SCS-MP3, EOM     
  Riya Kayal             : Wick's Theorem for AUTO-CI, AUTO-CI UHF-CCSDT 
  Emily Kempfer          : AUTO-CI RHF CISDT and CCSDT, approximate NEVPT4
  Christian Kollmar      : KDIIS, OOCD, Brueckner-CCSD(T), CCSD density, CASPT2, CASPT2-K, improved NEVPT2 
  Axel Koslowski         : Symmetry handling                             
  Simone Kossmann        : meta-GGA functionals, TD-DFT gradient, OOMP2, (MP2 Hessian; deprecated post 5.0) 
  Lucas Lang             : DCDCAS, Hyperfine gauge corrections, ICE-SOC+SSC
  Marvin Lechner         : AUTO-CI (C++ implementation), FIC-MRCC        
  Spencer Leger          : CASSCF response                               
  Dagmar Lenk            : GEPOL surface, SMD, ORCA-2-JSON               
  Dimitrios Liakos       : Extrapolation schemes; Compound Job, Property file
  Dimitrios Manganas     : Further ROCIS development; embedding schemes. LFT, Crystal Embedding 
  Dimitrios Pantazis     : SARC Basis sets                               
  Anastasios Papadopoulos: AUTO-CI, single reference methods and gradients 
  Taras Petrenko         : pre 6.0 DFT Hessian and TD-DFT gradient,  ECA, NRVS 
  Petra Pikulova         : Analytic Raman intensities                    
  Peter Pinski           : DLPNO-MP2, DLPNO-MP2 Gradient                 
  Shashank Vittal Rao    : ES-AILFT, MagRelax                            
  Christoph Reimann      : Effective Core Potentials                     
  Marius Retegan         : Local ZFS, SOC                                
  Christoph Riplinger    : Optimizer, TS searches, QM/MM, DLPNO-CCSD(T), (RO)-DLPNO pert. Triples 
  Michael Roemelt        : Original ROCIS implementation, recursive CI coupling coefficients
  Masaaki Saitow         : Open-shell DLPNO-CCSD energy and density      
  Barbara Sandhoefer     : DKH picture change effects                    
  Yorick L. A. Schmerwitz: GMF and freeze-and-release deltaSCF, NEB S-IDPP initial path                    
  Kantharuban Sivalingam : CASSCF convergence/infrastructure, NEVPT2, NEVPT3, NEVPT4(SD), FIC-MRCI and CEPA variants
  Bernardo de Souza      : ESD, SOC TD-DFT                               
  Georgi L. Stoychev     : AutoAux, RI-MP2 NMR, DLPNO-MP2 response, X2C  
  Van Anh Tran           : RI-MP2 g-tensors                              
  Willem Van den Heuvel  : Paramagnetic NMR                              
  Zikuan Wang            : NOTCH, Electric field optimization            
  Frank Wennmohs         : Technical directorship and infrastructure     
  Hang Xu                : AUTO-CI-Response properties                   
                                                                         
[FACCTs GmbH]                                                            
  Markus Bursch, Nicolas Foglia, Miquel Garcia-Rates, Ingolf Harden, Hagen Neugebauer, Anastasios Papadopoulos, 
  Christoph Riplinger, Bernardo de Souza, Georgi L. Stoychev                                                    
                                                                 
  APM, various basis sets, CI-OPT, improved COSX, DLPNO-Multilevel,           
  DOCKER, DRACO, updates on ESD, Fragmentator, GOAT, IRC, LR-CPCM, L-BFGS, MBIS, meta-GGA TD-DFT gradient, ML-optimized integration grids, 
  MM, NACMEs, nearIR, NEB, NEB-TS, NL-DFT gradient (VV10), 2- and 3-layer-ONIOM, interface openCOSMO-RS, QMMM,   
  Crystal-QMMM, RESP, rigid body optimization, SF, symmetry and pop. for TD-DFT, various functionals, SOLVATOR                                   
                                                                         
[Other institutions]                                                     
  V. Asgeirsson          : NEB                                           
  Christoph Bannwarth    : sTDA-DFT, sTD-DFT, PBEh-3c, B97-3c, D3        
  Giovanni Bistoni       : ETS/NOCV, ADLD/ADEX, COVALED                  
  Martin Brehm           : Molecular dynamics                            
  Ronald Cardenas        : ETS/NOCV                                      
  Martina Colucci        : COVALED                                       
  Sebastian Ehlert       : rSCAN, r2SCAN, r2SCAN-3c, D4, dhf basis sets  
  Marvin Friede          : D4 for Fr, Ra, Ac-Lr                          
  Lars Goerigk           : TD-DFT with DH, B97 family of functionals     
  Stefan Grimme          : VdW corrections, initial TS optimization, DFT functionals, gCP, sTDA/sTD-DF 
  Waldemar Hujo          : DFT-NL                                        
  H. Jonsson             : NEB                                           
  Holger Kruse           : gCP                                           
  Marcel Mueller         : wB97X-3c, vDZP basis set                      
  Hagen Neugebauer       : wr2SCAN, Native XTB                           
  Gianluca Regni         : ADLD/ADEX                                     
  Tobias Risthaus        : pre 6.0 range-separated hybrid DFT and stability analysis
  Lukas Wittmann         : regularized MP2, r2SCAN double-hybrids, wr2SCAN        
                                                                         
We gratefully acknowledge several colleagues who have allowed us to      
interface, adapt or use parts of their codes:                            
  Ed Valeev, F. Pavosevic, A. Kumar             : LibInt (2-el integral package), F12 methods 
  Garnet Chan, S. Sharma, J. Yang, R. Olivares  : DMRG                   
  Ulf Ekstrom                                   : XCFun DFT Library      
  Mihaly Kallay                                 : mrcc  (arbitrary order and MRCC methods)
  Frank Weinhold                                : gennbo (NPA and NBO analysis)           
  Simon Mueller                                 : openCOSMO-RS                            
  Christopher J. Cramer and Donald G. Truhlar   : smd solvation model                     
  S Lehtola, MJT Oliveira, MAL Marques          : LibXC Library                           
  Liviu Ungur et al                             : ANISO software                          


 Your calculation uses the libint2 library for the computation of 2-el integrals
 For citations please refer to: http://libint.valeyev.net

 Your ORCA version has been built with support for libXC version: 7.0.0
 For citations please refer to: https://libxc.gitlab.io

 This ORCA versions uses:
   CBLAS   interface :  Fast vector & matrix operations
   LAPACKE interface :  Fast linear algebra routines
   SCALAPACK package :  Parallel linear algebra routines
   Shared memory     :  Shared parallel matrices
   BLAS/LAPACK       :  OpenBLAS 0.3.29  USE64BITINT DYNAMIC_ARCH NO_AFFINITY Zen SINGLE_THREADED
        Core in use  :  Zen
   Copyright (c) 2011-2014, The OpenBLAS Project


  ***********************************
  * Starting time: Sun Apr  5 13:01:53 2026
  * Host name:     QC1
  * Process ID:    9937
  * Working dir.:  /home/user/QC/h-shift/split_2
  ***********************************

NOTE: MaxCore=1200 MB was set to SCF,MP2,MDCI,CIPSI,MRCI,RASCI and CIS
      => If you want to overwrite this, your respective input block should be placed after the MaxCore statement
================================================================================

----- Orbital basis set information -----
Your calculation utilizes the basis: 6-31G
   H-He, Li-Ne : W. J. Hehre, R. Ditchfield and J.A. Pople, J. Chem. Phys. 56, 2257 (1972).
                 Note: He and Ne are unpublished basis sets taken from the Gaussian program.
                 Note: Li and B from J. D. Dill and J. A. Pople, J. Chem. Phys. 62, 2921 (1975).
   Na - Ar     : M. M. Francl, W. J. Pietro, W. J. Hehre, J. S. Binkley, M. S. Gordon, 
                 D. J. DeFrees and J. A. Pople, J. Chem. Phys. 77, 3654 (1982).
   K - Zn      : V. A. Rassolov, J. A. Pople, M. A. Ratner, and T. L. Windus, J. Chem. Phys. 109, 1223 (1998).

================================================================================
                                        WARNINGS
                       Please study these warnings very carefully!
================================================================================


================================================================================
                                       INPUT FILE
================================================================================
NAME = h-shift_052.inp
|  1> ! HF 6-31G
|  2> %maxcore 1200
|  3> %pal nprocs 8 end
|  4> * xyz 0 1
|  5> C   -0.17127100   0.01791300   0.01544100
|  6> H    1.70451100  -0.04655200   0.12800700
|  7> C    2.31014900   0.01788200   1.05378200
|  8> C    1.86773100  -1.15442100   1.84602900
|  9> C    0.59595300  -1.58696100   1.78197100
| 10> C   -0.28830100  -1.11620500   0.73458600
| 11> H   -0.54203700   0.07393100  -0.98274200
| 12> H    0.12727000   0.95148800   0.44085600
| 13> H    1.96581400   0.97419000   1.43406600
| 14> H    3.38622500   0.05973000   0.94757300
| 15> H    2.60664200  -1.79039400   2.29560100
| 16> H    0.31795300  -2.48830200   2.29094100
| 17> H   -0.99869500  -1.84417100   0.39676100
| 18> *
| 19> 
| 20>                          ****END OF INPUT****
================================================================================

                       ****************************
                       * Single Point Calculation *
                       ****************************

---------------------------------
CARTESIAN COORDINATES (ANGSTROEM)
---------------------------------
  C     -0.171271    0.017913    0.015441
  H      1.704511   -0.046552    0.128007
  C      2.310149    0.017882    1.053782
  C      1.867731   -1.154421    1.846029
  C      0.595953   -1.586961    1.781971
  C     -0.288301   -1.116205    0.734586
  H     -0.542037    0.073931   -0.982742
  H      0.127270    0.951488    0.440856
  H      1.965814    0.974190    1.434066
  H      3.386225    0.059730    0.947573
  H      2.606642   -1.790394    2.295601
  H      0.317953   -2.488302    2.290941
  H     -0.998695   -1.844171    0.396761

----------------------------
CARTESIAN COORDINATES (A.U.)
----------------------------
  NO LB      ZA    FRAG     MASS         X           Y           Z
   0 C     6.0000    0    12.011   -0.323655    0.033851    0.029179
   1 H     1.0000    0     1.008    3.221059   -0.087971    0.241898
   2 C     6.0000    0    12.011    4.365549    0.033792    1.991359
   3 C     6.0000    0    12.011    3.529500   -2.181540    3.488489
   4 C     6.0000    0    12.011    1.126188   -2.998922    3.367437
   5 C     6.0000    0    12.011   -0.544810   -2.109322    1.388166
   6 H     1.0000    0     1.008   -1.024301    0.139709   -1.857113
   7 H     1.0000    0     1.008    0.240505    1.798052    0.833097
   8 H     1.0000    0     1.008    3.714850    1.840952    2.709992
   9 H     1.0000    0     1.008    6.399038    0.112873    1.790653
  10 H     1.0000    0     1.008    4.925840   -3.383354    4.338057
  11 H     1.0000    0     1.008    0.600844   -4.702209    4.329251
  12 H     1.0000    0     1.008   -1.887260   -3.484978    0.749770

--------------------------------
INTERNAL COORDINATES (ANGSTROEM)
--------------------------------
 C      0   0   0     0.000000000000     0.00000000     0.00000000
 H      1   0   0     1.880261937099     0.00000000     0.00000000
 C      2   1   0     1.108155439469   126.38773516     0.00000000
 C      3   2   1     1.482458538895   103.73176286    60.97364664
 C      4   3   2     1.344847039722   120.73732273   326.54934611
 C      1   2   3     1.347994506609    91.47994052   296.94359382
 H      1   2   3     1.066290178408   113.87432500   171.97739499
 H      1   2   3     1.068488152265    74.17981697    61.09327456
 H      3   2   1     1.085222329177    99.82130864   302.56574773
 H      3   2   1     1.082114210498   117.62812207   185.66805723
 H      4   3   2     1.073576315794   119.13292881   132.75109566
 H      5   4   3     1.071797583120   119.54730452   174.39227395
 H      6   1   2     1.071783496335   117.44084164   223.37119174

---------------------------
INTERNAL COORDINATES (A.U.)
---------------------------
 C      0   0   0     0.000000000000     0.00000000     0.00000000
 H      1   0   0     3.553180121154     0.00000000     0.00000000
 C      2   1   0     2.094110294412   126.38773516     0.00000000
 C      3   2   1     2.801440643404   103.73176286    60.97364664
 C      4   3   2     2.541392597089   120.73732273   326.54934611
 C      1   2   3     2.547340447522    91.47994052   296.94359382
 H      1   2   3     2.014996416481   113.87432500   171.97739499
 H      1   2   3     2.019149985121    74.17981697    61.09327456
 H      3   2   1     2.050772996561    99.82130864   302.56574773
 H      3   2   1     2.044899503465   117.62812207   185.66805723
 H      4   3   2     2.028765220715   119.13292881   132.75109566
 H      5   4   3     2.025403903095   119.54730452   174.39227395
 H      6   1   2     2.025377282931   117.44084164   223.37119174

---------------------
BASIS SET INFORMATION
---------------------
There are 2 groups of distinct atoms

 Group   1 Type C   : 10s4p contracted to 3s2p pattern {631/31}
 Group   2 Type H   : 4s contracted to 2s pattern {31}

Atom   0C    basis set group =>   1
Atom   1H    basis set group =>   2
Atom   2C    basis set group =>   1
Atom   3C    basis set group =>   1
Atom   4C    basis set group =>   1
Atom   5C    basis set group =>   1
Atom   6H    basis set group =>   2
Atom   7H    basis set group =>   2
Atom   8H    basis set group =>   2
Atom   9H    basis set group =>   2
Atom  10H    basis set group =>   2
Atom  11H    basis set group =>   2
Atom  12H    basis set group =>   2


           ************************************************************
           *        Program running with 8 parallel MPI-processes     *
           *              working on a common directory               *
           ************************************************************
------------------------------------------------------------------------------
                             ORCA STARTUP CALCULATIONS
------------------------------------------------------------------------------
------------------------------------------------------------------------------
                   ___                                                        
                  /   \      - P O W E R E D   B Y -                         
                 /     \                                                     
                 |  |  |   _    _      __       _____    __    __             
                 |  |  |  | |  | |    /  \     |  _  \  |  |  /  |          
                  \  \/   | |  | |   /    \    | | | |  |  | /  /          
                 / \  \   | |__| |  /  /\  \   | |_| |  |  |/  /          
                |  |  |   |  __  | /  /__\  \  |    /   |      \           
                |  |  |   | |  | | |   __   |  |    \   |  |\   \          
                \     /   | |  | | |  |  |  |  | |\  \  |  | \   \       
                 \___/    |_|  |_| |__|  |__|  |_| \__\ |__|  \__/        
                                                                              
                      - O R C A' S   B I G   F R I E N D -                    
                                      &                                       
                       - I N T E G R A L  F E E D E R -                       
                                                                              
 v1 FN, 2020, v2 2021, v3 2022-2024                                           
------------------------------------------------------------------------------


----------------------
SHARK INTEGRAL PACKAGE
----------------------

Number of atoms                             ...     13
Number of basis functions                   ...     61
Number of shells                            ...     41
Maximum angular momentum                    ...      1
Integral batch strategy                     ... SHARK/LIBINT Hybrid
RI-J (if used) integral strategy            ... SPLIT-RIJ (Revised 2003 algorithm where possible)
Printlevel                                  ...      1
Contraction scheme used                     ... SEGMENTED contraction
Prescreening option                         ... SCHWARTZ
   Thresh                                   ... 1.000e-10
   Tcut                                     ... 1.000e-11
   Tpresel                                  ... 1.000e-11 
Coulomb Range Separation                    ... NOT USED
Exchange Range Separation                   ... NOT USED
Multipole approximations                    ... NOT USED
Finite Nucleus Model                        ... NOT USED
CABS basis                                  ... NOT available
Auxiliary Coulomb fitting basis             ... NOT available
Auxiliary J/K fitting basis                 ... NOT available
Auxiliary Correlation fitting basis         ... NOT available
Auxiliary 'external' fitting basis          ... NOT available

Checking pre-screening integrals            ... done (  0.0 sec) Dimension = 41
   => SHARK Basis and OBASIS are compatible. Storing Pre-screening
Shell pair information
Shell pair cut-off parameter TPreSel        ...   1.0e-11
Total number of shell pairs                 ...       861
Shell pairs after pre-screening             ...       848
Total number of primitive shell pairs       ...      5382
Primitive shell pairs kept                  ...      3786
          la=0 lb=0:    483 shell pairs
          la=1 lb=0:    310 shell pairs
          la=1 lb=1:     55 shell pairs

Checking whether 4 symmetric matrices of dimension 61 fit in memory
:Max Core in MB      =   1200.00
 MB in use           =      2.05
 MB left             =   1197.95
 MB needed           =      0.06
 Data fit in memory  = YES
Calculating Nuclear repulsion               ... done (  0.0 sec) ENN=    164.505068172398 Eh

Diagonalization of the overlap matrix:
Smallest eigenvalue                        ... 3.477e-03
Time for diagonalization                   ...    0.001 sec
Threshold for overlap eigenvalues          ... 1.000e-07
Number of eigenvalues below threshold      ... 0
Time for construction of square roots      ...    0.000 sec
Total time needed                          ...    0.001 sec

-------------------
DFT GRID GENERATION
-------------------

General Integration Accuracy     IntAcc      ... 4.388
Radial Grid Type                 RadialGrid  ... OptM3 with GC (2021)
Angular Grid (max. ang.)         AngularGrid ... 4 (Lebedev-302)
Angular grid pruning method      GridPruning ... 4 (adaptive)
Weight generation scheme         WeightScheme... mBecke (2022)
Basis function cutoff            BFCut       ... 1.0000e-10
Integration weight cutoff        WCut        ... 1.0000e-14
Partially contracted basis set               ... off
Rotationally invariant grid construction     ... off
Angular grids for H and He will be reduced by one unit

Total number of grid points                  ...    55950
Total number of batches                      ...      881
Average number of points per batch           ...       63
Average number of grid points per atom       ...     4304
Grids setup in   0.2 sec
Initializing property integral containers    ... done (  0.0 sec)

SHARK setup successfully completed in   0.3 seconds

Maximum memory used throughout the entire STARTUP-calculation: 11.8 MB


           ************************************************************
           *        Program running with 8 parallel MPI-processes     *
           *              working on a common directory               *
           ************************************************************
-------------------------------------------------------------------------------
                                 ORCA GUESS
                   Start orbitals & Density for SCF / CASSCF
-------------------------------------------------------------------------------

------------
SCF SETTINGS
------------
Hamiltonian:
 Ab initio Hamiltonian  Method          .... Hartree-Fock(GTOs)


General Settings:
 Integral files         IntName         .... h-shift_052
 Hartree-Fock type      HFTyp           .... RHF
 Total Charge           Charge          ....    0
 Multiplicity           Mult            ....    1
 Number of Electrons    NEL             ....   38
 Basis Dimension        Dim             ....   61
 Nuclear Repulsion      ENuc            ....    164.5050681724 Eh

Convergence Acceleration:
 AO-DIIS                CNVDIIS         .... on
   Start iteration      DIISMaxIt       ....    12
   Startup error        DIISStart       ....  0.200000
   # of expansion vecs  DIISMaxEq       ....     5
   Bias factor          DIISBfac        ....   1.050
   Max. coefficient     DIISMaxC        ....  10.000
 MO-DIIS                CNVKDIIS        .... off
 Trust-Rad. Augm. Hess. CNVTRAH         .... auto
   Auto Start mean grad. ratio tolernc. ....  1.125000
   Auto Start start iteration           ....    50
   Auto Start num. interpolation iter.  ....    10
   Max. Number of Micro iterations      ....    24
   Max. Number of Macro iterations      .... Maxiter - #DIIS iter
   Number of Davidson start vectors     ....     2
   Converg. threshold    (grad. norm)   ....   5.000e-05
   Grad. Scal. Fac. for Micro threshold ....   0.100
   Minimum threshold for Micro iter.    ....   1.000e-02
   NR start threshold (gradient norm)   ....   1.000e-04
   Initial trust radius                 ....   0.400
   Minimum AH scaling param. (alpha)    ....   1.000
   Maximum AH scaling param. (alpha)    .... 1000.000
   Quad. conv. algorithm                .... NR
   White noise on init. David. guess    .... on
   Maximum white noise                  ....   0.010
   Pseudo random numbers                .... off
   Inactive MOs                         .... canonical
   Orbital update algorithm             .... Taylor
   Preconditioner                       .... Diag
   Full preconditioner red. dimension   ....   250
 SOSCF                 CNVSOSCF           .... on
   Start iteration     SOSCFMaxIt         ....   150
   Startup grad/error  SOSCFStart         ....  0.003300
   Hessian update      SOSCFHessUp        .... L-BFGS
   Autom. constraints  SOSCFAutoConstrain .... off
 Level Shifting         CNVShift        .... on
   Level shift para.    LevelShift      ....    0.2500
   Turn off err/grad.   ShiftErr        ....    0.0010
 Zerner damping         CNVZerner       .... off
 Static damping         CNVDamp         .... on
   Fraction old density DampFac         ....    0.7000
   Max. Damping (<1)    DampMax         ....    0.9800
   Min. Damping (>=0)   DampMin         ....    0.0000
   Turn off err/grad.   DampErr         ....    0.1000

SCF Procedure:
 Maximum # iterations   MaxIter         ....   125
 SCF integral mode      SCFMode         .... Direct
   Integral package                     .... SHARK and LIBINT hybrid scheme
 Reset frequency        DirectResetFreq ....    20
 Integral Threshold     Thresh          ....  1.000e-10 Eh
 Primitive CutOff       TCut            ....  1.000e-11 Eh

Convergence Tolerance:
 Convergence Check Mode ConvCheckMode   .... Total+1el-Energy
 Convergence forced     ConvForced      .... 0
 Energy Change          TolE            ....  1.000e-06 Eh
 1-El. energy change                    ....  1.000e-03 Eh
 Orbital Gradient       TolG            ....  5.000e-05
 Orbital Rotation angle TolX            ....  5.000e-05
 DIIS Error             TolErr          ....  1.000e-06

------------------------------
INITIAL GUESS: MODEL POTENTIAL
------------------------------
Loading Hartree-Fock densities                     ... done
Calculating cut-offs                               ... done
Initializing the effective Hamiltonian             ... done
Setting up the integral package (SHARK)            ... done
Starting the Coulomb interaction                   ... done (   0.0 sec)
Making the grid                                    ... done (   0.1 sec)
Mapping shells                                     ... done
Starting the XC term evaluation                    ... done (   0.0 sec)
Transforming the Hamiltonian                       ... done (   0.0 sec)
Diagonalizing the Hamiltonian                      ... done (   0.0 sec)
Back transforming the eigenvectors                 ... done (   0.0 sec)
Now organizing SCF variables                       ... done
                      ------------------
                      INITIAL GUESS DONE (   0.1 sec)
                      ------------------
             **** ENERGY FILE WAS UPDATED (h-shift_052.en.tmp) ****
Finished Guess after   0.3 sec
Maximum memory used throughout the entire GUESS-calculation: 4.2 MB


           ************************************************************
           *        Program running with 8 parallel MPI-processes     *
           *              working on a common directory               *
           ************************************************************

-------------------------------------------------------------------------------------------
                                      ORCA LEAN-SCF
                              memory conserving SCF solver
-------------------------------------------------------------------------------------------

----------------------------------------D-I-I-S--------------------------------------------
Iteration    Energy (Eh)           Delta-E    RMSDP     MaxDP     DIISErr   Damp  Time(sec)
-------------------------------------------------------------------------------------------
               ***  Starting incremental Fock matrix formation  ***
    1    -193.6083078722762707     0.00e+00  1.59e-02  5.33e-02  1.81e-01  0.700   0.0
    2    -193.6879159015206255    -7.96e-02  1.26e-02  4.03e-02  1.19e-01  0.700   0.1
                               ***Turning on AO-DIIS***
    3    -193.7370720198935601    -4.92e-02  7.66e-03  2.03e-02  7.13e-02  0.700   0.0
    4    -193.7681467290236696    -3.11e-02  1.83e-02  4.47e-02  4.84e-02  0.000   0.0
                              *** Initializing SOSCF ***
---------------------------------------S-O-S-C-F--------------------------------------
Iteration    Energy (Eh)           Delta-E    RMSDP     MaxDP     MaxGrad    Time(sec)
--------------------------------------------------------------------------------------
    5    -193.8355470624914574    -6.74e-02  1.85e-03  3.08e-03  2.79e-03     0.0
               *** Restarting incremental Fock matrix formation ***
    6    -193.8357137724391919    -1.67e-04  1.11e-03  2.63e-03  2.00e-03     0.0
    7    -193.8357797569947252    -6.60e-05  9.40e-04  2.58e-03  9.46e-04     0.0
    8    -193.8357993685702354    -1.96e-05  1.24e-04  3.88e-04  1.77e-04     0.0
    9    -193.8357998617702265    -4.93e-07  5.25e-05  1.33e-04  4.61e-05     0.0
                 **** Energy Check signals convergence ****

               *****************************************************
               *                     SUCCESS                       *
               *           SCF CONVERGED AFTER   9 CYCLES          *
               *****************************************************

             **** ENERGY FILE WAS UPDATED (h-shift_052.en.tmp) ****

----------------
TOTAL SCF ENERGY
----------------

Total Energy       :       -193.83579999703790 Eh           -5274.54027 eV

Components:
Nuclear Repulsion  :        164.50506817239830 Eh            4476.41048 eV
Electronic Energy  :       -358.34086816943619 Eh           -9750.95075 eV
One Electron Energy:       -585.87838646084731 Eh          -15942.56140 eV
Two Electron Energy:        227.53751829141112 Eh            6191.61065 eV

Virial components:
Potential Energy   :       -388.09880464892683 Eh          -10560.70537 eV
Kinetic Energy     :        194.26300465188896 Eh            5286.16510 eV
Virial Ratio       :          1.99780089546326

---------------
SCF CONVERGENCE
---------------

  Last Energy change         ...    4.9320e-07  Tolerance :   1.0000e-06
  Last MAX-Density change    ...    1.3290e-04  Tolerance :   1.0000e-05
  Last RMS-Density change    ...    5.2469e-05  Tolerance :   1.0000e-06
  Last DIIS Error            ...    2.7923e-03  Tolerance :   1.0000e-06
  Last Orbital Gradient      ...    4.6107e-05  Tolerance :   5.0000e-05
  Last Orbital Rotation      ...    4.7740e-05  Tolerance :   5.0000e-05


----------------
ORBITAL ENERGIES
----------------

  NO   OCC          E(Eh)            E(eV) 
   0   2.0000     -11.237781      -305.7956 
   1   2.0000     -11.237122      -305.7776 
   2   2.0000     -11.227690      -305.5210 
   3   2.0000     -11.222184      -305.3711 
   4   2.0000     -11.209391      -305.0230 
   5   2.0000      -1.114238       -30.3199 
   6   2.0000      -1.014287       -27.6002 
   7   2.0000      -0.945624       -25.7317 
   8   2.0000      -0.811062       -22.0701 
   9   2.0000      -0.726707       -19.7747 
  10   2.0000      -0.676073       -18.3969 
  11   2.0000      -0.598158       -16.2767 
  12   2.0000      -0.582437       -15.8489 
  13   2.0000      -0.559939       -15.2367 
  14   2.0000      -0.551684       -15.0121 
  15   2.0000      -0.507917       -13.8211 
  16   2.0000      -0.487228       -13.2582 
  17   2.0000      -0.388322       -10.5668 
  18   2.0000      -0.303832        -8.2677 
  19   0.0000       0.126189         3.4338 
  20   0.0000       0.207464         5.6454 
  21   0.0000       0.245233         6.6731 
  22   0.0000       0.277053         7.5390 
  23   0.0000       0.292395         7.9565 
  24   0.0000       0.326657         8.8888 
  25   0.0000       0.336540         9.1577 
  26   0.0000       0.355795         9.6817 
  27   0.0000       0.380965        10.3666 
  28   0.0000       0.386367        10.5136 
  29   0.0000       0.434306        11.8181 
*Only the first 10 virtual orbitals were printed.

                    ********************************
                    * MULLIKEN POPULATION ANALYSIS *
                    ********************************

-----------------------
MULLIKEN ATOMIC CHARGES
-----------------------
   0 C :   -0.409291
   1 H :    0.200458
   2 C :   -0.527390
   3 C :   -0.132242
   4 C :   -0.198814
   5 C :   -0.158047
   6 H :    0.167403
   7 H :    0.190797
   8 H :    0.173655
   9 H :    0.156529
  10 H :    0.182250
  11 H :    0.176519
  12 H :    0.178172
Sum of atomic charges:   -0.0000000

--------------------------------
MULLIKEN REDUCED ORBITAL CHARGES
--------------------------------
  0 C s       :     3.298275  s :     3.298275
      pz      :     1.067407  p :     3.111015
      px      :     1.033662
      py      :     1.009946

  1 H s       :     0.799542  s :     0.799542

  2 C s       :     3.375838  s :     3.375838
      pz      :     1.047469  p :     3.151552
      px      :     1.118172
      py      :     0.985911

  3 C s       :     3.210204  s :     3.210204
      pz      :     0.950682  p :     2.922038
      px      :     0.993073
      py      :     0.978283

  4 C s       :     3.199256  s :     3.199256
      pz      :     1.007585  p :     2.999558
      px      :     0.928282
      py      :     1.063690

  5 C s       :     3.199440  s :     3.199440
      pz      :     0.913384  p :     2.958607
      px      :     1.038821
      py      :     1.006402

  6 H s       :     0.832597  s :     0.832597

  7 H s       :     0.809203  s :     0.809203

  8 H s       :     0.826345  s :     0.826345

  9 H s       :     0.843471  s :     0.843471

 10 H s       :     0.817750  s :     0.817750

 11 H s       :     0.823481  s :     0.823481

 12 H s       :     0.821828  s :     0.821828



                     *******************************
                     * LOEWDIN POPULATION ANALYSIS *
                     *******************************

----------------------
LOEWDIN ATOMIC CHARGES
----------------------
   0 C :   -0.269470
   1 H :    0.149470
   2 C :   -0.331929
   3 C :   -0.100496
   4 C :   -0.155495
   5 C :   -0.114665
   6 H :    0.117065
   7 H :    0.123744
   8 H :    0.114749
   9 H :    0.110062
  10 H :    0.119784
  11 H :    0.117733
  12 H :    0.119448

-------------------------------
LOEWDIN REDUCED ORBITAL CHARGES
-------------------------------
  0 C s       :     2.994591  s :     2.994591
      pz      :     1.108968  p :     3.274879
      px      :     1.058358
      py      :     1.107553

  1 H s       :     0.850530  s :     0.850530

  2 C s       :     2.982929  s :     2.982929
      pz      :     1.131329  p :     3.349000
      px      :     1.128690
      py      :     1.088981

  3 C s       :     2.953994  s :     2.953994
      pz      :     0.994117  p :     3.146502
      px      :     1.100335
      py      :     1.052050

  4 C s       :     2.942435  s :     2.942435
      pz      :     1.058329  p :     3.213060
      px      :     1.081546
      py      :     1.073185

  5 C s       :     2.944644  s :     2.944644
      pz      :     1.029907  p :     3.170021
      px      :     1.034888
      py      :     1.105226

  6 H s       :     0.882935  s :     0.882935

  7 H s       :     0.876256  s :     0.876256

  8 H s       :     0.885251  s :     0.885251

  9 H s       :     0.889938  s :     0.889938

 10 H s       :     0.880216  s :     0.880216

 11 H s       :     0.882267  s :     0.882267

 12 H s       :     0.880552  s :     0.880552



                      *****************************
                      * MAYER POPULATION ANALYSIS *
                      *****************************

  NA   - Mulliken gross atomic population
  ZA   - Total nuclear charge
  QA   - Mulliken gross atomic charge
  VA   - Mayer's total valence
  BVA  - Mayer's bonded valence
  FA   - Mayer's free valence

  ATOM       NA         ZA         QA         VA         BVA        FA
  0 C      6.4093     6.0000    -0.4093     3.8048     3.8048     0.0000
  1 H      0.7995     1.0000     0.2005     0.9105     0.9105    -0.0000
  2 C      6.5274     6.0000    -0.5274     3.7506     3.7506    -0.0000
  3 C      6.1322     6.0000    -0.1322     3.7406     3.7406    -0.0000
  4 C      6.1988     6.0000    -0.1988     3.8108     3.8108     0.0000
  5 C      6.1580     6.0000    -0.1580     3.7912     3.7912     0.0000
  6 H      0.8326     1.0000     0.1674     0.9404     0.9404    -0.0000
  7 H      0.8092     1.0000     0.1908     0.9252     0.9252    -0.0000
  8 H      0.8263     1.0000     0.1737     0.9191     0.9191    -0.0000
  9 H      0.8435     1.0000     0.1565     0.9409     0.9409    -0.0000
 10 H      0.8178     1.0000     0.1822     0.9382     0.9382    -0.0000
 11 H      0.8235     1.0000     0.1765     0.9389     0.9389     0.0000
 12 H      0.8218     1.0000     0.1782     0.9356     0.9356    -0.0000

  Mayer bond orders larger than 0.100000
B(  0-C ,  5-C ) :   1.7789 B(  0-C ,  6-H ) :   0.9589 B(  0-C ,  7-H ) :   0.9574 
B(  1-H ,  2-C ) :   0.8845 B(  2-C ,  3-C ) :   0.9842 B(  2-C ,  8-H ) :   0.9438 
B(  2-C ,  9-H ) :   0.9624 B(  3-C ,  4-C ) :   1.7963 B(  3-C , 10-H ) :   0.9553 
B(  4-C ,  5-C ) :   1.1101 B(  4-C , 11-H ) :   0.9575 B(  5-C , 12-H ) :   0.9572 


-------
TIMINGS
-------

Total SCF time: 0 days 0 hours 0 min 0 sec 

Total time                  ....       0.654 sec
Sum of individual times     ....       0.611 sec  ( 93.4%)

SCF preparation             ....       0.263 sec  ( 40.2%)
Fock matrix formation       ....       0.294 sec  ( 45.0%)
  Startup                   ....       0.001 sec  (  0.5% of F)
  Coulomb+Exchange Fock     ....       0.313 sec  (106.6% of F)
Diagonalization             ....       0.000 sec  (  0.0%)
Density matrix formation    ....       0.008 sec  (  1.2%)
Total Energy calculation    ....       0.005 sec  (  0.7%)
Population analysis         ....       0.004 sec  (  0.7%)
Orbital Transformation      ....       0.005 sec  (  0.7%)
Orbital Orthonormalization  ....       0.000 sec  (  0.0%)
DIIS solution               ....       0.020 sec  (  3.0%)
SOSCF solution              ....       0.013 sec  (  2.0%)
Finished LeanSCF after   0.7 sec

Maximum memory used throughout the entire LEANSCF-calculation: 6.5 MB

-------------------------   --------------------
FINAL SINGLE POINT ENERGY      -193.835799997038
-------------------------   --------------------



           ************************************************************
           *        Program running with 8 parallel MPI-processes     *
           *              working on a common directory               *
           ************************************************************

------------------------------------------------------------------------------
                              ORCA PROPERTY CALCULATIONS
------------------------------------------------------------------------------

GBWName                                 ... h-shift_052.gbw
Number of atoms                         ...     13
Number of basis functions               ...     61
Max core memory                         ...   1200 MB

Electric properties:
Dipole moment                           ... YES
Quadrupole moment                       ...  NO
Static polarizability (Dipole/Dipole)   ...  NO
Static polarizability (Dipole/Quad.)    ...  NO
Static polarizability (Quad./Quad.)     ...  NO
Static polarizability (Velocity)        ...  NO
Static hyperpolarizability              ...  NO

Atomic electric properties:
Dipole moment                           ...  NO
Quadrupole moment                       ...  NO
Static polarizability                   ...  NO

Choice of electric origin               ... Center of mass
Position of electric origin             ...     1.677110    -1.388367     2.004275

General magnetic properties:
Magnetizability                         ...  NO

EPR properties:
g-Tensor (aka g-matrix)                 ...  NO
Zero-Field splitting spin-orbit         ...  NO
Zero-field splitting spin-spin          ...  NO
Hyperfine couplings                     ...  NO (   0 nuclei)
Quadrupole couplings                    ...  NO (   0 nuclei)
Contact density                         ...  NO (   0 nuclei)

NMR properties:
Chemical shifts                         ...  NO (   0 nuclei)
Spin-rotation constants                 ...  NO (   0 nuclei)
Spin-spin couplings                     ...  NO (   0 nuclei,    0 pairs)

Choice of magnetic origin               ... GIAO
Position of magnetic origin             ...     0.000000     0.000000     0.000000

Properties with geometric perturbations:
SCF Hessian                             ...  NO
IR spectrum                             ...  NO
VCD spectrum                            ...  NO
X-ray spectroscopy properties:
SCF XES/XAS/RIXS spectra                ...  NO

SCF SOC stabilization energy            ...  NO
Diagonal Born-Oppenheimer correction    ...  NO

-------------
DIPOLE MOMENT
-------------

Method             : SCF
Type of density    : Electron Density
Multiplicity       :   1
Irrep              :   0
Energy             :  -193.8357999970378955 Eh
Basis              : AO
                                X                 Y                 Z
Electronic contribution:     -1.267929551      -1.720652448       1.330490001
Nuclear contribution   :      1.377033630       1.658187740      -1.439039065
                        -----------------------------------------
Total Dipole Moment    :      0.109104079      -0.062464708      -0.108549064
                        -----------------------------------------
Magnitude (a.u.)       :      0.166097679
Magnitude (Debye)      :      0.422186749



--------------------
Rotational spectrum 
--------------------
 
Rotational constants in cm-1:             0.272519             0.165089             0.106613 
Rotational constants in MHz :          8169.899537          4949.233128          3196.189153 

Dipole components along the rotational axes: 
x,y,z [a.u.] :    -0.051315    -0.037941    -0.153348 
x,y,z [Debye]:    -0.130433    -0.096439    -0.389780 

 

Dipole moment calculation done in   0.0 sec 

Maximum memory used throughout the entire PROP-calculation: 2.2 MB

--------------------------------
SUGGESTED CITATIONS FOR THIS RUN
--------------------------------

Below you find a list of papers that are relevant to this ORCA run
We neither can nor want to force you to cite these papers, but we appreciate if you do
You receive ORCA, which is the product of decades of hard work by many enthusiastic individuals, for free
The only thing we kindly ask in return is that you cite our papers,
We deeply appreciate it, if you show your appreciation for ORCA by not just citing the generic ORCA reference.

Please note that relegating all ORCA citations to the supporting information does *not* help us.
SI sections are not indexed - citations you put there will not count into any citation statistics
But we need these citations in order to attract the funding resources that allow us to do what we are doing

Therefore, if you are a happy ORCA user, please consider citing a few of the papers listed below in the main body of your paper

In addition to the list printed below, the program has created the file h-shift_052.bibtex that contains the list in bibtex format
You can import this file easily into all common literature databanks and citation aid programs


List of essential papers. We consider these as the minimum necessary citations

  1. Neese, F.
     Software update: the ORCA program system, version 6.0
     WIRES Comput. Molec. Sci. 2025 15(1), e70019
     doi.org/10.1002/wcms.7019

List of papers to cite with high priority. The work reported in these papers was absolutely
necessary for this run to complete.
Our perspective: the developers of density functionals and basis sets usually get cited in chemistry papers
Good! But without the algorithms to do something with them, the functionals or basis sets would not do anything.
Hence, in our opinion, the algorithm design and method developments papers are equally worthy of getting cited

  1. Neese, F.
     The SHARK Integral Generation and Digestion System
     J. Comp. Chem. 2022 44(3), 381
     doi.org/10.1002/jcc.26942

List of suggested additional citations. These are papers that are important in the 'surrounding' of 
of this run, or papers that preceded the highly important papers. If you like your results we are grateful for a citation.

  1. Neese, F.
     The ORCA program system
     WIRES Comput. Molec. Sci. 2012 2(1), 73-78
     doi.org/10.1002/wcms.81
  2. Neese, F.
     Software update: the ORCA program system, version 4.0
     WIRES Comput. Molec. Sci. 2018 8(1), 1-6
     doi.org/10.1002/wcms.1327
  3. Neese, F.; Wennmohs, F.; Becker, U.; Riplinger, C.
     The ORCA quantum chemistry program package
     J. Chem. Phys. 2020 152(22), 224108
     doi.org/10.1063/5.0004608
  4. Neese, F.
     Software update: The ORCA program system—Version 5.0
     WIRES Comput. Molec. Sci. 2022 12(1), e1606
     doi.org/10.1002/wcms.1606

List of optional additional citations

  1. Neese, F.
     Approximate second-order SCF convergence for spin unrestricted wavefunctions
     Chem. Phys. Lett. 2000 325(1-3), 93-98
     doi.org/10.1016/s0009-2614(00)00662-x

Timings for individual modules:

Sum of individual times          ...        2.251 sec (=   0.038 min)
Startup calculation              ...        0.638 sec (=   0.011 min)  28.4 %
SCF iterations                   ...        1.234 sec (=   0.021 min)  54.8 %
Property calculations            ...        0.378 sec (=   0.006 min)  16.8 %
                             ****ORCA TERMINATED NORMALLY****
TOTAL RUN TIME: 0 days 0 hours 0 minutes 2 seconds 720 msec
