[Molden Format]
[Title]
 Molden file created by orca_2mkl for BaseName=h-shift_075

[Atoms] AU
C    1   6         -0.7919483179         0.0218395649         0.0577897149 
H    2   1          3.9795950524         0.0212877649         0.0614293274 
C    3   6          4.6400222109         0.0193356778         1.9982342085 
C    4   6          3.5141479467        -2.1478381574         3.4409985378 
C    5   6          1.1771595417        -3.0345883663         3.1308453463 
C    6   6         -0.6191706575        -2.2261899823         1.1708176208 
H    7   1         -2.0180555459         0.3087869195        -1.5299392856 
H    8   1          0.2672318418         1.6380146129         0.6548940403 
H    9   1          4.0695535753         1.8104861377         2.8260174031 
H   10   1          6.6814385513        -0.0361240048         1.9888422696 
H   11   1          4.7194681873        -3.0584877327         4.8025084228 
H   12   1          0.5798832512        -4.6030364910         4.2811499900 
H   13   1         -1.8559756252        -3.7025574217         0.5166454558 
[GTO]
  1 0
s   6 1.0 
     3047.5249000000         0.5363343823
      457.3695100000         0.9894506076
      103.9486900000         1.5972822308
       29.2101550000         2.0791870615
        9.2866630000         1.7741742532
        3.1639270000         0.6125798260
s   3 1.0 
        7.8682724000        -0.3995563516
        1.8812885000        -0.1841552393
        0.5442493000         0.5163903794
p   3 1.0 
        7.8682724000         1.2960827175
        1.8812885000         0.9937536282
        0.5442493000         0.4959527138
s   1 1.0 
        0.1687144000         0.1876178721
p   1 1.0 
        0.1687144000         0.1541275509

  2 0
s   3 1.0 
       18.7311370000         0.2149354183
        2.8253937000         0.3645711272
        0.6401217000         0.4150514277
s   1 1.0 
        0.1612778000         0.1813806839

  3 0
s   6 1.0 
     3047.5249000000         0.5363343823
      457.3695100000         0.9894506076
      103.9486900000         1.5972822308
       29.2101550000         2.0791870615
        9.2866630000         1.7741742532
        3.1639270000         0.6125798260
s   3 1.0 
        7.8682724000        -0.3995563516
        1.8812885000        -0.1841552393
        0.5442493000         0.5163903794
p   3 1.0 
        7.8682724000         1.2960827175
        1.8812885000         0.9937536282
        0.5442493000         0.4959527138
s   1 1.0 
        0.1687144000         0.1876178721
p   1 1.0 
        0.1687144000         0.1541275509

  4 0
s   6 1.0 
     3047.5249000000         0.5363343823
      457.3695100000         0.9894506076
      103.9486900000         1.5972822308
       29.2101550000         2.0791870615
        9.2866630000         1.7741742532
        3.1639270000         0.6125798260
s   3 1.0 
        7.8682724000        -0.3995563516
        1.8812885000        -0.1841552393
        0.5442493000         0.5163903794
p   3 1.0 
        7.8682724000         1.2960827175
        1.8812885000         0.9937536282
        0.5442493000         0.4959527138
s   1 1.0 
        0.1687144000         0.1876178721
p   1 1.0 
        0.1687144000         0.1541275509

  5 0
s   6 1.0 
     3047.5249000000         0.5363343823
      457.3695100000         0.9894506076
      103.9486900000         1.5972822308
       29.2101550000         2.0791870615
        9.2866630000         1.7741742532
        3.1639270000         0.6125798260
s   3 1.0 
        7.8682724000        -0.3995563516
        1.8812885000        -0.1841552393
        0.5442493000         0.5163903794
p   3 1.0 
        7.8682724000         1.2960827175
        1.8812885000         0.9937536282
        0.5442493000         0.4959527138
s   1 1.0 
        0.1687144000         0.1876178721
p   1 1.0 
        0.1687144000         0.1541275509

  6 0
s   6 1.0 
     3047.5249000000         0.5363343823
      457.3695100000         0.9894506076
      103.9486900000         1.5972822308
       29.2101550000         2.0791870615
        9.2866630000         1.7741742532
        3.1639270000         0.6125798260
s   3 1.0 
        7.8682724000        -0.3995563516
        1.8812885000        -0.1841552393
        0.5442493000         0.5163903794
p   3 1.0 
        7.8682724000         1.2960827175
        1.8812885000         0.9937536282
        0.5442493000         0.4959527138
s   1 1.0 
        0.1687144000         0.1876178721
p   1 1.0 
        0.1687144000         0.1541275509

  7 0
s   3 1.0 
       18.7311370000         0.2149354183
        2.8253937000         0.3645711272
        0.6401217000         0.4150514277
s   1 1.0 
        0.1612778000         0.1813806839

  8 0
s   3 1.0 
       18.7311370000         0.2149354183
        2.8253937000         0.3645711272
        0.6401217000         0.4150514277
s   1 1.0 
        0.1612778000         0.1813806839

  9 0
s   3 1.0 
       18.7311370000         0.2149354183
        2.8253937000         0.3645711272
        0.6401217000         0.4150514277
s   1 1.0 
        0.1612778000         0.1813806839

 10 0
s   3 1.0 
       18.7311370000         0.2149354183
        2.8253937000         0.3645711272
        0.6401217000         0.4150514277
s   1 1.0 
        0.1612778000         0.1813806839

 11 0
s   3 1.0 
       18.7311370000         0.2149354183
        2.8253937000         0.3645711272
        0.6401217000         0.4150514277
s   1 1.0 
        0.1612778000         0.1813806839

 12 0
s   3 1.0 
       18.7311370000         0.2149354183
        2.8253937000         0.3645711272
        0.6401217000         0.4150514277
s   1 1.0 
        0.1612778000         0.1813806839

 13 0
s   3 1.0 
       18.7311370000         0.2149354183
        2.8253937000         0.3645711272
        0.6401217000         0.4150514277
s   1 1.0 
        0.1612778000         0.1813806839

[5D]
[7F]
[9G]
[MO]
 Sym=     1a
 Ene= -1.12360095141774E+01
 Spin= Alpha
 Occup= 2.000000
  1       0.056391523081
  2       0.000578378004
  3       0.000013037561
  4       0.000176856430
  5      -0.000123467096
  6       0.005454176041
  7       0.000818962577
  8      -0.001986735680
  9       0.001811559645
 10      -0.000113036100
 11       0.000591590271
 12       0.000845880860
 13      -0.000024923532
 14       0.000049388918
 15       0.000058931525
 16      -0.000030205156
 17       0.000154141170
 18      -0.000023250394
 19      -0.000310097652
 20       0.000479540789
 21       0.068649279083
 22       0.001440408129
 23       0.000162319282
 24       0.000039128947
 25       0.000110758659
 26      -0.001099595837
 27      -0.000531634326
 28      -0.000408727757
 29      -0.000204415434
 30       0.050701561770
 31       0.000582081162
 32       0.000121038787
 33      -0.000071346092
 34       0.000122893614
 35       0.003941078213
 36      -0.001393585428
 37       0.001385620019
 38      -0.001786344736
 39       0.990859981555
 40       0.024794861330
 41       0.000117449935
 42       0.000145610000
 43      -0.000017395480
 44      -0.017249265731
 45      -0.001477363672
 46      -0.001681394620
 47      -0.000557305197
 48      -0.000081116488
 49       0.000496146248
 50      -0.000271623329
 51      -0.000282859164
 52      -0.000000601262
 53       0.000016752546
 54      -0.000004393353
 55       0.000001250678
 56       0.000034010921
 57       0.000569270793
 58      -0.000087429718
 59       0.000436411414
 60      -0.000261046256
 61       0.002099159357
 Sym=     1a
 Ene= -1.12356113409806E+01
 Spin= Alpha
 Occup= 2.000000
  1       0.004664689939
  2       0.000078774871
  3       0.000020414731
  4       0.000035359655
  5       0.000023230825
  6       0.000018177330
  7      -0.000107086935
  8      -0.000252972614
  9      -0.000083044336
 10       0.000195594632
 11      -0.000130006866
 12      -0.015425196559
 13       0.000015146172
 14      -0.000008209047
 15      -0.000156309104
 16       0.000042362840
 17      -0.003663098621
 18       0.001176600498
 19       0.002184358171
 20      -0.000792302487
 21      -0.988454945910
 22      -0.024699887623
 23       0.000160943629
 24      -0.000035158609
 25       0.000099293728
 26       0.017254453528
 27      -0.001534566748
 28       0.000931656470
 29      -0.001739956031
 30      -0.098000342133
 31      -0.001487217027
 32       0.000224443299
 33       0.000125167979
 34       0.000004872967
 35      -0.005123330124
 36      -0.002552421364
 37      -0.001934864420
 38       0.000579679151
 39       0.073307799128
 40       0.002013500302
 41       0.000151677891
 42      -0.000039322475
 43       0.000110665233
 44      -0.000648485249
 45       0.000226093526
 46       0.000180883909
 47       0.000077669152
 48      -0.000011951760
 49      -0.000062226138
 50      -0.000016091810
 51       0.000366453790
 52       0.000202168004
 53      -0.000905538998
 54       0.000089871842
 55      -0.000184544613
 56       0.000269237766
 57      -0.002031760842
 58       0.000046026013
 59      -0.000778903725
 60      -0.000011068707
 61       0.000170501208
 Sym=     1a
 Ene= -1.12274879289058E+01
 Spin= Alpha
 Occup= 2.000000
  1       0.007398109204
  2       0.000335262357
  3       0.000051704209
  4      -0.000125659720
  5       0.000159093300
  6       0.000802545262
  7       0.000211230011
  8       0.000096303858
  9      -0.000158615399
 10      -0.000059193279
 11      -0.000173649144
 12       0.003356224065
 13       0.000072549947
 14      -0.000103381347
 15      -0.000109326683
 16       0.000096952807
 17       0.001762377025
 18      -0.000469920897
 19      -0.000658986983
 20       0.000026251767
 21       0.101951275349
 22       0.003582789538
 23      -0.000227008892
 24      -0.000028768058
 25      -0.000084949072
 26      -0.009438533137
 27       0.003261409132
 28      -0.000195992014
 29       0.001934931547
 30      -0.990028461844
 31      -0.025141037075
 32      -0.000137738799
 33      -0.000165295441
 34       0.000218235506
 35       0.019570018120
 36       0.001469521377
 37       0.002650821446
 38      -0.002238305240
 39       0.043434879905
 40       0.001727310366
 41       0.000124779436
 42      -0.000037134923
 43       0.000109635682
 44      -0.006053773066
 45      -0.002513290640
 46      -0.000018956527
 47      -0.001743839961
 48      -0.000048157846
 49      -0.000333704627
 50       0.000040102024
 51      -0.000303374296
 52      -0.000026269214
 53       0.000149995787
 54      -0.000060064136
 55      -0.000142986427
 56       0.000004632203
 57      -0.000342406459
 58       0.000297795581
 59      -0.001679655173
 60       0.000072970559
 61      -0.000350989382
 Sym=     1a
 Ene= -1.12213805794765E+01
 Spin= Alpha
 Occup= 2.000000
  1      -0.994501706374
  2      -0.024838107947
  3      -0.000082232569
  4       0.000203299854
  5      -0.000057088339
  6       0.016616482712
  7       0.000450511111
  8      -0.001675883657
  9       0.000847617987
 10       0.000164728299
 11      -0.001157640871
 12       0.000405984021
 13       0.000052287312
 14      -0.000103273904
 15       0.000011208138
 16       0.000064856232
 17      -0.000012148812
 18       0.000418287880
 19       0.000072364160
 20      -0.000793256952
 21      -0.000002370747
 22      -0.000036291130
 23      -0.000037045731
 24       0.000018475176
 25      -0.000022031046
 26       0.000190044270
 27       0.000301594400
 28       0.000438429168
 29      -0.000172599872
 30      -0.004934306842
 31      -0.000019851537
 32      -0.000067651584
 33       0.000080857460
 34      -0.000086644637
 35       0.000445850777
 36       0.000327448408
 37      -0.000013559432
 38       0.000245531923
 39       0.057431801196
 40       0.002267504126
 41      -0.000035590887
 42       0.000290377125
 43      -0.000125843651
 44      -0.006832086454
 45       0.000154636883
 46      -0.002814932157
 47       0.001350482635
 48       0.000211093458
 49      -0.002649805902
 50       0.000129382654
 51      -0.002738313423
 52      -0.000014571682
 53       0.000533040150
 54      -0.000025600078
 55      -0.000278201113
 56       0.000007382886
 57       0.000031706511
 58      -0.000037208204
 59      -0.000215822473
 60       0.000114976982
 61       0.000002495723
 Sym=     1a
 Ene= -1.12149389735148E+01
 Spin= Alpha
 Occup= 2.000000
  1      -0.000402837817
  2       0.000033717534
  3       0.000093186637
  4       0.000006881747
  5       0.000109899298
  6      -0.000277787882
  7      -0.000428036124
  8       0.000286991731
  9      -0.000687107364
 10      -0.000075558849
 11      -0.003238152944
 12      -0.996079103849
 13      -0.026141259488
 14       0.000077875692
 15      -0.000006936206
 16      -0.000070404418
 17       0.019226566370
 18      -0.000659469615
 19      -0.000715509012
 20       0.000605097924
 21       0.015872937017
 22       0.000827916659
 23       0.000082157821
 24       0.000110272391
 25      -0.000077231198
 26      -0.004073702262
 27      -0.001548462639
 28      -0.002229581389
 29       0.001303449020
 30      -0.001770101030
 31       0.000152990591
 32       0.000125752510
 33       0.000092967252
 34      -0.000029588698
 35      -0.000632194132
 36      -0.000777793109
 37      -0.000400884595
 38      -0.000034577054
 39      -0.000133454217
 40      -0.000015997365
 41       0.000059251721
 42       0.000042070888
 43       0.000014112220
 44       0.000508935337
 45       0.000123319754
 46       0.000419191907
 47      -0.000127163085
 48      -0.000061014852
 49      -0.000499614190
 50       0.000045023180
 51       0.000068506013
 52      -0.000072928694
 53      -0.003324552430
 54      -0.000037326587
 55      -0.003101352452
 56       0.000133738865
 57      -0.000057449866
 58      -0.000031388374
 59      -0.000438365314
 60       0.000025817053
 61       0.000020186757
 Sym=     1a
 Ene= -1.10064585623952E+00
 Spin= Alpha
 Occup= 2.000000
  1      -0.075215442973
  2       0.146855278004
  3       0.012483030856
  4      -0.056360480562
  5       0.033037489781
  6       0.099977400566
  7       0.000396973127
  8      -0.003023470744
  9      -0.001361442296
 10       0.038890090506
 11       0.001420470077
 12      -0.068779374125
 13       0.127590749718
 14      -0.024979894974
 15      -0.031955669934
 16       0.017013011236
 17       0.121347583017
 18      -0.012794329443
 19      -0.003698714614
 20       0.000726571852
 21      -0.113779221735
 22       0.225939811544
 23      -0.063337452404
 24      -0.004724143131
 25      -0.027476446794
 26       0.136730843588
 27       0.000698591993
 28      -0.004286819981
 29       0.004363795603
 30      -0.125753446414
 31       0.248074462947
 32       0.038445032175
 33       0.041538743961
 34      -0.027338917744
 35       0.163605848952
 36       0.000102583780
 37       0.003950700427
 38      -0.005194458714
 39      -0.110341915911
 40       0.218852715245
 41       0.035406722274
 42       0.029368481858
 43       0.013290043729
 44       0.138916649499
 45       0.005783655678
 46      -0.000001311743
 47       0.003329722944
 48       0.032969046427
 49       0.001631514311
 50       0.039694100167
 51       0.007066551140
 52       0.035012567642
 53       0.000223201245
 54       0.031919663332
 55       0.005196431895
 56       0.052890600687
 57       0.004186468575
 58       0.058732084520
 59       0.008269463160
 60       0.053020204249
 61       0.008256481111
 Sym=     1a
 Ene= -1.02086121946231E+00
 Spin= Alpha
 Occup= 2.000000
  1       0.121764644682
  2      -0.238940986384
  3       0.000530566974
  4       0.078754532199
  5      -0.032979640169
  6      -0.184585535316
  7      -0.001969802080
  8       0.003064190937
  9      -0.003965386879
 10       0.053462969872
 11       0.005396956201
 12      -0.099967235672
 13       0.190120844379
 14      -0.013185947010
 15      -0.030352746612
 16       0.022904818351
 17       0.177811099486
 18       0.000561569468
 19      -0.000878515416
 20       0.003498319648
 21      -0.101691560259
 22       0.201887252458
 23       0.003181965423
 24       0.021244699312
 25      -0.018526439447
 26       0.148530072501
 27       0.000981626273
 28       0.005883228160
 29      -0.004882936774
 30      -0.020777665858
 31       0.041338479505
 32       0.101157220758
 33       0.006245796148
 34       0.046374368122
 35       0.025701530278
 36       0.007759258229
 37      -0.011669751232
 38       0.012353570198
 39       0.116039641149
 40      -0.231752519415
 41       0.022487632468
 42      -0.076661843087
 43       0.051596426951
 44      -0.160501305424
 45       0.010655867969
 46       0.004479418618
 47       0.006823245450
 48      -0.069586794501
 49      -0.015990565108
 50      -0.061688986891
 51      -0.005889934374
 52       0.057956756151
 53       0.005523719082
 54       0.059336637811
 55       0.008770402614
 56       0.062580276808
 57       0.016580259926
 58       0.010175186930
 59      -0.003815338762
 60      -0.068755950193
 61      -0.011519622908
 Sym=     1a
 Ene= -9.41155811842625E-01
 Spin= Alpha
 Occup= 2.000000
  1      -0.079179025127
  2       0.154989312887
  3       0.000388334505
  4      -0.012221729559
  5       0.001903585676
  6       0.136063129365
  7       0.005002135563
  8       0.001939842529
  9       0.000107484129
 10       0.099026101416
 11       0.022412762874
 12      -0.138913922244
 13       0.261355635084
 14       0.012826684832
 15       0.020655846279
 16      -0.009825792667
 17       0.293894103067
 18      -0.004244373300
 19       0.002138687065
 20       0.000355181683
 21       0.029788402704
 22      -0.056043141391
 23       0.131333285007
 24       0.114253511859
 25      -0.039092995703
 26      -0.074377910735
 27       0.019181522266
 28       0.009638858567
 29      -0.000508442343
 30       0.118723434154
 31      -0.236187793107
 32      -0.035929513086
 33       0.012090981160
 34      -0.019497858104
 35      -0.184186741894
 36       0.005320146492
 37       0.015492299211
 38      -0.007000819964
 39      -0.003417203188
 40       0.005691767448
 41      -0.048585985844
 42       0.088594838149
 43      -0.083550696336
 44       0.002449384365
 45      -0.013622759276
 46       0.005869710119
 47      -0.014681400351
 48       0.057661871393
 49       0.018538179898
 50       0.059571337335
 51       0.017346108222
 52       0.099785938682
 53       0.024468688976
 54       0.101275402393
 55       0.028049914236
 56      -0.020613612637
 57      -0.007357131264
 58      -0.091165861690
 59      -0.025203750540
 60      -0.001675554796
 61      -0.004578270946
 Sym=     1a
 Ene= -8.13736832081879E-01
 Spin= Alpha
 Occup= 2.000000
  1      -0.102147339062
  2       0.203377036214
  3      -0.009533381727
  4       0.080333967860
  5      -0.044172543847
  6       0.190187863434
  7      -0.003051973422
  8       0.032119103630
  9      -0.016861919499
 10      -0.059050143248
 11      -0.023129707822
 12       0.059790169088
 13      -0.113354463145
 14      -0.032387890655
 15      -0.063781628684
 16       0.044072070099
 17      -0.145660504063
 18      -0.015730438454
 19      -0.014832957052
 20       0.008334185699
 21      -0.091773940344
 22       0.183754915267
 23      -0.015633275202
 24      -0.065984693948
 25       0.059591799412
 26       0.178364427482
 27       0.014175177017
 28      -0.010294786725
 29       0.019549219200
 30       0.030317482586
 31      -0.063258643739
 32       0.195473682728
 33       0.028457351621
 34       0.094634681895
 35      -0.052445747104
 36       0.046725105199
 37       0.007662664950
 38       0.021709142446
 39       0.086191895827
 40      -0.176072250113
 41      -0.020442444799
 42       0.151527103348
 43      -0.084064314733
 44      -0.162907413155
 45      -0.001701554434
 46       0.050460280392
 47      -0.023111936204
 48       0.113438903041
 49       0.048485792046
 50       0.109292099702
 51       0.042538030169
 52      -0.059624452833
 53      -0.023920476892
 54      -0.061972706412
 55      -0.020917102538
 56       0.107441804731
 57       0.043725949560
 58      -0.040053276555
 59      -0.018015900579
 60      -0.108780339445
 61      -0.044901180532
 Sym=     1a
 Ene= -7.17595844247158E-01
 Spin= Alpha
 Occup= 2.000000
  1      -0.039134197516
  2       0.078370666617
  3       0.063472302118
  4       0.197490656003
  5      -0.014804625631
  6       0.080644821472
  7       0.020777262641
  8       0.064773263606
  9      -0.008185698315
 10       0.079483301910
 11       0.043644088913
 12      -0.021290826943
 13       0.037381014146
 14      -0.023168466209
 15       0.109517710118
 16      -0.101342663493
 17       0.062310496274
 18      -0.012275037213
 19       0.039514478209
 20      -0.036663438488
 21       0.073717946652
 22      -0.150032732946
 23      -0.173480279064
 24      -0.002947912555
 25      -0.069205188177
 26      -0.154429635006
 27      -0.073319350502
 28       0.005745561181
 29      -0.033766728560
 30      -0.077920396149
 31       0.159381744133
 32      -0.029698972016
 33      -0.029563034082
 34       0.028316304653
 35       0.154120351393
 36      -0.030101430996
 37      -0.034684598661
 38       0.018900650567
 39       0.069857173997
 40      -0.142010007205
 41       0.132648359614
 42       0.027449070756
 43       0.124024608022
 44      -0.140563440755
 45       0.052839318577
 46       0.040234086391
 47       0.034914490243
 48       0.040766355687
 49       0.019836682318
 50       0.142239676857
 51       0.087285097337
 52       0.053688627595
 53       0.029453296385
 54       0.003608222706
 55      -0.000762636284
 56      -0.152021051282
 57      -0.076661461275
 58       0.101785241788
 59       0.041371710280
 60      -0.141873346493
 61      -0.068165954144
 Sym=     1a
 Ene= -6.67434656105146E-01
 Spin= Alpha
 Occup= 2.000000
  1      -0.021623517105
  2       0.042971036727
  3      -0.119442735020
  4       0.087295678234
  5      -0.149891296318
  6       0.061039704365
  7      -0.051211350143
  8       0.021752953180
  9      -0.053974999609
 10      -0.015914216105
 11      -0.010086205755
 12      -0.016810734806
 13       0.030829227452
 14       0.139769948577
 15       0.067826319683
 16       0.004398261137
 17       0.050525389478
 18       0.064146475240
 19       0.023556152111
 20       0.008472184399
 21       0.023638705233
 22      -0.049520407208
 23       0.112175173164
 24      -0.088840953525
 25       0.126935900356
 26      -0.035302440994
 27       0.027418489618
 28      -0.037188982674
 29       0.043560451631
 30      -0.020820587561
 31       0.040152561005
 32      -0.093797232543
 33      -0.231700166497
 34       0.154540006884
 35       0.053181594569
 36      -0.040303656177
 37      -0.097174410311
 38       0.061763480779
 39       0.025034720279
 40      -0.053558939430
 41      -0.124947749376
 42      -0.140386859204
 43      -0.029308658671
 44      -0.046488562920
 45      -0.041418876750
 46      -0.044249584424
 47      -0.007391094649
 48       0.137069255494
 49       0.085942357608
 50       0.000473407484
 51       0.005794570523
 52       0.027974794755
 53       0.016127239710
 54       0.095547066960
 55       0.057482791113
 56       0.082654363095
 57       0.058276471695
 58       0.188028382972
 59       0.114162810527
 60       0.080469755432
 61       0.059028153409
 Sym=     1a
 Ene= -6.03319132480202E-01
 Spin= Alpha
 Occup= 2.000000
  1      -0.007451607872
  2       0.016415929954
  3       0.172115494628
  4       0.099201587005
  5       0.195183311979
  6       0.029587161304
  7       0.076554060596
  8       0.046024045577
  9       0.091223882806
 10      -0.099460602263
 11      -0.067088463756
 12       0.010504629015
 13      -0.020086276947
 14       0.109290051914
 15      -0.027584925131
 16       0.127169496343
 17      -0.031129335509
 18       0.042624640015
 19      -0.013253646771
 20       0.059626598009
 21       0.003474571493
 22      -0.009600262251
 23       0.245019772788
 24       0.022836933874
 25       0.124540850332
 26      -0.001108200365
 27       0.099131052053
 28       0.001769586634
 29       0.060485808701
 30       0.009793140755
 31      -0.021981707530
 32      -0.226504012280
 33      -0.037671645759
 34      -0.040064074736
 35       0.010217980995
 36      -0.065998595409
 37       0.004642001114
 38      -0.013305878615
 39      -0.014989336880
 40       0.034651698350
 41       0.120687157698
 42       0.069431468064
 43       0.150282948085
 44       0.024303767488
 45       0.034240633504
 46       0.016504393599
 47       0.059937642772
 48      -0.141275018295
 49      -0.098388040927
 50       0.141471970329
 51       0.091383271394
 52      -0.008320568975
 53      -0.000786670228
 54       0.059498134118
 55       0.049885872802
 56       0.134248235836
 57       0.093626167555
 58       0.034673852992
 59       0.032747032559
 60      -0.089100498146
 61      -0.071099576636
 Sym=     1a
 Ene= -5.84729189542031E-01
 Spin= Alpha
 Occup= 2.000000
  1      -0.007197746721
  2       0.019270908055
  3       0.028096279281
  4      -0.285330169257
  5       0.164814341941
  6      -0.017019197938
  7       0.005665002366
  8      -0.102403266533
  9       0.057867375422
 10       0.019049438596
 11       0.011192483494
 12      -0.006593343419
 13       0.007698469078
 14       0.111400590304
 15       0.178196618955
 16      -0.064274234920
 17       0.037225940308
 18       0.047883555776
 19       0.074537949092
 20      -0.024350261791
 21       0.024358857298
 22      -0.049595500368
 23      -0.111862036529
 24      -0.141700809400
 25       0.116001271167
 26      -0.084450956281
 27      -0.041752676957
 28      -0.055427362095
 29       0.052077378302
 30      -0.010222307501
 31       0.020275023640
 32       0.113639323180
 33      -0.046556940469
 34       0.167530063847
 35       0.020871374399
 36       0.041535588706
 37      -0.019567952788
 38       0.072655850696
 39      -0.007865610584
 40       0.018698030134
 41      -0.034201799473
 42       0.308186720341
 43      -0.130326190283
 44      -0.003918932858
 45      -0.004659043977
 46       0.111567142009
 47      -0.035149525989
 48      -0.112200692645
 49      -0.088347342457
 50      -0.096254973476
 51      -0.070227759893
 52       0.067772252015
 53       0.051127254207
 54       0.075004316033
 55       0.055217859087
 56       0.016813232815
 57       0.015241040307
 58       0.073721252063
 59       0.051192494212
 60      -0.095544142196
 61      -0.071239784285
 Sym=     1a
 Ene= -5.67391104088796E-01
 Spin= Alpha
 Occup= 2.000000
  1      -0.004908545570
  2       0.009740129456
  3       0.030600452047
  4      -0.020018245829
  5       0.006571315930
  6       0.013608920160
  7       0.016863906953
  8      -0.003663868436
  9      -0.005928117678
 10       0.140494116873
 11       0.110110137509
 12      -0.000462146748
 13       0.001951610749
 14       0.183684524562
 15      -0.244599884091
 16      -0.281071548849
 17       0.000541151925
 18       0.091187544244
 19      -0.125351561182
 20      -0.141936889143
 21       0.005529933883
 22      -0.009111740009
 23       0.053395717736
 24      -0.101407985653
 25      -0.070072417873
 26      -0.029585540905
 27       0.034429362316
 28      -0.048197116878
 29      -0.032948848884
 30      -0.003065818201
 31       0.003947700107
 32       0.014695856095
 33      -0.045305097181
 34      -0.055217564081
 35       0.022175978082
 36       0.021103698154
 37      -0.021868387524
 38      -0.037349424373
 39       0.001026674862
 40      -0.002660182899
 41       0.054946144952
 42       0.031435212471
 43      -0.006846711003
 44      -0.003445341604
 45       0.027047678502
 46       0.015527539525
 47      -0.004848491430
 48      -0.011518094116
 49      -0.011480203433
 50      -0.001849781158
 51      -0.011951696179
 52      -0.253379813252
 53      -0.197529585220
 54       0.129751425779
 55       0.100616059377
 56       0.013692704627
 57       0.011458317624
 58       0.002572241277
 59       0.005440462177
 60      -0.038159733681
 61      -0.028050511729
 Sym=     1a
 Ene= -5.41682415207079E-01
 Spin= Alpha
 Occup= 2.000000
  1       0.011984551392
  2      -0.026523347216
  3       0.137156638133
  4       0.073135456596
  5       0.109728394814
  6      -0.012523892290
  7       0.087355106023
  8       0.033744688888
  9       0.066381692464
 10       0.185639390937
 11       0.144239260085
 12       0.006019250047
 13      -0.015586544730
 14      -0.233478093713
 15       0.063683368592
 16      -0.209702322623
 17       0.006908865273
 18      -0.141379790432
 19       0.028674918791
 20      -0.112302091645
 21      -0.007867513216
 22       0.015695016904
 23       0.065646919336
 24      -0.098623535120
 25       0.092150845623
 26       0.015696809899
 27       0.043197758114
 28      -0.064111507709
 29       0.061051820192
 30       0.035182943706
 31      -0.078512023127
 32       0.018545438824
 33      -0.102155134387
 34       0.072199108782
 35      -0.071682751015
 36       0.013898722022
 37      -0.023211056321
 38       0.010978749165
 39      -0.007999326875
 40       0.014728498287
 41      -0.111060270614
 42      -0.087789385848
 43      -0.082873014155
 44       0.015480300032
 45      -0.071100945901
 46      -0.064253475440
 47      -0.050892559563
 48      -0.126560941923
 49      -0.090300387643
 50       0.113803194908
 51       0.087480807800
 52       0.020875869862
 53       0.018269395585
 54      -0.171686467135
 55      -0.131959193095
 56       0.109876802232
 57       0.073737866306
 58       0.033128115868
 59       0.042712696931
 60       0.120940763383
 61       0.082434062902
 Sym=     1a
 Ene= -5.07231829867377E-01
 Spin= Alpha
 Occup= 2.000000
  1       0.011661667986
  2      -0.026270834700