13
Energy:  -193.8794796768
C   -0.02783700   0.01063300  -0.19562200
H    0.98451800   0.02096500  -0.58005600
C    2.60185800   0.00220300   1.55942700
C    2.07345900  -1.19739400   1.78125400
C    0.66939900  -1.60764600   1.62528600
C   -0.23296600  -1.11375600   0.77886300
H   -0.71030200  -0.06660800  -1.03244500
H   -0.20380500   0.97350600   0.27684700
H    2.01740900   0.85194900   1.26996900
H    3.65469200   0.17266800   1.67559000
H    2.73059500  -1.98133900   2.11771600
H    0.36954700  -2.43360000   2.24760900
H   -1.21079400  -1.56362700   0.77595200
13
Energy:  -193.8794227613
C   -0.02655000   0.01056800  -0.19440400
H    0.98645500   0.02065300  -0.57729400
C    2.60041200   0.00259200   1.55755000
C    2.07204800  -1.19660600   1.78181000
C    0.66843700  -1.60783100   1.62650100
C   -0.23311400  -1.11478400   0.77870000
H   -0.70784500  -0.06440200  -1.03182800
H   -0.20177700   0.97295200   0.27990400
H    2.01587200   0.85210000   1.26834900
H    3.65369500   0.17271700   1.67084500
H    2.72992600  -1.98034700   2.11831800
H    0.36870600  -2.43389100   2.24872800
H   -1.21049200  -1.56576700   0.77321200
13
Energy:  -193.8793629091
C   -0.02503700   0.01068400  -0.19282200
H    0.98834200   0.02034400  -0.57453000
C    2.59909200   0.00288900   1.55573000
C    2.07098300  -1.19602100   1.78249300
C    0.66732200  -1.60797000   1.62769300
C   -0.23335800  -1.11582000   0.77845400
H   -0.70553800  -0.06226900  -1.03143100
H   -0.19978000   0.97223400   0.28283300
H    2.01427900   0.85241100   1.26678100
H    3.65263600   0.17271300   1.66605700
H    2.72909000  -1.97917400   2.11877700
H    0.36786900  -2.43415800   2.24987900
H   -1.21012600  -1.56790800   0.77047900
13
Energy:  -193.8792997820
C   -0.02376400   0.01061400  -0.19158500
H    0.99029700   0.02004900  -0.57172900
C    2.59769000   0.00326600   1.55389500
C    2.06955400  -1.19521700   1.78305100
C    0.66634700  -1.60809600   1.62894100
C   -0.23350000  -1.11683300   0.77828300
H   -0.70304000  -0.06012600  -1.03085700
H   -0.19782700   0.97165100   0.28584100
H    2.01275200   0.85264700   1.26532800
H    3.65164700   0.17268800   1.66120300
H    2.72840900  -1.97820100   2.11926500
H    0.36700300  -2.43440600   2.25105500
H   -1.20979400  -1.57008200   0.76770000
13
Energy:  -193.8792337236
C   -0.02224600   0.01071800  -0.19002500
H    0.99217700   0.01975800  -0.56892700
C    2.59634000   0.00357700   1.55210000
C    2.06851000  -1.19460500   1.78374000
C    0.66520200  -1.60820700   1.63017800
C   -0.23375600  -1.11786400   0.77803800
H   -0.70069700  -0.05805400  -1.03049000
H   -0.19590700   0.97092500   0.28872600
H    2.01120100   0.85300500   1.26393000
H    3.65062900   0.17261500   1.65632400
H    2.72755500  -1.97704900   2.11962100
H    0.36615100  -2.43461700   2.25224000
H   -1.20938700  -1.57224700   0.76493400
13
Energy:  -193.8791644310
C   -0.02100400   0.01063300  -0.18879600
H    0.99413800   0.01948000  -0.56610500
C    2.59499400   0.00391700   1.55031900
C    2.06704400  -1.19374800   1.78428600
C    0.66423700  -1.60829100   1.63146100
C   -0.23389400  -1.11885300   0.77786100
H   -0.69816800  -0.05597400  -1.02994100
H   -0.19402800   0.97033300   0.29168100
H    2.00968900   0.85332000   1.26262900
H    3.64964200   0.17252300   1.65139000
H    2.72688100  -1.97611500   2.12002400
H    0.36526700  -2.43482700   2.25345100
H   -1.20902400  -1.57444200   0.76213000
13
Energy:  -193.8790922731
C   -0.01947300   0.01074100  -0.18724200
H    0.99599500   0.01920400  -0.56328400
C    2.59359700   0.00426100   1.54854400
C    2.06606700  -1.19315100   1.78499900
C    0.66305200  -1.60837100   1.63273000
C   -0.23416300  -1.11987700   0.77761400
H   -0.69581800  -0.05396800  -1.02961200
H   -0.19218300   0.96959700   0.29450700
H    2.00819200   0.85371300   1.26139000
H    3.64867700   0.17238500   1.64645300
H    2.72599600  -1.97496900   2.12028700
H    0.36441000  -2.43499400   2.25465300
H   -1.20857600  -1.57661800   0.75935000
13
Energy:  -193.8790232684
C   -0.01847600   0.01063700  -0.18625000
H    0.99778600   0.01896300  -0.56073500
C    2.59239200   0.00429800   1.54703400
C    2.06473200  -1.19206300   1.78541600
C    0.66199000  -1.60829900   1.63369400
C   -0.23399500  -1.12083100   0.77767800
H   -0.69348500  -0.05213600  -1.02909000
H   -0.19055200   0.96909200   0.29713700
H    2.00681200   0.85410400   1.26032100
H    3.64780800   0.17226300   1.64196200
H    2.72546600  -1.97423800   2.12062500
H    0.36359200  -2.43520500   2.25579500
H   -1.20829700  -1.57863000   0.75680400
13
Energy:  -193.8789848093
C   -0.01827400   0.01038700  -0.18611100
H    0.99874600   0.01885300  -0.55948400
C    2.59190500   0.00451400   1.54626600
C    2.06353900  -1.19145400   1.78550100
C    0.66174800  -1.60826700   1.63424700
C   -0.23385700  -1.12123400   0.77772700
H   -0.69216200  -0.05121000  -1.02862400
H   -0.18976700   0.96899200   0.29851600
H    2.00617000   0.85420600   1.25983400
H    3.64737200   0.17220500   1.63974800
H    2.72539600  -1.97408700   2.12087200
H    0.36316700  -2.43532300   2.25636500
H   -1.20821000  -1.57962900   0.75553500
13
Energy:  -193.8788421298
C   -0.01501700   0.01087300  -0.18273100
H    1.00192200   0.01837800  -0.55433300
C    2.58922200   0.00519400   1.54311900
C    2.06259000  -1.19077800   1.78706800
C    0.65931300  -1.60840600   1.63667000
C   -0.23467400  -1.12307400   0.77707800
H   -0.68815900  -0.04779000  -1.02842600
H   -0.18658600   0.96742100   0.30333500
H    2.00357500   0.85508700   1.25794700
H    3.64569500   0.17175300   1.63064200
H    2.72338300  -1.97165900   2.12099900
H    0.36165300  -2.43547400   2.25852700
H   -1.20714300  -1.58357000   0.75049600
13
Energy:  -193.8786749364
C   -0.01290400   0.01058200  -0.18061400
H    1.00572400   0.01790200  -0.54881500
C    2.58708000   0.00594200   1.53988800
C    2.05920800  -1.18902100   1.78807900
C    0.65762900  -1.60831000   1.63927000
C   -0.23481800  -1.12485900   0.77681300
H   -0.68308800  -0.04407300  -1.02733400
H   -0.18330700   0.96636100   0.30880100
H    2.00075900   0.85601000   1.25614700
H    3.64371500   0.17122900   1.62073700
H    2.72218800  -1.97011200   2.12149100
H    0.35988400  -2.43578700   2.26096200
H   -1.20629400  -1.58790900   0.74496600
13
Energy:  -193.8784896103
C   -0.00996500   0.01073500  -0.17762400
H    1.00934200   0.01741000  -0.54311500
C    2.58419200   0.00674000   1.53653300
C    2.05730400  -1.18773200   1.78955600
C    0.65523400  -1.60830600   1.64199300
C   -0.23538100  -1.12675900   0.77632200
H   -0.67830200  -0.04042600  -1.02674500
H   -0.18001800   0.96494700   0.31409900
H    1.99805500   0.85700700   1.25451800
H    3.64194300   0.17055500   1.61049300
H    2.72032700  -1.96793400   2.12166100
H    0.35816400  -2.43596200   2.26336900
H   -1.20512100  -1.59232100   0.73933000
13
Energy:  -193.8782887153
C   -0.00753600   0.01061900  -0.17512700
H    1.01313800   0.01692100  -0.53736300
C    2.58193400   0.00740400   1.53330200
C    2.05429300  -1.18599200   1.79078000
C    0.65323700  -1.60811900   1.64471800
C   -0.23561800  -1.12858600   0.77602200
H   -0.67319200  -0.03678100  -1.02584900
H   -0.17679100   0.96374700   0.31948600
H    1.99522600   0.85818500   1.25301500
H    3.63989500   0.16979400   1.60002300
H    2.71885100  -1.96617100   2.12195500
H    0.35636300  -2.43623600   2.26584700
H   -1.20402600  -1.59683100   0.73358200
13
Energy:  -193.8780730029
C   -0.00476600   0.01068500  -0.17229200
H    1.01679700   0.01642700  -0.53155900
C    2.57904100   0.00822800   1.52999700
C    2.05213300  -1.18451000   1.79225600
C    0.65087000  -1.60799700   1.64752000
C   -0.23607000  -1.13041900   0.77561300
H   -0.66823100  -0.03323300  -1.02516900
H   -0.17362100   0.96243300   0.32471500
H    1.99260200   0.85929700   1.25172200
H    3.63810100   0.16892300   1.58943400
H    2.71702000  -1.96411500   2.12207500
H    0.35462500  -2.43642700   2.26824800
H   -1.20272800  -1.60133800   0.72782900
13
Energy:  -193.8778427938
C   -0.00229500   0.01062700  -0.16971600
H    1.02053300   0.01592800  -0.52574900
C    2.57682100   0.00885300   1.52685200
C    2.04921200  -1.18273900   1.79356700
C    0.64878800  -1.60771900   1.65028600
C   -0.23630500  -1.13219900   0.77535200
H   -0.66311800  -0.02973200  -1.02433500
H   -0.17051900   0.96124800   0.32992700
H    1.98983900   0.86064000   1.25051800
H    3.63599000   0.16796400   1.57871000
H    2.71544300  -1.96232200   2.12227700
H    0.35284600  -2.43671000   2.27066900
H   -1.20146000  -1.60588500   0.72203200
13
Energy:  -193.8775971564
C    0.00038600   0.01066400  -0.16693100
H    1.02417300   0.01541900  -0.51988800
C    2.57398900   0.00972500   1.52360700
C    2.04689300  -1.18119000   1.79508400
C    0.64651900  -1.60754400   1.65322100
C   -0.23678300  -1.13392000   0.77492300
H   -0.65808100  -0.02631100  -1.02362100
H   -0.16746400   0.96001800   0.33502200
H    1.98729800   0.86186500   1.24951700
H    3.63412700   0.16690500   1.56786600
H    2.71359300  -1.96032400   2.12236500
H    0.35112800  -2.43693000   2.27299400
H   -1.20000200  -1.61042400   0.71623300
13
Energy:  -193.8773367811
C    0.00286800   0.01066500  -0.16431500
H    1.02784400   0.01489500  -0.51402100
C    2.57156600   0.01032200   1.52051300
C    2.04420800  -1.17935500   1.79650000
C    0.64419500  -1.60714000   1.65590500
C   -0.23688700  -1.13568900   0.77482000
H   -0.65296300  -0.02293900  -1.02282600
H   -0.16446600   0.95887800   0.34006100
H    1.98466000   0.86329300   1.24859200
H    3.63204200   0.16576600   1.55691700
H    2.71189400  -1.95848400   2.12251100
H    0.34939700  -2.43726100   2.27532600
H   -1.19858300  -1.61499600   0.71040800
13
Energy:  -193.8770609375
C    0.00545600   0.01068900  -0.16157500
H    1.03144900   0.01435900  -0.50812800
C    2.56895100   0.01118300   1.51736200
C    2.04166400  -1.17773800   1.79803700
C    0.64206500  -1.60690500   1.65893300
C   -0.23738100  -1.13729500   0.77439400
H   -0.64787900  -0.01964500  -1.02208000
H   -0.16151500   0.95774600   0.34500100
H    1.98215500   0.86466400   1.24782100
H    3.63001400   0.16453400   1.54586900
H    2.71005600  -1.95655300   2.12261000
H    0.34771800  -2.43754800   2.27754500
H   -1.19697900  -1.61953500   0.70460100
13
Energy:  -193.8767702443
C    0.00792000   0.01072600  -0.15894000
H    1.03505200   0.01379900  -0.50222800
C    2.56641800   0.01179700   1.51432200
C    2.03909500  -1.17587700   1.79953800
C    0.63966300  -1.60643800   1.66161800
C   -0.23745600  -1.13899200   0.77435800
H   -0.64275900  -0.01640200  -1.02130100
H   -0.15861100   0.95667900   0.34986300
H    1.97963400   0.86615800   1.24713500
H    3.62790200   0.16323200   1.53474600
H    2.70826900  -1.95469100   2.12274300
H    0.34605200  -2.43794000   2.27975000
H   -1.19540400  -1.62409700   0.69878600
13
Energy:  -193.8764637469
C    0.01044500   0.01076100  -0.15621600
H    1.03860300   0.01322300  -0.49630700
C    2.56388600   0.01265500   1.51124400
C    2.03647200  -1.17421300   1.80112200
C    0.63758500  -1.60615000   1.66468900
C   -0.23794600  -1.14050000   0.77396800
H   -0.63765400  -0.01322900  -1.02054200
H   -0.15574700   0.95564300   0.35463800
H    1.97719700   0.86762900   1.24656900
H    3.62575100   0.16184100   1.52352800
H    2.70640400  -1.95278500   2.12286500
H    0.34443400  -2.43830600   2.28183600
H   -1.19365500  -1.62861600   0.69299600
13
Energy:  -193.8761420399
C    0.01286900   0.01082600  -0.15357600
H    1.04214300   0.01261800  -0.49037500
C    2.56131800   0.01326800   1.50826300
C    2.03394400  -1.17231300   1.80269000
C    0.63515000  -1.60562300   1.66737100
C   -0.23799000  -1.14211500   0.77400200
H   -0.63252600  -0.01010300  -1.01976400
H   -0.15292100   0.95466600   0.35933000
H    1.97476800   0.86919500   1.24608100
H    3.62355800   0.16038800   1.51224600
H    2.70455800  -1.95091600   2.12302000
H    0.34284200  -2.43878300   2.28389800
H   -1.19193800  -1.63315300   0.68720500
13
Energy:  -193.8758041559
C    0.01534300   0.01088000  -0.15085500
H    1.04563400   0.01199100  -0.48442400
C    2.55882100   0.01413200   1.50524600
C    2.03128600  -1.17061800   1.80433000
C    0.63311000  -1.60529400   1.67047600
C   -0.23848600  -1.14352400   0.77364800
H   -0.62740800  -0.00704400  -1.01899900
H   -0.15012900   0.95373000   0.36394100
H    1.97240700   0.87074500   1.24569400
H    3.62128600   0.15885100   1.50087600
H    2.70265500  -1.94901800   2.12318100
H    0.34130100  -2.43923800   2.28583100
H   -1.19004700  -1.63763900   0.68144700
13
Energy:  -193.8754506704
C    0.01772000   0.01097400  -0.14821500
H    1.04911200   0.01133000  -0.47845900
C    2.55623700   0.01473600   1.50232300
C    2.02877900  -1.16867600   1.80595600
C    0.63065600  -1.60471300   1.67314400
C   -0.23849800  -1.14505600   0.77375800
H   -0.62226800  -0.00402800  -1.01821700
H   -0.14736800   0.95285200   0.36846900
H    1.97006100   0.87237900   1.24537500
H    3.61898600   0.15725600   1.48944700
H    2.70076000  -1.94714400   2.12337900
H    0.33979300  -2.43981500   2.28773800
H   -1.18819600  -1.64214100   0.67569200
13
Energy:  -193.8750806444
C    0.02014600   0.01105000  -0.14549200
H    1.05254200   0.01064300  -0.47247500
C    2.55376000   0.01560900   1.49936000
C    2.02610200  -1.16695700   1.80765300
C    0.62865200  -1.60435300   1.67627500
C   -0.23900700  -1.14636600   0.77343800
H   -0.61713800  -0.00107500  -1.01744700
H   -0.14463500   0.95202100   0.37291700
H    1.96777700   0.87399200   1.24514300
H    3.61658400   0.15558300   1.47794100
H    2.69881700  -1.94524500   2.12359500
H    0.33834100  -2.44036800   2.28950500
H   -1.18616700  -1.64658100   0.66997800
13
Energy:  -193.8746946067
C    0.02247300   0.01117300  -0.14285100
H    1.05595800   0.00991600  -0.46647300
C    2.55116600   0.01620100   1.49649300
C    2.02361200  -1.16497400   1.80933400
C    0.62618400  -1.60372400   1.67891900
C   -0.23898900  -1.14781300   0.77363000
H   -0.61198500   0.00183900  -1.01666200
H   -0.14192800   0.95124800   0.37728400
H    1.96550900   0.87568600   1.24497000
H    3.61415800   0.15385800   1.46637900
H    2.69688100  -1.94336500   2.12385400
H    0.33692500  -2.44105300   2.29124600
H   -1.18419100  -1.65103800   0.66426700
13
Energy:  -193.8742916799
C    0.02485200   0.01127300  -0.14012100
H    1.05932400   0.00916100  -0.46045400
C    2.54870200   0.01708300   1.49357900
C    2.02092300  -1.16323700   1.81108600
C    0.62422000  -1.60334000   1.68207000
C   -0.23951700  -1.14902200   0.77334300
H   -0.60684400   0.00469100  -1.01588800
H   -0.13924400   0.95052400   0.38157400
H    1.96330300   0.87735300   1.24487400
H    3.61161700   0.15206000   1.45474900
H    2.69490000  -1.94146000   2.12413600
H    0.33557100  -2.44171100   2.29283700
H   -1.18203100  -1.65542100   0.65860600
13
Energy:  -193.8738723092
C    0.02712700   0.01142300  -0.13747900
H    1.06267700   0.00836100  -0.45441200
C    2.54610200   0.01766000   1.49076600
C    2.01845000  -1.16121500   1.81281800
C    0.62174100  -1.60266800   1.68468200
C   -0.23947400  -1.15038500   0.77361800
H   -0.60167800   0.00751000  -1.01509900
H   -0.13657900   0.94985900   0.38578500
H    1.96111100   0.87909900   1.24482600
H    3.60905300   0.15021500   1.44306700
H    2.69292800  -1.93957000   2.12446900
H    0.33425500  -2.44251100   2.29440500
H   -1.17993900  -1.65982400   0.65294600
13
Energy:  -193.8734357164
C    0.02945800   0.01154700  -0.13474200
H    1.06597700   0.00753000  -0.44835300
C    2.54365000   0.01855000   1.48789700
C    2.01575400  -1.15946400   1.81462200
C    0.61981900  -1.60226700   1.68784900
C   -0.24002800  -1.15149300   0.77336300
H   -0.59652600   0.01026700  -1.01432300
H   -0.13393500   0.94924600   0.38991800
H    1.95898100   0.88080900   1.24484800
H    3.60636500   0.14830200   1.43132700
H    2.69091300  -1.93765500   2.12482900
H    0.33300500  -2.44327700   2.29581200
H   -1.17765900  -1.66414200   0.64734400
13
Energy:  -193.8729822243
C    0.03167900   0.01172600  -0.13209900
H    1.06926700   0.00665100  -0.44226900
C    2.54104900   0.01911200   1.48513500
C    2.01330200  -1.15740400   1.81639900
C    0.61733000  -1.60155700   1.69042000
C   -0.23996400  -1.15277400   0.77372500
H   -0.59134700   0.01299400  -1.01353100
H   -0.13130400   0.94869200   0.39397700
H    1.95686200   0.88259900   1.24491000
H    3.60365500   0.14634800   1.41953700
H    2.68891100  -1.93575400   2.12524500
H    0.33179400  -2.44419600   2.29720300
H   -1.17546100  -1.66848200   0.64173800
13
Energy:  -193.8725111928
C    0.03396400   0.01187400  -0.12935300
H    1.07250400   0.00573900  -0.43616800
C    2.53860900   0.02001300   1.48231100
C    2.01060400  -1.15564600   1.81825100
C    0.61545400  -1.60114900   1.69359900
C   -0.24055400  -1.15378000   0.77350500
H   -0.58618800   0.01566000  -1.01275700
H   -0.12869200   0.94819100   0.39795900
H    1.95480400   0.88434700   1.24503300
H    3.60082300   0.14433300   1.40769900
H    2.68686900  -1.93382400   2.12569200
H    0.33065100  -2.44507400   2.29842300
H   -1.17307500  -1.67273000   0.63619700
13
Energy:  -193.8720190323
C    0.03616500   0.01207800  -0.12666900
H    1.07575300   0.00476400  -0.42998500
C    2.53602000   0.02064100   1.47957000
C    2.00810400  -1.15360100   1.82008900
C    0.61305300  -1.60046500   1.69627200
C   -0.24061700  -1.15492700   0.77383700
H   -0.58096000   0.01831200  -1.01196100
H   -0.12606800   0.94775100   0.40189200
H    1.95274200   0.88618600   1.24519500
H    3.59793200   0.14225300   1.39570600
H    2.68482700  -1.93189700   2.12621400
H    0.32954900  -2.44611900   2.29961900
H   -1.17072800  -1.67702300   0.63061200
13
Energy:  -193.8715309502
C    0.03831900   0.01225300  -0.12405100
H    1.07877300   0.00382100  -0.42413900
C    2.53400200   0.02215300   1.47674100
C    2.00530500  -1.15254800   1.82206200
C    0.61143200  -1.60002400   1.69935600
C   -0.24132000  -1.15578400   0.77359100
H   -0.57604500   0.02076400  -1.01122300
H   -0.12360400   0.94737100   0.40555000
H    1.95089300   0.88776800   1.24541600
H    3.59498500   0.14021600   1.38437300
H    2.68281500  -1.92997100   2.12669500
H    0.32856500  -2.44707200   2.30062400
H   -1.16834700  -1.68099200   0.62539600
13
Energy:  -193.8711130269
C    0.04003300   0.01239700  -0.12191200
H    1.08118900   0.00304200  -0.41944300
C    2.53240600   0.02345300   1.47446500
C    2.00299800  -1.15174600   1.82365100
C    0.61032000  -1.59970200   1.70195800
C   -0.24202000  -1.15636400   0.77325000
H   -0.57210700   0.02270000  -1.01063500
H   -0.12163300   0.94708300   0.40843800
H    1.94945100   0.88899700   1.24562400
H    3.59255900   0.13855200   1.37526700
H    2.68119000  -1.92842100   2.12710600
H    0.32779600  -2.44788100   2.30138500
H   -1.16641000  -1.68415600   0.62123600
13
Energy:  -193.8705616336
C    0.04133400   0.01252400  -0.11868300
H    1.08481300   0.00190400  -0.41330300
C    2.52923300   0.02328600   1.47206900
C    2.00067600  -1.14993300   1.82552800
C    0.60939700  -1.59787200   1.70445300
C   -0.24149000  -1.15613400   0.77286400
H   -0.56672000   0.02521800  -1.00969700
H   -0.11895500   0.94645400   0.41205600
H    1.94736500   0.89114200   1.24578400
H    3.58982600   0.13641600   1.36310900
H    2.67873700  -1.92604400   2.12758900
H    0.32646200  -2.45009500   2.30306000
H   -1.16490400  -1.68891200   0.61556100
13
Energy:  -193.8683499258
C    0.05066600   0.01391100  -0.10936100
H    1.09555900  -0.00297000  -0.38877400
C    2.52020500   0.02573400   1.46154600
C    1.99150500  -1.14067700   1.83271300
C    0.59831900  -1.59754900   1.71487700
C   -0.24339500  -1.16173100   0.77575100
H   -0.54695500   0.03425800  -1.00670800
H   -0.10922400   0.94680000   0.42555700
H    1.94029900   0.89827100   1.24752300
H    3.57659300   0.12754900   1.31675200
H    2.67135200  -1.91907100   2.13117900
H    0.32421100  -2.45338200   2.30393400
H   -1.15336100  -1.70318800   0.59540200
13
Energy:  -193.8657546454
C    0.05719500   0.01485100  -0.09755700
H    1.10739900  -0.00915300  -0.36305300
C    2.50966100   0.02799200   1.45129500
C    1.98161500  -1.13340300   1.84027500
C    0.59182200  -1.59388300   1.72485800
C   -0.24412800  -1.16261300   0.77653100
H   -0.52648800   0.04265000  -1.00341500
H   -0.09884500   0.94734100   0.43784900
H    1.93379200   0.90594500   1.24984100
H    3.56258100   0.11813500   1.26841100
H    2.66302300  -1.91065300   2.13568900
H    0.32176300  -2.46047500   2.30539500
H   -1.14361500  -1.71878100   0.57427200
13
Energy:  -193.8628704862
C    0.06479500   0.01675400  -0.08747800
H    1.11746000  -0.01600900  -0.33622400
C    2.50066600   0.03030600   1.44033300
C    1.97314400  -1.12580000   1.84736700
C    0.58284900  -1.59287100   1.73422100
C   -0.24681200  -1.16603400   0.77889100
H   -0.50668100   0.04994000  -0.99961600
H   -0.08823600   0.94946400   0.44906900
H    1.92792600   0.91360400   1.25303700
H    3.54676400   0.10868200   1.22088400
H    2.65516900  -1.90215900   2.14155500
H    0.32054300  -2.46572800   2.30429000
H   -1.13181300  -1.73219300   0.55406100
13
Energy:  -193.8596140970
C    0.07048100   0.01765300  -0.07528300
H    1.12811600  -0.02363500  -0.30727500
C    2.49070100   0.03199500   1.42865700
C    1.96320800  -1.11881900   1.85280300
C    0.57662800  -1.59018800   1.74187400
C   -0.24822200  -1.16605900   0.78032700
H   -0.48773600   0.05600800  -0.99550000
H   -0.07627900   0.95257600   0.45866400
H    1.92277200   0.92146600   1.25751600
H    3.53053200   0.09933100   1.17278700
H    2.64785900  -1.89311800   2.14946900
H    0.31912800  -2.47282400   2.30329100
H   -1.12141400  -1.74643300   0.53306200
13
Energy:  -193.8560225777
C    0.07677000   0.01914100  -0.06475700
H    1.13805200  -0.03095500  -0.27558900
C    2.48173900   0.03372400   1.41413600
C    1.95467700  -1.11354900   1.85629300
C    0.56990700  -1.58998800   1.74893400
C   -0.25231400  -1.16768000   0.78132600
H   -0.47120700   0.06040000  -0.99002700
H   -0.06274000   0.95683400   0.46620700
H    1.91830000   0.92930000   1.26389300
H    3.51323600   0.09033500   1.12688400
H    2.64050000  -1.88276500   2.15922900
H    0.31819200  -2.47787500   2.30068800
H   -1.10933900  -1.75896700   0.51317400
13
Energy:  -193.8519633099
C    0.08215600   0.01958200  -0.05478200
H    1.14973500  -0.03725200  -0.23950300
C    2.47069800   0.03225700   1.39579500
C    1.94596800  -1.10868800   1.85501400
C    0.56334700  -1.58870100   1.75250800
C   -0.25434400  -1.16755800   0.78295000
H   -0.45913200   0.06338500  -0.98337400
H   -0.04675900   0.96102000   0.47078700
H    1.91464500   0.93748000   1.27315100
H    3.49624500   0.08207300   1.08396800
H    2.63358400  -1.87105200   2.17152500
H    0.31708800  -2.48293800   2.29831700
H   -1.09745700  -1.77165500   0.49403400
13
Energy:  -193.8473924409
C    0.08823600   0.01923000  -0.04753600
H    1.16298700  -0.04161400  -0.20061700
C    2.45920100   0.03053000   1.37132000
C    1.93646600  -1.10810100   1.85075500
C    0.55875300  -1.58864700   1.75660700
C   -0.25813600  -1.16659600   0.78185100
H   -0.45351200   0.06518500  -0.97599600
H   -0.02970300   0.96424700   0.47239900
H    1.91275400   0.94461000   1.28504500
H    3.47949100   0.07523500   1.04829200
H    2.62687800  -1.85806600   2.18466800
H    0.31666400  -2.48574100   2.29533000
H   -1.08430500  -1.78231700   0.47827200
13
Energy:  -193.8419195834
C    0.09407500   0.01845000  -0.04385300
H    1.18065000  -0.04432500  -0.15935200
C    2.44329400   0.02303500   1.34116200
C    1.92844400  -1.10652500   1.84309400
C    0.55296000  -1.58673700   1.75690300
C   -0.25855800  -1.16409400   0.78281900
H   -0.45513500   0.06634800  -0.96915800
H   -0.01263200   0.96607800   0.47201500
H    1.91276300   0.95175000   1.29937400
H    3.46403000   0.07028300   1.02069400
H    2.62133500  -1.84547000   2.19827700
H    0.31683300  -2.48822000   2.29305700
H   -1.07228600  -1.79261900   0.46535900
13
Energy:  -193.8353194807
C    0.09961700   0.01718700  -0.04258300
H    1.20357400  -0.04576700  -0.11982000
C    2.42757100   0.01914600   1.30475300
C    1.91942200  -1.11004400   1.83800500
C    0.55277900  -1.58688600   1.76066000
C   -0.26338700  -1.16032000   0.78045500
H   -0.46310400   0.06704200  -0.96520800
H    0.00233900   0.96793700   0.47156100
H    1.91502600   0.95675600   1.31419400
H    3.44902900   0.06688600   1.00200100
H    2.61643700  -1.83429000   2.21018600
H    0.31767700  -2.48848600   2.29028700
H   -1.06120700  -1.80120800   0.45589700
13
Energy:  -193.8271130789
C    0.09403300   0.01483200  -0.03939900
H    1.23899700  -0.04687100  -0.08408900
C    2.40763000   0.00890600   1.26815000
C    1.91372800  -1.10819200   1.83259500
C    0.55025000  -1.58433400   1.75829100
C   -0.26364600  -1.15730500   0.78365500
H   -0.47482800   0.06793800  -0.96623500
H    0.01519900   0.97015900   0.47140000
H    1.91773900   0.96274200   1.32856900
H    3.43747600   0.06507600   0.98975800
H    2.61382000  -1.82675000   2.22099600
H    0.31834700  -2.48924900   2.28871200
H   -1.05297100  -1.80899900   0.44798900
13
Energy:  -193.8167400503
C    0.06953600   0.01323600  -0.03344200
H    1.28553500  -0.04797200  -0.05495800
C    2.39129200   0.00821000   1.23096100
C    1.90520500  -1.11444300   1.83290800
C    0.55648300  -1.58439000   1.76258400
C   -0.26871700  -1.15190400   0.77819400
H   -0.48439300   0.06845100  -0.96837200
H    0.02641000   0.97058800   0.47030500
H    1.92133700   0.96593000   1.34059500
H    3.42797900   0.06390400   0.98265400
H    2.61173500  -1.82120000   2.22909400
H    0.31891500  -2.48881000   2.28731800
H   -1.04554400  -1.81364700   0.44255100
13
Energy:  -193.8062535692
C    0.04361300   0.00820800  -0.02622500
H    1.32768000  -0.04880600  -0.03116400
C    2.37721600   0.01142600   1.19828300
C    1.89499300  -1.12301200   1.83498000
C    0.56632700  -1.58421200   1.76799400
C   -0.27260200  -1.14330300   0.77000600
H   -0.49203000   0.06902500  -0.97098000
H    0.03582000   0.97171300   0.46967500
H    1.92518900   0.96699600   1.35020600
H    3.42040200   0.06302300   0.97766800
H    2.61011300  -1.81690800   2.23548600
H    0.31929100  -2.48851600   2.28646100
H   -1.04023700  -1.81768000   0.43800100
13
Energy:  -193.7973366776
C    0.00125400   0.00800700  -0.01804100
H    1.37783900  -0.05009000  -0.00580100
C    2.35501500   0.00632200   1.15811400
C    1.88831500  -1.12638400   1.83834700
C    0.57185500  -1.58249200   1.76876300
C   -0.27025400  -1.13759500   0.76506000
H   -0.49631800   0.06956600  -0.97276900
H    0.04750600   0.96905200   0.46715400
H    1.92885100   0.97209900   1.36216200
H    3.41563700   0.06270900   0.97450200
H    2.61007100  -1.81505400   2.24350200
H    0.31948200  -2.48854400   2.28622800
H   -1.03347800  -1.81964300   0.43317000
13
Energy:  -193.7954449112
C   -0.00458000   0.00666600  -0.01662400
H    1.44310600  -0.05015100   0.02647800
C    2.35261900   0.00764500   1.15260400
C    1.88605100  -1.12893700   1.84006400
C    0.57474400  -1.58248600   1.77020200
C   -0.27026000  -1.13503800   0.76221800
H   -0.49863700   0.07001500  -0.97270200
H    0.06412400   0.96735900   0.46349100
H    1.93594500   0.97387000   1.37780500
H    3.41423000   0.06222200   0.97239400
H    2.60897900  -1.81181600   2.25196000
H    0.31991600  -2.48851300   2.28650300
H   -1.02737800  -1.82279700   0.42723900
13
Energy:  -193.7974670869
C   -0.01041400   0.00532600  -0.01520700
H    1.50837300  -0.05021200   0.05875700
C    2.35022300   0.00896800   1.14709400
C    1.88378700  -1.13149100   1.84178100
C    0.57763300  -1.58248000   1.77164100
C   -0.27026600  -1.13248000   0.75937600
H   -0.50095500   0.07046300  -0.97263500
H    0.08074300   0.96566600   0.45982700
H    1.94304000   0.97564100   1.39344800
H    3.41282200   0.06173500   0.97028500
H    2.60788800  -1.80857800   2.26041800
H    0.32035000  -2.48848100   2.28677700
H   -1.02127700  -1.82595000   0.42130700
13
Energy:  -193.8065132088
C   -0.05563200   0.01026500  -0.00869600
H    1.55851800  -0.04906900   0.08300900
C    2.33127600   0.00911500   1.10859900
C    1.88116900  -1.13726000   1.84681800
C    0.58192500  -1.58418400   1.77564500
C   -0.27147600  -1.12912100   0.75198800
H   -0.50608600   0.07053200  -0.97442000
H    0.09251200   0.96100400   0.45502100
H    1.94767200   0.97812400   1.40487600
H    3.40877200   0.06140600   0.96776000
H    2.60818200  -1.80679000   2.26844000
H    0.32019500  -2.48840900   2.28711700
H   -1.01508100  -1.82748600   0.41671400
13
Energy:  -193.8171091142
C   -0.09036400   0.00699800  -0.00012500
H    1.60308100  -0.04835800   0.10212000
C    2.32123800   0.01403100   1.08338700
C    1.87252800  -1.14592400   1.84880600
C    0.59207400  -1.58436400   1.78019100
C   -0.27580700  -1.12049500   0.74266900
H   -0.51445100   0.07128600  -0.97752400
H    0.10251400   0.96009800   0.45207400
H    1.95266600   0.97697600   1.41320800
H    3.40198700   0.06093900   0.96309800
H    2.60775700  -1.80278700   2.27530600
H    0.31970400  -2.48867500   2.28799200
H   -1.01098000  -1.83160000   0.41166700
13
Energy:  -193.8275495170
C   -0.12995600   0.00752200   0.00932100
H    1.65445800  -0.04742200   0.12143700
C    2.31108700   0.01555800   1.06023100
C    1.86542600  -1.15133100   1.84812900
C    0.59913000  -1.58444200   1.78260300
C   -0.28061000  -1.11414600   0.73569800
H   -0.52560400   0.07231900  -0.98086800
H    0.11424200   0.95718900   0.44753400
H    1.95838200   0.97649700   1.42323200
H    3.39436600   0.06052200   0.95657500
H    2.60790600  -1.79815800   2.28439100
H    0.31889700  -2.48905300   2.28934100
H   -1.00577800  -1.83693000   0.40524500
13
Energy:  -193.8357999973
C   -0.17127100   0.01791300   0.01544100
H    1.70451100  -0.04655200   0.12800700