[Molden Format]
[Title]
 Molden file created by orca_2mkl for BaseName=h-shift_056

[Atoms] AU
C    1   6         -0.5505471427         0.0610872870         0.0723802904 
H    2   1          3.5317601943        -0.0616731021         0.1618531536 
C    3   6          4.4243420980         0.0369517048         2.0008552587 
C    4   6          3.5166896284        -2.1967291519         3.4722961820 
C    5   6          1.1249161730        -3.0052295810         3.3286732164 
C    6   6         -0.6119065502        -2.1147169274         1.3566476196 
H    7   1         -1.2844733094         0.1813324506        -1.8123531871 
H    8   1          0.3116026114         1.7493440486         0.7691941256 
H    9   1          3.7953032907         1.8179656737         2.8064455096 
H   10   1          6.4443176057         0.1013762482         1.7720302108 
H   11   1          4.8946665869        -3.3032186054         4.4745672392 
H   12   1          0.5837496309        -4.6816377598         4.3414851660 
H   13   1         -1.8370726947        -3.5739218741         0.6561601569 
[GTO]
  1 0
s   6 1.0 
     3047.5249000000         0.5363343823
      457.3695100000         0.9894506076
      103.9486900000         1.5972822308
       29.2101550000         2.0791870615
        9.2866630000         1.7741742532
        3.1639270000         0.6125798260
s   3 1.0 
        7.8682724000        -0.3995563516
        1.8812885000        -0.1841552393
        0.5442493000         0.5163903794
p   3 1.0 
        7.8682724000         1.2960827175
        1.8812885000         0.9937536282
        0.5442493000         0.4959527138
s   1 1.0 
        0.1687144000         0.1876178721
p   1 1.0 
        0.1687144000         0.1541275509

  2 0
s   3 1.0 
       18.7311370000         0.2149354183
        2.8253937000         0.3645711272
        0.6401217000         0.4150514277
s   1 1.0 
        0.1612778000         0.1813806839

  3 0
s   6 1.0 
     3047.5249000000         0.5363343823
      457.3695100000         0.9894506076
      103.9486900000         1.5972822308
       29.2101550000         2.0791870615
        9.2866630000         1.7741742532
        3.1639270000         0.6125798260
s   3 1.0 
        7.8682724000        -0.3995563516
        1.8812885000        -0.1841552393
        0.5442493000         0.5163903794
p   3 1.0 
        7.8682724000         1.2960827175
        1.8812885000         0.9937536282
        0.5442493000         0.4959527138
s   1 1.0 
        0.1687144000         0.1876178721
p   1 1.0 
        0.1687144000         0.1541275509

  4 0
s   6 1.0 
     3047.5249000000         0.5363343823
      457.3695100000         0.9894506076
      103.9486900000         1.5972822308
       29.2101550000         2.0791870615
        9.2866630000         1.7741742532
        3.1639270000         0.6125798260
s   3 1.0 
        7.8682724000        -0.3995563516
        1.8812885000        -0.1841552393
        0.5442493000         0.5163903794
p   3 1.0 
        7.8682724000         1.2960827175
        1.8812885000         0.9937536282
        0.5442493000         0.4959527138
s   1 1.0 
        0.1687144000         0.1876178721
p   1 1.0 
        0.1687144000         0.1541275509

  5 0
s   6 1.0 
     3047.5249000000         0.5363343823
      457.3695100000         0.9894506076
      103.9486900000         1.5972822308
       29.2101550000         2.0791870615
        9.2866630000         1.7741742532
        3.1639270000         0.6125798260
s   3 1.0 
        7.8682724000        -0.3995563516
        1.8812885000        -0.1841552393
        0.5442493000         0.5163903794
p   3 1.0 
        7.8682724000         1.2960827175
        1.8812885000         0.9937536282
        0.5442493000         0.4959527138
s   1 1.0 
        0.1687144000         0.1876178721
p   1 1.0 
        0.1687144000         0.1541275509

  6 0
s   6 1.0 
     3047.5249000000         0.5363343823
      457.3695100000         0.9894506076
      103.9486900000         1.5972822308
       29.2101550000         2.0791870615
        9.2866630000         1.7741742532
        3.1639270000         0.6125798260
s   3 1.0 
        7.8682724000        -0.3995563516
        1.8812885000        -0.1841552393
        0.5442493000         0.5163903794
p   3 1.0 
        7.8682724000         1.2960827175
        1.8812885000         0.9937536282
        0.5442493000         0.4959527138
s   1 1.0 
        0.1687144000         0.1876178721
p   1 1.0 
        0.1687144000         0.1541275509

  7 0
s   3 1.0 
       18.7311370000         0.2149354183
        2.8253937000         0.3645711272
        0.6401217000         0.4150514277
s   1 1.0 
        0.1612778000         0.1813806839

  8 0
s   3 1.0 
       18.7311370000         0.2149354183
        2.8253937000         0.3645711272
        0.6401217000         0.4150514277
s   1 1.0 
        0.1612778000         0.1813806839

  9 0
s   3 1.0 
       18.7311370000         0.2149354183
        2.8253937000         0.3645711272
        0.6401217000         0.4150514277
s   1 1.0 
        0.1612778000         0.1813806839

 10 0
s   3 1.0 
       18.7311370000         0.2149354183
        2.8253937000         0.3645711272
        0.6401217000         0.4150514277
s   1 1.0 
        0.1612778000         0.1813806839

 11 0
s   3 1.0 
       18.7311370000         0.2149354183
        2.8253937000         0.3645711272
        0.6401217000         0.4150514277
s   1 1.0 
        0.1612778000         0.1813806839

 12 0
s   3 1.0 
       18.7311370000         0.2149354183
        2.8253937000         0.3645711272
        0.6401217000         0.4150514277
s   1 1.0 
        0.1612778000         0.1813806839

 13 0
s   3 1.0 
       18.7311370000         0.2149354183
        2.8253937000         0.3645711272
        0.6401217000         0.4150514277
s   1 1.0 
        0.1612778000         0.1813806839

[5D]
[7F]
[9G]
[MO]
 Sym=     1a
 Ene= -1.12371244842185E+01
 Spin= Alpha
 Occup= 2.000000
  1       0.005176464211
  2       0.000077038609
  3       0.000001137091
  4       0.000012339268
  5      -0.000045480638
  6       0.000658057540
  7      -0.000018689079
  8      -0.000055096555
  9       0.000363307115
 10      -0.000196344361
 11       0.000523886085
 12       0.012335709537
 13      -0.000064822408
 14       0.000009928823
 15       0.000165685343
 16      -0.000066254801
 17       0.003528316351
 18      -0.000901647301
 19      -0.002204737253
 20       0.001116738593
 21       0.984276126674
 22       0.024543515373
 23      -0.000149787480
 24       0.000028144273
 25      -0.000139351880
 26      -0.017058673797
 27       0.001539830693
 28      -0.001020839167
 29       0.001525697207
 30       0.106219736648
 31       0.001666315380
 32      -0.000182758069
 33      -0.000127119897
 34      -0.000000365824
 35       0.005290471622
 36       0.002319427054
 37       0.001886436174
 38      -0.000688445687
 39       0.109553403935
 40       0.002473265804
 41      -0.000105663376
 42       0.000088507237
 43      -0.000107122384
 44      -0.001899248044
 45      -0.000227435306
 46      -0.000440949798
 47      -0.000075937359
 48       0.000007470241
 49       0.000120197002
 50      -0.000002123158
 51      -0.000362114016
 52      -0.000202990913
 53       0.000815364308
 54      -0.000083222903
 55       0.000155945373
 56      -0.000248121643
 57       0.002108344055
 58      -0.000078235651
 59       0.000741180874
 60      -0.000044226650
 61       0.000216910890
 Sym=     1a
 Ene= -1.12368460536454E+01
 Spin= Alpha
 Occup= 2.000000
  1       0.050792968332
  2       0.000546682010
  3       0.000062836606
  4       0.000193492705
  5      -0.000153924200
  6       0.004960492203
  7       0.000315274752
  8      -0.002084373555
  9       0.001894208067
 10      -0.000086854634
 11       0.000676341867
 12      -0.001652896901
 13      -0.000008058053
 14       0.000035297368
 15       0.000043760459
 16      -0.000035079489
 17      -0.000691277273
 18       0.000284783157
 19       0.000085210078
 20       0.000323648682
 21      -0.114293472981
 22      -0.003193718499
 23       0.000179563454
 24       0.000030405753
 25       0.000095368122
 26       0.002412277790
 27      -0.000963796142
 28      -0.000143841567
 29      -0.000470940865
 30       0.037469664564
 31       0.000446189114
 32       0.000147122418
 33      -0.000049037280
 34       0.000123482689
 35       0.002549893904
 36      -0.001771982553
 37       0.000895456792
 38      -0.001539547868
 39       0.987550831550
 40       0.024739281703
 41       0.000205334946
 42       0.000073520771
 43      -0.000078453890
 44      -0.016968730389
 45      -0.001454651211
 46      -0.001268463488
 47      -0.000092746326
 48      -0.000087890530
 49       0.000530746273
 50      -0.000256821787
 51       0.000089192871
 52       0.000054652300
 53      -0.000163259981
 54       0.000017189310
 55      -0.000034561912
 56       0.000077183985
 57       0.000128459777
 58      -0.000069658248
 59       0.000212640223
 60      -0.000224543028
 61       0.002272254715
 Sym=     1a
 Ene= -1.12292022112272E+01
 Spin= Alpha
 Occup= 2.000000
  1      -0.006023178732
  2      -0.000253404718
  3      -0.000017472150
  4       0.000102777991
  5      -0.000149115355
  6      -0.000943242154
  7      -0.000276429347
  8       0.000126060143
  9       0.000042497461
 10       0.000012230976
 11       0.000218138314
 12      -0.002285231977
 13      -0.000072157285
 14       0.000095272500
 15       0.000086793087
 16      -0.000106164158
 17      -0.001584178763
 18       0.000201863679
 19       0.000635927534
 20       0.000024818422
 21      -0.101876151799
 22      -0.003511028716
 23       0.000226089845
 24       0.000026054291
 25       0.000051181064
 26       0.009287199744
 27      -0.003324334903
 28       0.000030433281
 29      -0.001424421288
 30       0.989783319880
 31       0.025146542900
 32       0.000178877138
 33       0.000129753044
 34      -0.000316105861
 35      -0.019577477565
 36      -0.001687375611
 37      -0.002346231495
 38       0.002424877192
 39      -0.049189696537
 40      -0.001875142343
 41      -0.000138782772
 42       0.000051817665
 43      -0.000109222880
 44       0.006306238969
 45       0.002438494455
 46      -0.000082177305
 47       0.001647916652
 48       0.000055693163
 49       0.000244715372
 50      -0.000022839502
 51       0.000178354078
 52      -0.000015558496
 53      -0.000145849176
 54       0.000071052201
 55       0.000251468424
 56      -0.000053886171
 57       0.000217284398
 58      -0.000264099465
 59       0.001774024723
 60      -0.000093503717
 61       0.000318301072
 Sym=     1a
 Ene= -1.12212555878446E+01
 Spin= Alpha
 Occup= 2.000000
  1       0.994838481317
  2       0.025183084232
  3       0.000201995258
  4      -0.000211662146
  5       0.000041708066
  6      -0.017446731584
  7      -0.000808081255
  8       0.001667453063
  9      -0.000966371257
 10      -0.000089065142
 11       0.001979669662
 12      -0.000311650313
 13      -0.000077359241
 14       0.000158954592
 15      -0.000023555007
 16      -0.000066947129
 17      -0.000265676613
 18      -0.000792519846
 19      -0.000005736510
 20       0.001178535564
 21       0.000122354100
 22       0.000079696304
 23       0.000030689050
 24      -0.000016511568
 25       0.000035507706
 26      -0.000563475455
 27      -0.000020371769
 28      -0.000575687583
 29       0.000221866513
 30       0.003519956041
 31       0.000011511625
 32       0.000073458363
 33      -0.000082831313
 34       0.000092274382
 35      -0.000287694544
 36      -0.000230604107
 37       0.000144286785
 38      -0.000181661031
 39      -0.051835876443
 40      -0.002086616268
 41       0.000033736764
 42      -0.000255178799
 43       0.000136224563
 44       0.006919319890
 45       0.000199940231
 46       0.002721436320
 47      -0.001575436900
 48      -0.000166699852
 49       0.002744535137
 50      -0.000035687678
 51       0.002839288306
 52      -0.000035341479
 53      -0.000713240726
 54       0.000108094663
 55       0.000546566127
 56      -0.000021000612
 57      -0.000108735751
 58       0.000038886192
 59       0.000279002538
 60      -0.000120307807
 61       0.000006828286
 Sym=     1a
 Ene= -1.12105115962437E+01
 Spin= Alpha
 Occup= 2.000000
  1       0.000311616664
  2      -0.000080079894
  3      -0.000065740963
  4      -0.000034186923
  5      -0.000135067609
  6       0.000394945451
  7       0.000284403831
  8      -0.000115185074
  9       0.001011494100
 10       0.000061169431
 11       0.003602118034
 12       0.996120249725
 13       0.026263566403
 14      -0.000128580209
 15      -0.000045640404
 16       0.000038722943
 17      -0.019439669108
 18       0.000812082581
 19       0.000815792034
 20      -0.000342975018
 21      -0.012776133697
 22      -0.000749562630
 23      -0.000074552922
 24      -0.000099155950
 25       0.000063319501
 26       0.004145101354
 27       0.001383689181
 28       0.002107288702
 29      -0.001236008966
 30       0.000998984619
 31      -0.000196061332
 32      -0.000106334485
 33      -0.000087112738
 34       0.000019099006
 35       0.000735169837
 36       0.000647088427
 37       0.000550928236
 38      -0.000131200793
 39       0.000164049210
 40       0.000010877347
 41      -0.000070682936
 42      -0.000043326064
 43      -0.000015254979
 44      -0.000759569334
 45      -0.000169968926
 46      -0.000404549731
 47      -0.000000375240
 48       0.000121304390
 49       0.000503297689
 50      -0.000026556954
 51      -0.000323630771
 52       0.000065061086
 53       0.003332357260
 54       0.000023516405
 55       0.003058890214
 56      -0.000160322330
 57      -0.000039937108
 58       0.000045585952
 59       0.000498752965
 60      -0.000018963001
 61       0.000003453469
 Sym=     1a
 Ene= -1.10698374954869E+00
 Spin= Alpha
 Occup= 2.000000
  1       0.073797730419
  2      -0.142788353465
  3      -0.009755936646
  4       0.052245220310
  5      -0.035883125527
  6      -0.100308565249
  7      -0.003167881530
  8       0.002784929549
  9       0.002224666869
 10      -0.045640794361
 11       0.000854711957
 12       0.073041528799
 13      -0.134131759551
 14       0.026653928251
 15       0.035030525460
 16      -0.015432427380
 17      -0.130100198058
 18       0.017273773734
 19       0.004636727887
 20       0.000755759956
 21       0.113801263004
 22      -0.225833890735
 23       0.065825933039
 24      -0.000331552735
 25       0.028884486817
 26      -0.133907085786
 27      -0.001430153275
 28       0.004286602110
 29      -0.001588591628
 30       0.123464413152
 31      -0.243328264906
 32      -0.042886201380
 33      -0.039940885558
 34       0.037397432154
 35      -0.160580966739
 36      -0.001653393545
 37      -0.002558629204
 38       0.006128771541
 39       0.108194912978
 40      -0.213763790770
 41      -0.042609564142
 42      -0.023236366374
 43      -0.009415539505
 44      -0.136917889154
 45      -0.007519280992
 46      -0.000493182573
 47      -0.002841064964
 48      -0.032068983763
 49      -0.000661332471
 50      -0.039597056909
 51      -0.005919712448
 52      -0.036588903568
 53       0.000025800295
 54      -0.032751838384
 55      -0.006509782087
 56      -0.051516751230
 57      -0.003930315063
 58      -0.055970842899
 59      -0.006641932458
 60      -0.051772787531
 61      -0.008166443746
 Sym=     1a
 Ene= -1.01675268997464E+00
 Spin= Alpha
 Occup= 2.000000
  1      -0.124041736857
  2       0.242604135361
  3      -0.006536787919
  4      -0.077279291923
  5       0.036183412793
  6       0.192344877071
  7       0.002318222037
  8      -0.003850828441
  9       0.004510060764
 10      -0.048202407297
 11      -0.005142509374
 12       0.096990791962
 13      -0.185108702916
 14       0.010272793998
 15       0.034025150050
 16      -0.023233567573
 17      -0.171483848200
 18       0.000151077618
 19       0.001978977460
 20      -0.003372688033
 21       0.101223622355
 22      -0.201459998313
 23      -0.000639053933
 24      -0.021912897256
 25       0.021113827720
 26      -0.149976553249
 27       0.000239470824
 28      -0.003988649966
 29       0.004867909193
 30       0.020027263935
 31      -0.039420620547
 32      -0.102003161685
 33      -0.002085131520
 34      -0.042030408849
 35      -0.025804323988
 36      -0.006895761862
 37       0.010256826953
 38      -0.009027818770
 39      -0.118084318070
 40       0.235822238430
 41      -0.012686810095
 42       0.072188496538
 43      -0.061862238393
 44       0.166517348503
 45      -0.007766149299
 46      -0.005452466871
 47      -0.007162900019
 48       0.071783436359
 49       0.016412274374
 50       0.062831412005
 51       0.006046630170
 52      -0.054795599113
 53      -0.005300158934
 54      -0.057846966769
 55      -0.009354385370
 56      -0.062268374177
 57      -0.016254840180
 58      -0.009915964047
 59       0.002790986610
 60       0.071488739940
 61       0.012799342357
 Sym=     1a
 Ene= -9.43571079612501E-01
 Spin= Alpha
 Occup= 2.000000
  1      -0.078689517927
  2       0.152206181469
  3       0.006267806704
  4      -0.003504486645
  5       0.001254781615
  6       0.141764613261
  7       0.008941004506
  8       0.001949751152
  9       0.000678411136
 10       0.102208111829
 11       0.019703696671
 12      -0.137191592418
 13       0.256811767104
 14       0.004984453002
 15       0.020208626223
 16      -0.016853046692
 17       0.293112330382
 18      -0.009433785884
 19       0.000856126071
 20      -0.003591051024
 21       0.029109271143
 22      -0.054946538201
 23       0.123478756752
 24       0.113274332234
 25      -0.044238664765
 26      -0.073191436225
 27       0.019229824405
 28       0.007983881818
 29      -0.000943906914
 30       0.120493201906
 31      -0.239675503555
 32      -0.032875078482
 33       0.016850330820
 34      -0.006443858941
 35      -0.188770695900
 36       0.004922089617
 37       0.016513702705
 38      -0.003657387029
 39       0.005178763386
 40      -0.011315648666
 41      -0.038144692357
 42       0.089501102149
 43      -0.087762296837
 44      -0.013352487964
 45      -0.011892017205
 46       0.005081661049
 47      -0.015144310548
 48       0.056626771093
 49       0.017763923047
 50       0.064109120106
 51       0.019498058662
 52       0.098387188646
 53       0.023810433181
 54       0.098398562009
 55       0.027892123854
 56      -0.020610702650
 57      -0.007815880950
 58      -0.092007477980
 59      -0.025223853184
 60      -0.009202506852
 61      -0.007313119606
 Sym=     1a
 Ene= -8.11225789189485E-01
 Spin= Alpha
 Occup= 2.000000
  1       0.101525963393
  2      -0.201290692459
  3      -0.000240042891
  4      -0.077837865550
  5       0.051401439969
  6      -0.194216457041
  7      -0.002272509937
  8      -0.030563972566
  9       0.019927731322
 10       0.054117689343
 11       0.022128437136
 12      -0.064345970256
 13       0.122723637519
 14       0.027897990436
 15       0.066365423495
 16      -0.041879977737
 17       0.152741578401
 18       0.015899776412
 19       0.015251619460
 20      -0.008752302436
 21       0.092324152688
 22      -0.185418575863
 23       0.011644470873
 24       0.077565046799
 25      -0.056336052496
 26      -0.182216565499
 27      -0.015623302931
 28       0.016478082876
 29      -0.017714339489
 30      -0.025963758138
 31       0.053610643271
 32      -0.196284201013
 33      -0.018161761703
 34      -0.088265617342
 35       0.044258535184
 36      -0.046034541261
 37      -0.005264271207
 38      -0.019699689135
 39      -0.085437891812
 40       0.174142233314
 41       0.007842945777
 42      -0.148309062947
 43       0.083876516057
 44       0.164878648244
 45       0.000012228035
 46      -0.048676721967
 47       0.023762083629
 48      -0.113332239287
 49      -0.048059090762
 50      -0.108593476347
 51      -0.041475700324
 52       0.064952459804
 53       0.026448929349
 54       0.068249952166
 55       0.023353064393
 56      -0.109908229152
 57      -0.044059132788
 58       0.035011280423
 59       0.016081214152
 60       0.109596185942
 61       0.046173843301
 Sym=     1a
 Ene= -7.22965284734610E-01
 Spin= Alpha
 Occup= 2.000000
  1       0.035108963332
  2      -0.068404333113
  3      -0.072535485239
  4      -0.193454948383
  5       0.020915813996
  6      -0.079487474106
  7      -0.029646335974
  8      -0.061062346961
  9       0.009265283401
 10      -0.076901726471
 11      -0.039583170975
 12       0.017067715461
 13      -0.027235161229
 14       0.047854794473
 15      -0.113729168703
 16       0.092626704639
 17      -0.055588411917
 18       0.026005389607
 19      -0.040824669671
 20       0.034892098425
 21      -0.074564145611
 22       0.151450724178
 23       0.184717571084
 24      -0.005290472045
 25       0.039045635929
 26       0.161731945376
 27       0.072199662368
 28      -0.010891398364
 29       0.018754403285
 30       0.079983004502
 31      -0.163045003383
 32       0.026557893626
 33       0.035833360942
 34      -0.030906422143
 35      -0.165738265962
 36       0.024699746807
 37       0.035363833782
 38      -0.017561386334
 39      -0.070439135033
 40       0.142391561169
 41      -0.120731604080
 42      -0.018766505406
 43      -0.130359909450
 44       0.145571136397
 45      -0.045147088916
 46      -0.033637461649
 47      -0.037059024086
 48      -0.037433406531
 49      -0.017974974989
 50      -0.138465636557
 51      -0.083434048370
 52      -0.058480965013
 53      -0.030742471904
 54       0.004627224308
 55       0.003726731306
 56       0.151783114259
 57       0.076669664193
 58      -0.106144540261
 59      -0.043569726662
 60       0.136457723842
 61       0.065544010601
 Sym=     1a
 Ene= -6.70769857277221E-01
 Spin= Alpha
 Occup= 2.000000
  1      -0.022642054611
  2       0.045112201615
  3      -0.077996236720
  4       0.076226235417
  5      -0.166034500036
  6       0.063061353970
  7      -0.034368568360
  8       0.018771831218
  9      -0.059433495234
 10      -0.018696085525
 11      -0.013000540500
 12      -0.019514048596
 13       0.037445932528
 14       0.147840604914
 15       0.071247667806
 16      -0.009446559282
 17       0.054950718651
 18       0.069805072547
 19       0.025066016854
 20      -0.000529012621
 21       0.021356793912
 22      -0.044046675099
 23       0.133212146630
 24      -0.100061706693
 25       0.105325132645
 26      -0.031851496615
 27       0.038996187994
 28      -0.038628087261
 29       0.039008492235
 30      -0.021612054844
 31       0.041099016611
 32      -0.094604764477
 33      -0.240059540591
 34       0.141249653116
 35       0.064145144922
 36      -0.037247408441
 37      -0.098378127909
 38       0.053771959631
 39       0.023204475947
 40      -0.048396676890
 41      -0.123484331087
 42      -0.134648300650
 43      -0.033886566317
 44      -0.045717765390
 45      -0.044740073501
 46      -0.043686084250
 47      -0.010336256034
 48       0.129534501074
 49       0.081797798718
 50       0.007162619923
 51       0.010086971408
 52       0.025622325617
 53       0.016127825831
 54       0.105032170128
 55       0.061536717082
 56       0.087248597918
 57       0.059443452702
 58       0.187594778428
 59       0.113210870305
 60       0.080083181510
 61       0.056975870809
 Sym=     1a
 Ene= -5.99431067485611E-01
 Spin= Alpha
 Occup= 2.000000
  1       0.008744148736
  2      -0.019745312661
  3      -0.125910922283
  4      -0.101871119014
  5      -0.260684398499
  6      -0.032843221048
  7      -0.057685534542
  8      -0.050358572948
  9      -0.121619264675
 10       0.071623224954
 11       0.050427763921
 12      -0.011278158591
 13       0.023029720042
 14      -0.118711884326
 15       0.013185782977
 16      -0.069763097204
 17       0.025690858693
 18      -0.040645981505
 19       0.009219365561
 20      -0.034412706890
 21      -0.003760861460
 22       0.009084858742
 23      -0.243832843264
 24       0.022667297241
 25      -0.096698539333
 26       0.012701038049
 27      -0.108663520601
 28       0.022132205194
 29      -0.053457399562
 30      -0.008637631168
 31       0.020690123856
 32       0.204822292686
 33       0.034246372244
 34       0.021899913394
 35      -0.022428017235
 36       0.057955209565
 37      -0.012678821894
 38       0.012199644928
 39       0.018800330778
 40      -0.043880866154
 41      -0.097363934332
 42      -0.102262171420
 43      -0.145046867336
 44      -0.025103737839
 45      -0.019019860667
 46      -0.026504609845
 47      -0.057647551688
 48       0.165135180450
 49       0.115860102547
 50      -0.146062654671
 51      -0.094466196408
 52       0.017392246038
 53       0.006276381333
 54      -0.058422232249
 55      -0.051733711555
 56      -0.138700672968
 57      -0.093826722790
 58      -0.035542259074
 59      -0.036657204380
 60       0.091708507364
 61       0.075528396968
 Sym=     1a
 Ene= -5.83798121002577E-01
 Spin= Alpha
 Occup= 2.000000
  1      -0.006720242977
  2       0.018663852167
  3      -0.027909586505
  4      -0.274254702372
  5       0.168301078881
  6      -0.018019879984
  7      -0.016395313175
  8      -0.101073777829
  9       0.059439177854
 10      -0.005443981105
 11      -0.005764518496
 12      -0.008941188590
 13       0.012848151638
 14       0.079316456593
 15       0.206550718486
 16      -0.035193665027
 17       0.041153995632
 18       0.034104364684
 19       0.087506778817
 20      -0.009031247914
 21       0.021459680309
 22      -0.043197836767
 23      -0.134717810700
 24      -0.128355079939
 25       0.113022265512
 26      -0.076260322037
 27      -0.052150593761
 28      -0.047563311791
 29       0.049455790931
 30      -0.012578403888
 31       0.026062448251
 32       0.145577476761
 33      -0.050275425065
 34       0.166327764169
 35       0.025529864985
 36       0.051935304454
 37      -0.023136743508
 38       0.072886497197
 39      -0.006482661513
 40       0.016275044048
 41      -0.030547508357
 42       0.290855259573
 43      -0.158802652621
 44      -0.006272008339
 45      -0.006616018624
 46       0.105728216444
 47      -0.045840832356
 48      -0.096755541586
 49      -0.075585656084
 50      -0.105783376525
 51      -0.074994362841
 52       0.096679890713
 53       0.072816015323
 54       0.066426965676
 55       0.048192775889
 56      -0.005892449171
 57      -0.000392485788
 58       0.069561141489
 59       0.047024316458
 60      -0.080552679737
 61      -0.059927090605
 Sym=     1a
 Ene= -5.66736581500099E-01
 Spin= Alpha
 Occup= 2.000000
  1      -0.004491009994
  2       0.008780627649
  3       0.027509515577
  4      -0.075280970511
  5       0.006704974862
  6       0.006039443510
  7       0.015647902248
  8      -0.027334048030
  9      -0.012693453043
 10       0.152290654523
 11       0.125622534299
 12      -0.001194286694
 13       0.003277374889
 14       0.155613757393
 15      -0.208819101367
 16      -0.306007468846
 17       0.000456018085
 18       0.083668157152
 19      -0.109312925486
 20      -0.151611815153
 21       0.013627051203
 22      -0.027805684910
 23       0.020241725564
 24      -0.108158869173
 25      -0.080069266276
 26      -0.042203006765
 27       0.009203372902
 28      -0.048656184506
 29      -0.043934668582
 30      -0.007021850324
 31       0.013321638953
 32       0.023627247226
 33      -0.051631448351
 34      -0.046231526503
 35       0.016801404352
 36       0.016527641006
 37      -0.034535533205
 38      -0.030606212723
 39       0.003480651887
 40      -0.008695701767
 41       0.076909235242
 42       0.068444435407
 43      -0.025865428848
 44      -0.009591837244
 45       0.047010077401
 46       0.035841664418
 47      -0.009516947404
 48      -0.008690496474
 49      -0.012470063777
 50      -0.037043714466
 51      -0.038540023958
 52      -0.235594974965
 53      -0.184741747862
 54       0.123159250325
 55       0.091057382985
 56       0.003650145115
 57       0.006644402061
 58       0.016441674723
 59       0.010339496600
 60      -0.063092755288
 61      -0.042882474787
 Sym=     1a
 Ene= -5.46203592472313E-01
 Spin= Alpha
 Occup= 2.000000
  1      -0.018030873851
  2       0.039867888687
  3      -0.095525113190
  4      -0.057417601743
  5      -0.117812727606
  6       0.027275000382
  7      -0.066510453496
  8      -0.026555799532
  9      -0.073811790941
 10      -0.189339007344
 11      -0.146881371485
 12      -0.006944612420
 13       0.019016511902
 14       0.258096125804
 15      -0.058660427343
 16       0.195938755419
 17      -0.015692137144
 18       0.156349567667
 19      -0.024829242420
 20       0.098478561446
 21       0.006951859894
 22      -0.014742626183
 23      -0.054046778724
 24       0.127695810371
 25      -0.058160261216
 26      -0.006416696828
 27      -0.043128665755
 28       0.085936005259
 29      -0.042749997493
 30      -0.034409225081
 31       0.076394077728
 32      -0.045431342893
 33       0.112713975199
 34      -0.063464201586
 35       0.069276709757
 36      -0.020916057398
 37       0.026900912724
 38      -0.004313617896
 39       0.006553036104
 40      -0.012195891274
 41       0.121820600798
 42       0.086903141501
 43       0.103517239505
 44      -0.005001269915
 45       0.072967237527
 46       0.065404605466
 47       0.063571236496
 48       0.121843962064
 49       0.085228673273
 50      -0.086872656743
 51      -0.066217956081
 52      -0.029780305126
 53      -0.019732967907
 54       0.171588353424
 55       0.129385137032
 56      -0.100894304654
 57      -0.062030229402
 58      -0.032008927826
 59      -0.040650880268
 60      -0.127574267259
 61      -0.086631153675
 Sym=     1a
 Ene= -5.08224526088101E-01
 Spin= Alpha
 Occup= 2.000000
  1       0.011997244416
  2      -0.026324373240