[Molden Format]
[Title]
 Molden file created by orca_2mkl for BaseName=h-shift_003

[Atoms] AU
C    1   6         -0.0449074518         0.0200575532        -0.3620431814 
H    2   1          1.8713901212         0.0378871193        -1.0804112328 
C    3   6          4.9089226808         0.0061718456         2.9364359909 
C    4   6          3.9108902794        -2.2586328006         3.3694780728 
C    5   6          1.2592133402        -3.0388610371         3.0782523783 
C    6   6         -0.4412510523        -2.1105085073         1.4707417247 
H    7   1         -1.3285530612        -0.1136216735        -1.9480374132 
H    8   1         -0.3738388519         1.8361542878         0.5401612078 
H    9   1          3.8035500555         1.6112693189         2.3911233896 
H   10   1          6.9006127678         0.3263330266         3.1392187228 
H   11   1          5.1559457913        -3.7382581278         4.0048304552 
H   12   1          0.6935351603        -4.6003606388         4.2538774624 
H   13   1         -2.2861793385        -2.9670249878         1.4507427530 
[GTO]
  1 0
s   6 1.0 
     3047.5249000000         0.5363343823
      457.3695100000         0.9894506076
      103.9486900000         1.5972822308
       29.2101550000         2.0791870615
        9.2866630000         1.7741742532
        3.1639270000         0.6125798260
s   3 1.0 
        7.8682724000        -0.3995563516
        1.8812885000        -0.1841552393
        0.5442493000         0.5163903794
p   3 1.0 
        7.8682724000         1.2960827175
        1.8812885000         0.9937536282
        0.5442493000         0.4959527138
s   1 1.0 
        0.1687144000         0.1876178721
p   1 1.0 
        0.1687144000         0.1541275509

  2 0
s   3 1.0 
       18.7311370000         0.2149354183
        2.8253937000         0.3645711272
        0.6401217000         0.4150514277
s   1 1.0 
        0.1612778000         0.1813806839

  3 0
s   6 1.0 
     3047.5249000000         0.5363343823
      457.3695100000         0.9894506076
      103.9486900000         1.5972822308
       29.2101550000         2.0791870615
        9.2866630000         1.7741742532
        3.1639270000         0.6125798260
s   3 1.0 
        7.8682724000        -0.3995563516
        1.8812885000        -0.1841552393
        0.5442493000         0.5163903794
p   3 1.0 
        7.8682724000         1.2960827175
        1.8812885000         0.9937536282
        0.5442493000         0.4959527138
s   1 1.0 
        0.1687144000         0.1876178721
p   1 1.0 
        0.1687144000         0.1541275509

  4 0
s   6 1.0 
     3047.5249000000         0.5363343823
      457.3695100000         0.9894506076
      103.9486900000         1.5972822308
       29.2101550000         2.0791870615
        9.2866630000         1.7741742532
        3.1639270000         0.6125798260
s   3 1.0 
        7.8682724000        -0.3995563516
        1.8812885000        -0.1841552393
        0.5442493000         0.5163903794
p   3 1.0 
        7.8682724000         1.2960827175
        1.8812885000         0.9937536282
        0.5442493000         0.4959527138
s   1 1.0 
        0.1687144000         0.1876178721
p   1 1.0 
        0.1687144000         0.1541275509

  5 0
s   6 1.0 
     3047.5249000000         0.5363343823
      457.3695100000         0.9894506076
      103.9486900000         1.5972822308
       29.2101550000         2.0791870615
        9.2866630000         1.7741742532
        3.1639270000         0.6125798260
s   3 1.0 
        7.8682724000        -0.3995563516
        1.8812885000        -0.1841552393
        0.5442493000         0.5163903794
p   3 1.0 
        7.8682724000         1.2960827175
        1.8812885000         0.9937536282
        0.5442493000         0.4959527138
s   1 1.0 
        0.1687144000         0.1876178721
p   1 1.0 
        0.1687144000         0.1541275509

  6 0
s   6 1.0 
     3047.5249000000         0.5363343823
      457.3695100000         0.9894506076
      103.9486900000         1.5972822308
       29.2101550000         2.0791870615
        9.2866630000         1.7741742532
        3.1639270000         0.6125798260
s   3 1.0 
        7.8682724000        -0.3995563516
        1.8812885000        -0.1841552393
        0.5442493000         0.5163903794
p   3 1.0 
        7.8682724000         1.2960827175
        1.8812885000         0.9937536282
        0.5442493000         0.4959527138
s   1 1.0 
        0.1687144000         0.1876178721
p   1 1.0 
        0.1687144000         0.1541275509

  7 0
s   3 1.0 
       18.7311370000         0.2149354183
        2.8253937000         0.3645711272
        0.6401217000         0.4150514277
s   1 1.0 
        0.1612778000         0.1813806839

  8 0
s   3 1.0 
       18.7311370000         0.2149354183
        2.8253937000         0.3645711272
        0.6401217000         0.4150514277
s   1 1.0 
        0.1612778000         0.1813806839

  9 0
s   3 1.0 
       18.7311370000         0.2149354183
        2.8253937000         0.3645711272
        0.6401217000         0.4150514277
s   1 1.0 
        0.1612778000         0.1813806839

 10 0
s   3 1.0 
       18.7311370000         0.2149354183
        2.8253937000         0.3645711272
        0.6401217000         0.4150514277
s   1 1.0 
        0.1612778000         0.1813806839

 11 0
s   3 1.0 
       18.7311370000         0.2149354183
        2.8253937000         0.3645711272
        0.6401217000         0.4150514277
s   1 1.0 
        0.1612778000         0.1813806839

 12 0
s   3 1.0 
       18.7311370000         0.2149354183
        2.8253937000         0.3645711272
        0.6401217000         0.4150514277
s   1 1.0 
        0.1612778000         0.1813806839

 13 0
s   3 1.0 
       18.7311370000         0.2149354183
        2.8253937000         0.3645711272
        0.6401217000         0.4150514277
s   1 1.0 
        0.1612778000         0.1813806839

[5D]
[7F]
[9G]
[MO]
 Sym=     1a
 Ene= -1.12361076072604E+01
 Spin= Alpha
 Occup= 2.000000
  1      -0.000302881866
  2       0.000012372485
  3       0.000011407861
  4      -0.000042536577
  5       0.000051835169
  6      -0.000053940882
  7       0.000325968573
  8       0.000207140328
  9      -0.000282604239
 10       0.000098461892
 11      -0.000538988554
 12      -0.058991686060
 13      -0.000615782027
 14      -0.000089424083
 15      -0.000173500572
 16       0.000063544459
 17      -0.005561281520
 18       0.001995685178
 19       0.001991683156
 20      -0.000276643919
 21      -0.992831053867
 22      -0.024854903046
 23       0.000072342753
 24      -0.000160929290
 25       0.000067693729
 26       0.017363733141
 27      -0.001428687135
 28       0.001795341003
 29      -0.000758337358
 30      -0.046326001072
 31      -0.000485601767
 32       0.000182147631
 33       0.000069427499
 34       0.000031230268
 35      -0.003972803485
 36      -0.002349840967
 37      -0.001403501128
 38      -0.000091615361
 39      -0.030525189735
 40      -0.000518652181
 41       0.000200160264
 42      -0.000041791576
 43       0.000061790946
 44       0.000594248385
 45      -0.000463316319
 46       0.000404639687
 47      -0.000239336186
 48      -0.000000469088
 49       0.000000086629
 50      -0.000003082325
 51       0.000013164464
 52       0.000277578085
 53       0.000331263520
 54       0.000080946134
 55      -0.000495454112
 56       0.000268329709
 57      -0.002052442049
 58       0.000083341822
 59      -0.000451223421
 60      -0.000041042182
 61      -0.000463456285
 Sym=     1a
 Ene= -1.12352376062243E+01
 Spin= Alpha
 Occup= 2.000000
  1      -0.016718233798
  2       0.000000282370
  3      -0.000022237894
  4      -0.000162281049
  5       0.000037406435
  6      -0.003667813846
  7      -0.000185044757
  8       0.002164653961
  9      -0.001447391141
 10       0.000200396824
 11      -0.000080442635
 12       0.002643754401
 13       0.000071849993
 14      -0.000044144259
 15       0.000028876794
 16      -0.000001614633
 17      -0.000214185045
 18       0.000266978357
 19      -0.000140653595
 20       0.000061047561
 21       0.035232933138
 22       0.001032876575
 23      -0.000184188278
 24      -0.000029417677
 25      -0.000049000156
 26       0.000144033804
 27      -0.000275305428
 28       0.000229591468
 29      -0.000221296523
 30      -0.104952889860
 31      -0.001622202142
 32      -0.000138765671
 33       0.000128473283
 34      -0.000178668019
 35      -0.005216890011
 36       0.000961623335
 37      -0.002002919355
 38       0.002325130645
 39      -0.989809600328
 40      -0.024709126226
 41      -0.000156126600
 42      -0.000020418478
 43      -0.000057932981
 44       0.017187248965
 45       0.002228871395
 46       0.000856804296
 47       0.000016962561
 48       0.000092630590
 49      -0.000199766215
 50       0.000198816299
 51      -0.000897385071
 52       0.000008748251
 53       0.000340722476
 54      -0.000013021725
 55      -0.000112181018
 56      -0.000004942054
 57       0.000069163816
 58       0.000048160750
 59      -0.000799619157
 60       0.000265781156
 61      -0.002082883379
 Sym=     1a
 Ene= -1.12274727117891E+01
 Spin= Alpha
 Occup= 2.000000
  1      -0.003916481944
  2      -0.000077717407
  3       0.000005348602
  4       0.000114520657
  5      -0.000139903832
  6      -0.001801109704
  7      -0.000308082622
  8       0.000643857225
  9      -0.000460679116
 10       0.000065794623
 11       0.000184924371
 12      -0.008205051555
 13      -0.000366346302
 14       0.000158789485
 15       0.000131006673
 16      -0.000046058126
 17      -0.000770259390
 18       0.000012986387
 19      -0.000133573655
 20       0.000261342222
 21      -0.042637204686
 22      -0.001721435478
 23       0.000163045171
 24       0.000034782143
 25       0.000032713302
 26       0.006024917357
 27      -0.002923419256
 28       0.000076576095
 29      -0.000984509496
 30       0.989524137449
 31       0.025121181312
 32       0.000066350017
 33       0.000172086773
 34      -0.000199911425
 35      -0.019547536523
 36      -0.000852412352
 37      -0.002698408503
 38       0.002328007647
 39      -0.106999762892
 40      -0.003720759499
 41      -0.000213628010
 42       0.000035866833
 43      -0.000121614983
 44       0.009471883904
 45       0.003569302727
 46       0.000192727710
 47       0.001270891147
 48       0.000058721377
 49       0.000106405592
 50       0.000045023041
 51      -0.000147150623
 52      -0.000038478672
 53       0.000320136781
 54       0.000042983787
 55       0.000320264519
 56      -0.000062767929
 57       0.000345136784
 58      -0.000297064452
 59       0.001710856840
 60       0.000005548889
 61       0.000342662495
 Sym=     1a
 Ene= -1.12220107632644E+01
 Spin= Alpha
 Occup= 2.000000
  1       0.000361520361
  2       0.000030836875
  3      -0.000000151388
  4       0.000009982134
  5       0.000097162206
  6      -0.000030261067
  7       0.000361568390
  8       0.000050615832
  9      -0.000605831844
 10       0.000147598572
 11      -0.000913789813
 12      -0.994347935621
 13      -0.024765240906
 14       0.000082685782
 15       0.000198138841
 16       0.000010010184
 17       0.016500169268
 18      -0.000875358522
 19      -0.001669278870
 20       0.000180789439
 21       0.059932839056
 22       0.002340190525
 23       0.000121432554
 24       0.000299418613
 25      -0.000043038703
 26      -0.006837822202
 27      -0.001189152711
 28      -0.002845742353
 29       0.000560057842
 30      -0.005678720916
 31      -0.000032818214
 32       0.000106128942
 33       0.000080408828
 34       0.000002414258
 35       0.000513767338
 36      -0.000416361071
 37       0.000044680806
 38      -0.000140881921
 39       0.000048824300
 40      -0.000014455718
 41       0.000038517905
 42       0.000019313415
 43       0.000017850606
 44      -0.000005340827
 45      -0.000137390579
 46       0.000367373807
 47      -0.000360268584
 48      -0.000005397130
 49      -0.000184179235
 50      -0.000034537621
 51       0.000464772018
 52       0.000155587786
 53      -0.002742569488
 54       0.000209714213
 55      -0.002658730310
 56       0.000113918868
 57       0.000007578877
 58      -0.000034463738
 59      -0.000192783679
 60       0.000005476572
 61       0.000002921039
 Sym=     1a
 Ene= -1.12162762253154E+01
 Spin= Alpha
 Occup= 2.000000
  1       0.996057813905
  2       0.026109565228
  3      -0.000023373607
  4       0.000012921146
  5       0.000082780215
  6      -0.019222925193
  7       0.000140664886
  8       0.000727293918
  9      -0.000867332057
 10       0.000074607446
 11       0.003189242927
 12       0.000355685240
 13      -0.000014413244
 14       0.000124152823
 15      -0.000001016189
 16       0.000014063518
 17       0.000263761972
 18      -0.000668908216
 19      -0.000329250729
 20       0.000017987512
 21       0.000110206703
 22       0.000026843541
 23       0.000040307436
 24      -0.000035983799
 25       0.000032417617
 26      -0.000402542700
 27      -0.000103915594
 28      -0.000456512818
 29       0.000177322042
 30       0.002115036656
 31      -0.000133578897
 32       0.000055678622
 33      -0.000100209808
 34       0.000122427648
 35       0.000571710560
 36      -0.000611304517
 37       0.000374532074
 38      -0.000580411475
 39      -0.017209129862
 40      -0.000867122147
 41      -0.000015995477
 42      -0.000116842077
 43       0.000118653456
 44       0.004061916765
 45       0.000079108619
 46       0.002276815704
 47      -0.002109711628
 48       0.000046006015
 49       0.003137131788
 50       0.000069626483
 51       0.003298561888
 52      -0.000053397654
 53       0.000028176203
 54       0.000042249440
 55       0.000436436890
 56      -0.000029765919
 57      -0.000031589384
 58       0.000028312494
 59       0.000417241824
 60      -0.000121896832
 61       0.000093200384
 Sym=     1a
 Ene= -1.09880243053894E+00
 Spin= Alpha
 Occup= 2.000000
  1      -0.067327785656
  2       0.125365657744
  3       0.001496859549
  4      -0.031160488561
  5       0.029910257789
  6       0.118326089265
  7       0.005778297393
  8      -0.003531683323
  9       0.009471440343
 10       0.037322629222
 11       0.002059404452
 12      -0.075859095968
 13       0.148375922999
 14      -0.033970372161
 15      -0.057525237924
 16       0.008340967405
 17       0.100864995120
 18       0.000707566867
 19      -0.003258522393
 20      -0.000507859675
 21      -0.111092998633
 22       0.220605188644
 23      -0.031471928610
 24       0.031172704822
 25      -0.017479831388
 26       0.139541499921
 27      -0.005942477525
 28      -0.000379531101
 29      -0.001969442806
 30      -0.126391013991
 31       0.249484361116
 32      -0.003042835961
 33       0.041848799280
 34      -0.042636451080
 35       0.164126546736
 36       0.004235224595
 37       0.004142970919
 38      -0.002435276394
 39      -0.113505513960
 40       0.225424470494
 41       0.059295242850
 42      -0.007225093954
 43       0.032282088347
 44       0.137699067587
 45      -0.003912966444
 46      -0.004520841217
 47       0.002793708688
 48       0.031714057631
 49       0.004577379250
 50       0.034076770967
 51       0.000318523373
 52       0.039692090695
 53       0.007271815621
 54       0.033407073987
 55       0.002001516424
 56       0.053501207840
 57       0.008250010387
 58       0.059953382560
 59       0.008855489139
 60       0.053452779171
 61       0.004459065774
 Sym=     1a
 Ene= -1.02232788492552E+00
 Spin= Alpha
 Occup= 2.000000
  1      -0.101124506728
  2       0.192118755943
  3      -0.009274449994
  4      -0.029839051039
  5       0.024887708040
  6       0.180284452262
  7      -0.002940702006
  8      -0.000925689815
  9       0.001555977752
 10       0.054988396382
 11       0.005588499166
 12       0.120674651178
 13      -0.236930030021
 14       0.026819746932
 15       0.078545773937
 16      -0.017737613244
 17      -0.181995758195
 18       0.004241848662
 19       0.002912106091
 20      -0.000603816022
 21       0.115114035753
 22      -0.229874635363
 23      -0.053430564747
 24      -0.077190885996
 25       0.008079280791
 26      -0.158626841132
 27      -0.011817369519
 28       0.004066631876
 29      -0.005213193614
 30      -0.020926580128
 31       0.041655230961
 32      -0.099243636053
 33       0.007821258161
 34      -0.051605077820
 35       0.026877326422
 36      -0.015640804719
 37      -0.011324505523
 38       0.000934275704
 39      -0.102167109887
 40       0.202794342545
 41       0.011645319754
 42       0.020362031965
 43      -0.015037858101
 44       0.147269418200
 45       0.002278791213
 46       0.006072105853
 47      -0.004635975334
 48       0.060110240017
 49       0.008731003299
 50       0.058601786439
 51       0.005666775759
 52      -0.061347017658
 53      -0.006190084285
 54      -0.068618344396
 55      -0.015607940594
 56      -0.067772668672
 57      -0.011191843140
 58       0.010257146903
 59      -0.003792050793
 60       0.062997881597
 61       0.016515617479
 Sym=     1a
 Ene= -9.40920287268437E-01
 Spin= Alpha
 Occup= 2.000000
  1       0.139078453841
  2      -0.262097828228
  3       0.002742348366
  4      -0.019656391471
  5       0.017047570918
  6      -0.293046904766
  7      -0.000747283793
  8      -0.002154627495
  9      -0.002816276880
 10      -0.098152240221
 11      -0.022901775813
 12       0.079669032839
 13      -0.156322411880
 14       0.001171929844
 15       0.015021469259
 16      -0.002080168629
 17      -0.135617170416
 18       0.002446686965
 19      -0.002009571776
 20       0.003260747162
 21       0.006092237906
 22      -0.010950035797
 23      -0.096794469991
 24      -0.088265064248
 25       0.007181312823
 26      -0.007586021297
 27      -0.019901576236
 28      -0.006074595898
 29      -0.002756817628
 30      -0.118195347172
 31       0.235157770622
 32      -0.041095976882
 33      -0.010675028540
 34      -0.014597637486
 35       0.182674018954
 36      -0.002683608026
 37      -0.015151607599
 38       0.009092507949
 39      -0.029903891238
 40       0.056221144457
 41       0.052155485517
 42      -0.114819766040
 43       0.128470596020
 44       0.074566215092
 45       0.011568499698
 46      -0.010419230280
 47       0.015609627330
 48      -0.101814204457
 49      -0.027948015723
 50      -0.099777505692
 51      -0.024650306850
 52      -0.058093971213
 53      -0.016212263681
 54      -0.058156801000
 55      -0.018733132360
 56      -0.000552874793
 57       0.003762528577
 58       0.091221596056
 59       0.025407144441
 60       0.020665780717
 61       0.007353003785
 Sym=     1a
 Ene= -8.14931237099996E-01
 Spin= Alpha
 Occup= 2.000000
  1      -0.058683519597
  2       0.110965887918
  3       0.014234380021
  4       0.062599393065
  5      -0.054404144660
  6       0.144678626675
  7      -0.002786775709
  8       0.014158176531
  9      -0.017009076977
 10       0.059810993891
 11       0.023342500500
 12       0.102376376169
 13      -0.203906437152
 14      -0.040432643693
 15      -0.080849235506
 16       0.014946257804
 17      -0.190066386135
 18      -0.015262335605
 19      -0.031895794032
 20       0.005836102571
 21      -0.086342253805
 22       0.176370853134
 23      -0.081927831321
 24      -0.152192413507
 25       0.030890936939
 26       0.162135752499
 27      -0.019263323709
 28      -0.050410559602
 29       0.011833063831
 30      -0.031408442215
 31       0.065626476397
 32       0.194786756718
 33      -0.032920196426
 34       0.097310528240
 35       0.054746563119
 36       0.047107085544
 37      -0.008351153072
 38       0.023722373890
 39       0.091415619612
 40      -0.182693397924
 41       0.036098530270
 42       0.063544448456
 43      -0.049876483868
 44      -0.177064689745
 45       0.023055652953
 46       0.008064991958
 47      -0.000619441894
 48       0.060031659684
 49       0.020392706769
 50       0.058900134807
 51       0.023660878973
 52      -0.109684957511
 53      -0.043392301839
 54      -0.113133187299
 55      -0.048310562187
 56       0.108547528508
 57       0.044589606919
 58       0.041685313463
 59       0.018952272139
 60      -0.106198488556
 61      -0.043724788895
 Sym=     1a
 Ene= -7.15712849551179E-01
 Spin= Alpha
 Occup= 2.000000
  1       0.022932546199
  2      -0.041161363388
  3      -0.091074626574
  4      -0.108669022269
  5       0.052744718359
  6      -0.066140497615
  7      -0.033870107055
  8      -0.038765439576
  9       0.016860837695
 10      -0.080776872062
 11      -0.045071614192
 12       0.040098189967
 13      -0.080652983147
 14       0.024463578017
 15      -0.198697673101
 16       0.055883233506
 17      -0.081527499239
 18       0.004047243856
 19      -0.066076914208
 20       0.018941754572
 21      -0.069704239304
 22       0.141946035011
 23       0.178876665005
 24      -0.029288623202
 25       0.037645763898
 26       0.140499264142
 27       0.059881812283
 28      -0.042321245303
 29       0.024149143439
 30       0.077471820926
 31      -0.158589776169
 32       0.002840839989
 33       0.028821520150
 34      -0.039425596415
 35      -0.151636435539
 36      -0.005234988908
 37       0.034834909148
 38      -0.035829355825
 39      -0.073473881836
 40       0.149573850004
 41      -0.164979693596
 42       0.006146547144
 43      -0.086901153441
 44       0.152564869062
 45      -0.074635631470
 46      -0.003210865211
 47      -0.035306801275
 48      -0.006405467222
 49      -0.000180514940
 50      -0.053275433437
 51      -0.029730005720
 52      -0.142368557772
 53      -0.087386930479
 54      -0.042328624507
 55      -0.020312598896
 56       0.143155950970
 57       0.068627650590
 58      -0.100301250230
 59      -0.040746121274
 60       0.152090823781
 61       0.076949386100
 Sym=     1a
 Ene= -6.66297920617832E-01
 Spin= Alpha
 Occup= 2.000000
  1       0.015665258519
  2      -0.028134841176
  3       0.090261926180
  4      -0.065511698080
  5       0.103164314594
  6      -0.048702899055
  7       0.046345395369
  8      -0.022570900419
  9       0.042279894365
 10       0.016173581676
 11       0.010066239562
 12       0.021428294965
 13      -0.042501548745
 14      -0.194130946280
 15      -0.090959657532
 16      -0.019935377835
 17      -0.061272139175
 18      -0.075114418420
 19      -0.022937893887
 20      -0.013851364593
 21      -0.025849041061
 22       0.055682629456
 23      -0.096804548860
 24       0.143908441137
 25      -0.084193599335
 26       0.047778220441
 27      -0.029623100810
 28       0.045122546297
 29      -0.028927413869
 30       0.019800344716
 31      -0.038171702764
 32       0.068525333328
 33       0.231511866099
 34      -0.166068387708
 35      -0.048333101560
 36       0.025406020081
 37       0.097124830382
 38      -0.069413052506
 39      -0.024227465255
 40       0.051075819645
 41       0.169110058229
 42       0.085790259250
 43       0.003262031894
 44       0.036871000974
 45       0.050032034339
 46       0.037248125189
 47      -0.007935290574
 48      -0.091457717728
 49      -0.055639948390
 50      -0.029665314764
 51      -0.016849005217
 52       0.000807601884
 53      -0.004559421592
 54      -0.139801014872
 55      -0.087608407372
 56      -0.081192729193
 57      -0.060008944181
 58      -0.187190935490
 59      -0.114350130319
 60      -0.081575574018
 61      -0.058118684161
 Sym=     1a
 Ene= -6.05291949869941E-01
 Spin= Alpha
 Occup= 2.000000
  1      -0.009999570164
  2       0.018710219014
  3       0.177841409416
  4       0.032896026390
  5      -0.005246277432
  6       0.031950973647
  7       0.079124138400
  8       0.014699925381
  9      -0.007775479350
 10       0.108098883553
 11       0.072346909365
 12       0.006740220436
 13      -0.014713682953
 14       0.246337401624
 15      -0.105909777669
 16       0.041385227964
 17      -0.028528898463
 18       0.113099676838
 19      -0.047453086320
 20       0.015630364049
 21       0.013314600034
 22      -0.030813306200
 23       0.196703056800
 24      -0.055326234049
 25       0.013779729770
 26      -0.022566338240
 27       0.070334914077
 28      -0.011777211932
 29      -0.004179858290
 30      -0.009877770960
 31       0.021806531539
 32      -0.177221442302
 33       0.040342015601
 34      -0.153690482373
 35      -0.007381640732
 36      -0.052281436076
 37      -0.002033968627
 38      -0.044981358069
 39      -0.003321491901
 40       0.009512364953
 41       0.250234486000
 42      -0.036356072475
 43       0.112183796540
 44      -0.002076150700
 45       0.106101716517
 46      -0.008285132355
 47       0.038570731684
 48      -0.060312665360
 49      -0.049614517240
 50       0.005634336522
 51      -0.000573592561
 52      -0.142198581115
 53      -0.091983294402
 54       0.133200108619
 55       0.092214150896
 56       0.086238585192
 57       0.068344644648
 58      -0.033087563965
 59      -0.030565161426
 60      -0.130718240115
 61      -0.091737836035
 Sym=     1a
 Ene= -5.85090617576086E-01
 Spin= Alpha
 Occup= 2.000000
  1      -0.005801732967
  2       0.005873883537
  3      -0.027154321309
  4       0.179260696179
  5      -0.131827993154
  6       0.036124060973
  7      -0.014337129265
  8       0.075280688872
  9      -0.054250972354
 10       0.017088681057
 11       0.009710232498
 12      -0.007333628445
 13       0.019602510646
 14      -0.157421289514
 15      -0.282735350782
 16       0.057750437811
 17      -0.016251248055
 18      -0.053624083337
 19      -0.100792698867
 20       0.023443035439
 21      -0.008281149450
 22       0.019554642106
 23       0.118141213721
 24       0.308150557539
 25      -0.042915504674
 26      -0.003149470044
 27       0.028529171250
 28       0.111022767203
 29      -0.014896378343
 30      -0.009126202060
 31       0.017693963837
 32      -0.194829234729
 33      -0.044823263060
 34       0.019046898876
 35       0.018664685258
 36      -0.080416119399
 37      -0.017656444432
 38       0.013614536836
 39       0.025047474841
 40      -0.051273316744
 41      -0.033570664074
 42      -0.143187154648
 43       0.158582367839
 44      -0.086282263711
 45      -0.020437557799
 46      -0.056850013490
 47       0.065103848713
 48       0.074751162390
 49       0.055430426670
 50       0.071231320955
 51       0.053504464606
 52      -0.090010162359
 53      -0.066145565857
 54      -0.116598689109
 55      -0.091713972906
 56      -0.097762384468
 57      -0.073221311158
 58       0.073810728360
 59       0.051748935511
 60       0.025488293150
 61       0.021380589918
 Sym=     1a
 Ene= -5.67103357465877E-01
 Spin= Alpha
 Occup= 2.000000
  1       0.000437557519
  2      -0.001782425407
  3      -0.092457371784
  4       0.256693408689
  5       0.315267165987
  6      -0.000384769536
  7      -0.049030741553
  8       0.131313255467
  9       0.157887204426
 10      -0.131995264341
 11      -0.102329970380
 12       0.005306087828
 13      -0.010922451875
 14       0.026751643277
 15       0.020277274422
 16       0.018490218396
 17      -0.014625764223
 18       0.007135948535
 19       0.003790604808
 20       0.014977589514
 21      -0.000454482798
 22       0.001046949957
 23       0.023281231625
 24      -0.035003961762
 25       0.044443703655
 26       0.002218534763
 27       0.010406254050
 28      -0.015075373835
 29       0.021294813306
 30       0.002928283306
 31      -0.003532987295
 32      -0.031099486066
 33       0.047484703768
 34       0.042047111418
 35      -0.024022895634
 36      -0.013140930820
 37       0.021683443636
 38       0.038929284681
 39      -0.005456530524
 40       0.008878407999
 41      -0.016186828976
 42       0.099246478670
 43       0.086347459614
 44       0.031575383602
 45      -0.000771115491
 46       0.046480774304
 47       0.048432792666
 48      -0.137948629024
 49      -0.107916480155
 50       0.255019194701
 51       0.198728432935
 52      -0.000193783453
 53       0.009843768204
 54       0.014088876947
 55       0.013085891049
 56       0.037045659802
 57       0.028048152762
 58      -0.005067333449
 59      -0.007542089158
 60      -0.012724250260
 61      -0.011042946899
 Sym=     1a
 Ene= -5.39533555675697E-01
 Spin= Alpha
 Occup= 2.000000
  1       0.005292932773
  2      -0.013372157340
  3       0.310011961088
  4       0.058268780186
  5       0.045181944957
  6       0.004221502569
  7       0.176328290915
  8       0.026624912628
  9       0.035272882613
 10       0.187914522968
 11       0.147260791361
 12       0.009768808918
 13      -0.021854213015
 14      -0.174096924638
 15       0.076322845816
 16      -0.056306222526
 17      -0.006975839062
 18      -0.107041515344
 19       0.035832727448
 20      -0.037038378810
 21      -0.007954883670
 22       0.014445054611
 23       0.125560922625
 24      -0.084676768361
 25       0.040264893987
 26       0.017122895191
 27       0.079271905344
 28      -0.062896851608
 29       0.028349936832
 30       0.035575073849
 31      -0.079614548855
 32      -0.064925142180
 33      -0.102903207326
 34       0.037523758803
 35      -0.073360921713
 36      -0.017742400911
 37      -0.023842944321
 38      -0.001007035174
 39      -0.007830316856
 40       0.015231798701
 41      -0.120441583877
 42      -0.087193119926
 43       0.004368843286
 44       0.017850146577
 45      -0.076371155869
 46      -0.056304715424
 47       0.004546399814
 48      -0.170317683638
 49      -0.132029750614
 50       0.011863132799
 51       0.012264149737
 52       0.120066524091
 53       0.091752271917
 54      -0.128072401514
 55      -0.092126506095
 56       0.116491507403
 57       0.079399326693
 58       0.036416330929
 59       0.045807257549
 60       0.111054897039
 61       0.076740789758
 Sym=     1a
 Ene= -5.06609018397415E-01
 Spin= Alpha
 Occup= 2.000000
  1       0.016222105906
  2      -0.036531261765