
                                 *****************
                                 * O   R   C   A *
                                 *****************

                                            #,                                       
                                            ###                                      
                                            ####                                     
                                            #####                                    
                                            ######                                   
                                           ########,                                 
                                     ,,################,,,,,                         
                               ,,#################################,,                 
                          ,,##########################################,,             
                       ,#########################################, ''#####,          
                    ,#############################################,,   '####,        
                  ,##################################################,,,,####,       
                ,###########''''           ''''###############################       
              ,#####''   ,,,,##########,,,,          '''####'''          '####       
            ,##' ,,,,###########################,,,                        '##       
           ' ,,###''''                  '''############,,,                           
         ,,##''                                '''############,,,,        ,,,,,,###''
      ,#''                                            '''#######################'''  
     '                                                          ''''####''''         
             ,#######,   #######,   ,#######,      ##                                
            ,#'     '#,  ##    ##  ,#'     '#,    #''#        ,####,    ,#,          
            ##       ##  ##   ,#'  ##            #'  '#       #'       ,# #          
            ##       ##  #######   ##           ,######,      #####,      #          
            '#,     ,#'  ##    ##  '#,     ,#' ,#      #,     #,   #      #          
             '#######'   ##     ##  '#######'  #'      '#     '####' #    #          



                #########################################################
                #                        -***-                          #
                #          Department of theory and spectroscopy        #
                #                                                       #
                #                      Frank Neese                      #
                #                                                       #
                #     Directorship, Architecture, Infrastructure        #
                #                    SHARK, DRIVERS                     #
                #        Core code/Algorithms in most modules           #
                #                                                       #
                #        Max Planck Institute fuer Kohlenforschung      #
                #                Kaiser Wilhelm Platz 1                 #
                #                 D-45470 Muelheim/Ruhr                 #
                #                      Germany                          #
                #                                                       #
                #                  All rights reserved                  #
                #                        -***-                          #
                #########################################################


                         Program Version 6.1.0  -  RELEASE   -
                                (GIT: $679e74b$)
                          ($2025-06-10 18:02:51 +0200$)


 With contributions from (in alphabetic order):
[Max-Planck-Institut fuer Kohlenforschung]                               
  Daniel Aravena         : Magnetic Suceptibility                        
  Michael Atanasov       : Ab Initio Ligand Field Theory (pilot matlab implementation)
  Alexander A. Auer      : GIAO ZORA, VPT2 properties, NMR spectrum      
  Ute Becker             : All parallelization in ORCA, NUMFREQ, NUMCALC 
  Giovanni Bistoni       : ED, misc. LED, open-shell LED, HFLD           
  Dmytro Bykov           : pre 5.0 version of the SCF Hessian            
  Marcos Casanova-Páez   : Triplet and SCS-CIS(D). UHF-(DLPNO)-IP/EA/STEOM-CCSD. UHF-CVS-IP/STEOM-CCSD   
  Vijay G. Chilkuri      : MRCI spin determinant printing, contributions to CSF-ICE 
  Pauline Colinet        : FMM embedding                                 
  Dipayan Datta          : RHF DLPNO-CCSD density                        
  Achintya Kumar Dutta   : EOM-CC, STEOM-CC                              
  Nicolas Foglia         : Exact transition moments, OPA infrastructure, MCD improvements    
  Dmitry Ganyushin       : Spin-Orbit,Spin-Spin,Magnetic field MRCI      
  Miquel Garcia-Rates    : C-PCM and meta-GGA Hessian, CCSD/C-PCM, Gaussian charge scheme 
  Tiago L. C. Gouveia    : GS-ROHF, GS-ROCIS                             
  Yang Guo               : DLPNO-NEVPT2, F12-NEVPT2, CIM, IAO-localization        
  Andreas Hansen         : Spin unrestricted coupled pair/coupled cluster methods 
  Ingolf Harden          : AUTO-CI MPn and infrastructure                
  Benjamin Helmich-Paris : MC-RPA, TRAH-(SCF,CASSCF), AVAS, COSX integrals, SCF dyn. polar., MC-PDFT, srDFT 
  Lee Huntington         : MR-EOM, pCC                                   
  Robert Izsak           : Overlap fitted RIJCOSX, COSX-SCS-MP3, EOM     
  Riya Kayal             : Wick's Theorem for AUTO-CI, AUTO-CI UHF-CCSDT 
  Emily Kempfer          : AUTO-CI RHF CISDT and CCSDT, approximate NEVPT4
  Christian Kollmar      : KDIIS, OOCD, Brueckner-CCSD(T), CCSD density, CASPT2, CASPT2-K, improved NEVPT2 
  Axel Koslowski         : Symmetry handling                             
  Simone Kossmann        : meta-GGA functionals, TD-DFT gradient, OOMP2, (MP2 Hessian; deprecated post 5.0) 
  Lucas Lang             : DCDCAS, Hyperfine gauge corrections, ICE-SOC+SSC
  Marvin Lechner         : AUTO-CI (C++ implementation), FIC-MRCC        
  Spencer Leger          : CASSCF response                               
  Dagmar Lenk            : GEPOL surface, SMD, ORCA-2-JSON               
  Dimitrios Liakos       : Extrapolation schemes; Compound Job, Property file
  Dimitrios Manganas     : Further ROCIS development; embedding schemes. LFT, Crystal Embedding 
  Dimitrios Pantazis     : SARC Basis sets                               
  Anastasios Papadopoulos: AUTO-CI, single reference methods and gradients 
  Taras Petrenko         : pre 6.0 DFT Hessian and TD-DFT gradient,  ECA, NRVS 
  Petra Pikulova         : Analytic Raman intensities                    
  Peter Pinski           : DLPNO-MP2, DLPNO-MP2 Gradient                 
  Shashank Vittal Rao    : ES-AILFT, MagRelax                            
  Christoph Reimann      : Effective Core Potentials                     
  Marius Retegan         : Local ZFS, SOC                                
  Christoph Riplinger    : Optimizer, TS searches, QM/MM, DLPNO-CCSD(T), (RO)-DLPNO pert. Triples 
  Michael Roemelt        : Original ROCIS implementation, recursive CI coupling coefficients
  Masaaki Saitow         : Open-shell DLPNO-CCSD energy and density      
  Barbara Sandhoefer     : DKH picture change effects                    
  Yorick L. A. Schmerwitz: GMF and freeze-and-release deltaSCF, NEB S-IDPP initial path                    
  Kantharuban Sivalingam : CASSCF convergence/infrastructure, NEVPT2, NEVPT3, NEVPT4(SD), FIC-MRCI and CEPA variants
  Bernardo de Souza      : ESD, SOC TD-DFT                               
  Georgi L. Stoychev     : AutoAux, RI-MP2 NMR, DLPNO-MP2 response, X2C  
  Van Anh Tran           : RI-MP2 g-tensors                              
  Willem Van den Heuvel  : Paramagnetic NMR                              
  Zikuan Wang            : NOTCH, Electric field optimization            
  Frank Wennmohs         : Technical directorship and infrastructure     
  Hang Xu                : AUTO-CI-Response properties                   
                                                                         
[FACCTs GmbH]                                                            
  Markus Bursch, Nicolas Foglia, Miquel Garcia-Rates, Ingolf Harden, Hagen Neugebauer, Anastasios Papadopoulos, 
  Christoph Riplinger, Bernardo de Souza, Georgi L. Stoychev                                                    
                                                                 
  APM, various basis sets, CI-OPT, improved COSX, DLPNO-Multilevel,           
  DOCKER, DRACO, updates on ESD, Fragmentator, GOAT, IRC, LR-CPCM, L-BFGS, MBIS, meta-GGA TD-DFT gradient, ML-optimized integration grids, 
  MM, NACMEs, nearIR, NEB, NEB-TS, NL-DFT gradient (VV10), 2- and 3-layer-ONIOM, interface openCOSMO-RS, QMMM,   
  Crystal-QMMM, RESP, rigid body optimization, SF, symmetry and pop. for TD-DFT, various functionals, SOLVATOR                                   
                                                                         
[Other institutions]                                                     
  V. Asgeirsson          : NEB                                           
  Christoph Bannwarth    : sTDA-DFT, sTD-DFT, PBEh-3c, B97-3c, D3        
  Giovanni Bistoni       : ETS/NOCV, ADLD/ADEX, COVALED                  
  Martin Brehm           : Molecular dynamics                            
  Ronald Cardenas        : ETS/NOCV                                      
  Martina Colucci        : COVALED                                       
  Sebastian Ehlert       : rSCAN, r2SCAN, r2SCAN-3c, D4, dhf basis sets  
  Marvin Friede          : D4 for Fr, Ra, Ac-Lr                          
  Lars Goerigk           : TD-DFT with DH, B97 family of functionals     
  Stefan Grimme          : VdW corrections, initial TS optimization, DFT functionals, gCP, sTDA/sTD-DF 
  Waldemar Hujo          : DFT-NL                                        
  H. Jonsson             : NEB                                           
  Holger Kruse           : gCP                                           
  Marcel Mueller         : wB97X-3c, vDZP basis set                      
  Hagen Neugebauer       : wr2SCAN, Native XTB                           
  Gianluca Regni         : ADLD/ADEX                                     
  Tobias Risthaus        : pre 6.0 range-separated hybrid DFT and stability analysis
  Lukas Wittmann         : regularized MP2, r2SCAN double-hybrids, wr2SCAN        
                                                                         
We gratefully acknowledge several colleagues who have allowed us to      
interface, adapt or use parts of their codes:                            
  Ed Valeev, F. Pavosevic, A. Kumar             : LibInt (2-el integral package), F12 methods 
  Garnet Chan, S. Sharma, J. Yang, R. Olivares  : DMRG                   
  Ulf Ekstrom                                   : XCFun DFT Library      
  Mihaly Kallay                                 : mrcc  (arbitrary order and MRCC methods)
  Frank Weinhold                                : gennbo (NPA and NBO analysis)           
  Simon Mueller                                 : openCOSMO-RS                            
  Christopher J. Cramer and Donald G. Truhlar   : smd solvation model                     
  S Lehtola, MJT Oliveira, MAL Marques          : LibXC Library                           
  Liviu Ungur et al                             : ANISO software                          


 Your calculation uses the libint2 library for the computation of 2-el integrals
 For citations please refer to: http://libint.valeyev.net

 Your ORCA version has been built with support for libXC version: 7.0.0
 For citations please refer to: https://libxc.gitlab.io

 This ORCA versions uses:
   CBLAS   interface :  Fast vector & matrix operations
   LAPACKE interface :  Fast linear algebra routines
   SCALAPACK package :  Parallel linear algebra routines
   Shared memory     :  Shared parallel matrices
   BLAS/LAPACK       :  OpenBLAS 0.3.29  USE64BITINT DYNAMIC_ARCH NO_AFFINITY Zen SINGLE_THREADED
        Core in use  :  Zen
   Copyright (c) 2011-2014, The OpenBLAS Project


  ***********************************
  * Starting time: Sun Apr  5 13:03:17 2026
  * Host name:     QC1
  * Process ID:    14377
  * Working dir.:  /home/user/QC/h-shift/split_2
  ***********************************

NOTE: MaxCore=1200 MB was set to SCF,MP2,MDCI,CIPSI,MRCI,RASCI and CIS
      => If you want to overwrite this, your respective input block should be placed after the MaxCore statement
================================================================================

----- Orbital basis set information -----
Your calculation utilizes the basis: 6-31G
   H-He, Li-Ne : W. J. Hehre, R. Ditchfield and J.A. Pople, J. Chem. Phys. 56, 2257 (1972).
                 Note: He and Ne are unpublished basis sets taken from the Gaussian program.
                 Note: Li and B from J. D. Dill and J. A. Pople, J. Chem. Phys. 62, 2921 (1975).
   Na - Ar     : M. M. Francl, W. J. Pietro, W. J. Hehre, J. S. Binkley, M. S. Gordon, 
                 D. J. DeFrees and J. A. Pople, J. Chem. Phys. 77, 3654 (1982).
   K - Zn      : V. A. Rassolov, J. A. Pople, M. A. Ratner, and T. L. Windus, J. Chem. Phys. 109, 1223 (1998).

================================================================================
                                        WARNINGS
                       Please study these warnings very carefully!
================================================================================


================================================================================
                                       INPUT FILE
================================================================================
NAME = h-shift_082.inp
|  1> ! HF 6-31G
|  2> %maxcore 1200
|  3> %pal nprocs 8 end
|  4> * xyz 0 1
|  5> C   -0.44769200   0.00631400   0.02943600
|  6> H    2.15400900   0.01507200   0.02830600
|  7> C    2.48145600   0.01000400   1.06088400
|  8> C    1.85687400  -1.12468600   1.82009300
|  9> C    0.62951400  -1.60735700   1.63236200
| 10> C   -0.33009400  -1.18935500   0.59928600
| 11> H   -1.13794400   0.17024300  -0.77523700
| 12> H    0.12466800   0.85798600   0.33542400
| 13> H    2.19458600   0.96580000   1.49168600
| 14> H    3.56152100  -0.04267100   1.07772500
| 15> H    2.47151900  -1.58740600   2.57328000
| 16> H    0.31225500  -2.43351100   2.24633000
| 17> H   -0.98872600  -1.97230800   0.26329500
| 18> *
| 19> 
| 20>                          ****END OF INPUT****
================================================================================

                       ****************************
                       * Single Point Calculation *
                       ****************************

---------------------------------
CARTESIAN COORDINATES (ANGSTROEM)
---------------------------------
  C     -0.447692    0.006314    0.029436
  H      2.154009    0.015072    0.028306
  C      2.481456    0.010004    1.060884
  C      1.856874   -1.124686    1.820093
  C      0.629514   -1.607357    1.632362
  C     -0.330094   -1.189355    0.599286
  H     -1.137944    0.170243   -0.775237
  H      0.124668    0.857986    0.335424
  H      2.194586    0.965800    1.491686
  H      3.561521   -0.042671    1.077725
  H      2.471519   -1.587406    2.573280
  H      0.312255   -2.433511    2.246330
  H     -0.988726   -1.972308    0.263295

----------------------------
CARTESIAN COORDINATES (A.U.)
----------------------------
  NO LB      ZA    FRAG     MASS         X           Y           Z
   0 C     6.0000    0    12.011   -0.846015    0.011932    0.055626
   1 H     1.0000    0     1.008    4.070487    0.028482    0.053491
   2 C     6.0000    0    12.011    4.689272    0.018905    2.004780
   3 C     6.0000    0    12.011    3.508983   -2.125349    3.439477
   4 C     6.0000    0    12.011    1.189609   -3.037465    3.084717
   5 C     6.0000    0    12.011   -0.623787   -2.247555    1.132486
   6 H     1.0000    0     1.008   -2.150403    0.321713   -1.464986
   7 H     1.0000    0     1.008    0.235588    1.621359    0.633859
   8 H     1.0000    0     1.008    4.147167    1.825098    2.818878
   9 H     1.0000    0     1.008    6.730299   -0.080637    2.036605
  10 H     1.0000    0     1.008    4.670494   -2.999763    4.862794
  11 H     1.0000    0     1.008    0.590076   -4.598669    4.244949
  12 H     1.0000    0     1.008   -1.868421   -3.727122    0.497555

--------------------------------
INTERNAL COORDINATES (ANGSTROEM)
--------------------------------
 C      0   0   0     0.000000000000     0.00000000     0.00000000
 H      1   0   0     2.601715986203     0.00000000     0.00000000
 C      2   1   0     1.083265686947   107.56852088     0.00000000
 C      3   2   1     1.501340193462   111.08847169    53.63722519
 C      4   3   2     1.332151189694   125.86428982   325.33803964
 C      1   2   3     1.329730299597    85.11109514   295.81924839
 H      1   2   3     1.072762404950   129.98524336   168.67305050
 H      1   2   3     1.070780006037    57.51515824    70.52367756
 H      3   2   1     1.086936407395   107.09200003   292.57691827
 H      3   2   1     1.081479856091   108.47879068   176.85880878
 H      4   3   2     1.076656366439   116.17281250   144.61688543
 H      5   4   3     1.077098143078   117.96680677   179.52091085
 H      6   1   2     1.076894360517   117.77188952   222.14816042

---------------------------
INTERNAL COORDINATES (A.U.)
---------------------------
 C      0   0   0     0.000000000000     0.00000000     0.00000000
 H      1   0   0     4.916530692169     0.00000000     0.00000000
 C      2   1   0     2.047075478604   107.56852088     0.00000000
 C      3   2   1     2.837121799492   111.08847169    53.63722519
 C      4   3   2     2.517400917498   125.86428982   325.33803964
 C      1   2   3     2.512826098214    85.11109514   295.81924839
 H      1   2   3     2.027227152122   129.98524336   168.67305050
 H      1   2   3     2.023480961088    57.51515824    70.52367756
 H      3   2   1     2.054012134964   107.09200003   292.57691827
 H      3   2   1     2.043700747365   108.47879068   176.85880878
 H      4   3   2     2.034585672913   116.17281250   144.61688543
 H      5   4   3     2.035420509772   117.96680677   179.52091085
 H      6   1   2     2.035035416542   117.77188952   222.14816042

---------------------
BASIS SET INFORMATION
---------------------
There are 2 groups of distinct atoms

 Group   1 Type C   : 10s4p contracted to 3s2p pattern {631/31}
 Group   2 Type H   : 4s contracted to 2s pattern {31}

Atom   0C    basis set group =>   1
Atom   1H    basis set group =>   2
Atom   2C    basis set group =>   1
Atom   3C    basis set group =>   1
Atom   4C    basis set group =>   1
Atom   5C    basis set group =>   1
Atom   6H    basis set group =>   2
Atom   7H    basis set group =>   2
Atom   8H    basis set group =>   2
Atom   9H    basis set group =>   2
Atom  10H    basis set group =>   2
Atom  11H    basis set group =>   2
Atom  12H    basis set group =>   2


           ************************************************************
           *        Program running with 8 parallel MPI-processes     *
           *              working on a common directory               *
           ************************************************************
------------------------------------------------------------------------------
                             ORCA STARTUP CALCULATIONS
------------------------------------------------------------------------------
------------------------------------------------------------------------------
                   ___                                                        
                  /   \      - P O W E R E D   B Y -                         
                 /     \                                                     
                 |  |  |   _    _      __       _____    __    __             
                 |  |  |  | |  | |    /  \     |  _  \  |  |  /  |          
                  \  \/   | |  | |   /    \    | | | |  |  | /  /          
                 / \  \   | |__| |  /  /\  \   | |_| |  |  |/  /          
                |  |  |   |  __  | /  /__\  \  |    /   |      \           
                |  |  |   | |  | | |   __   |  |    \   |  |\   \          
                \     /   | |  | | |  |  |  |  | |\  \  |  | \   \       
                 \___/    |_|  |_| |__|  |__|  |_| \__\ |__|  \__/        
                                                                              
                      - O R C A' S   B I G   F R I E N D -                    
                                      &                                       
                       - I N T E G R A L  F E E D E R -                       
                                                                              
 v1 FN, 2020, v2 2021, v3 2022-2024                                           
------------------------------------------------------------------------------


----------------------
SHARK INTEGRAL PACKAGE
----------------------

Number of atoms                             ...     13
Number of basis functions                   ...     61
Number of shells                            ...     41
Maximum angular momentum                    ...      1
Integral batch strategy                     ... SHARK/LIBINT Hybrid
RI-J (if used) integral strategy            ... SPLIT-RIJ (Revised 2003 algorithm where possible)
Printlevel                                  ...      1
Contraction scheme used                     ... SEGMENTED contraction
Prescreening option                         ... SCHWARTZ
   Thresh                                   ... 1.000e-10
   Tcut                                     ... 1.000e-11
   Tpresel                                  ... 1.000e-11 
Coulomb Range Separation                    ... NOT USED
Exchange Range Separation                   ... NOT USED
Multipole approximations                    ... NOT USED
Finite Nucleus Model                        ... NOT USED
CABS basis                                  ... NOT available
Auxiliary Coulomb fitting basis             ... NOT available
Auxiliary J/K fitting basis                 ... NOT available
Auxiliary Correlation fitting basis         ... NOT available
Auxiliary 'external' fitting basis          ... NOT available

Checking pre-screening integrals            ... done (  0.0 sec) Dimension = 41
   => SHARK Basis and OBASIS are compatible. Storing Pre-screening
Shell pair information
Shell pair cut-off parameter TPreSel        ...   1.0e-11
Total number of shell pairs                 ...       861
Shell pairs after pre-screening             ...       846
Total number of primitive shell pairs       ...      5382
Primitive shell pairs kept                  ...      3726
          la=0 lb=0:    481 shell pairs
          la=1 lb=0:    310 shell pairs
          la=1 lb=1:     55 shell pairs

Checking whether 4 symmetric matrices of dimension 61 fit in memory
:Max Core in MB      =   1200.00
 MB in use           =      2.04
 MB left             =   1197.96
 MB needed           =      0.06
 Data fit in memory  = YES
Calculating Nuclear repulsion               ... done (  0.0 sec) ENN=    160.460404576161 Eh

Diagonalization of the overlap matrix:
Smallest eigenvalue                        ... 3.367e-03
Time for diagonalization                   ...    0.001 sec
Threshold for overlap eigenvalues          ... 1.000e-07
Number of eigenvalues below threshold      ... 0
Time for construction of square roots      ...    0.001 sec
Total time needed                          ...    0.003 sec

-------------------
DFT GRID GENERATION
-------------------

General Integration Accuracy     IntAcc      ... 4.388
Radial Grid Type                 RadialGrid  ... OptM3 with GC (2021)
Angular Grid (max. ang.)         AngularGrid ... 4 (Lebedev-302)
Angular grid pruning method      GridPruning ... 4 (adaptive)
Weight generation scheme         WeightScheme... mBecke (2022)
Basis function cutoff            BFCut       ... 1.0000e-10
Integration weight cutoff        WCut        ... 1.0000e-14
Partially contracted basis set               ... off
Rotationally invariant grid construction     ... off
Angular grids for H and He will be reduced by one unit

Total number of grid points                  ...    56084
Total number of batches                      ...      883
Average number of points per batch           ...       63
Average number of grid points per atom       ...     4314
Grids setup in   0.3 sec
Initializing property integral containers    ... done (  0.0 sec)

SHARK setup successfully completed in   0.3 seconds

Maximum memory used throughout the entire STARTUP-calculation: 11.9 MB


           ************************************************************
           *        Program running with 8 parallel MPI-processes     *
           *              working on a common directory               *
           ************************************************************
-------------------------------------------------------------------------------
                                 ORCA GUESS
                   Start orbitals & Density for SCF / CASSCF
-------------------------------------------------------------------------------

------------
SCF SETTINGS
------------
Hamiltonian:
 Ab initio Hamiltonian  Method          .... Hartree-Fock(GTOs)


General Settings:
 Integral files         IntName         .... h-shift_082
 Hartree-Fock type      HFTyp           .... RHF
 Total Charge           Charge          ....    0
 Multiplicity           Mult            ....    1
 Number of Electrons    NEL             ....   38
 Basis Dimension        Dim             ....   61
 Nuclear Repulsion      ENuc            ....    160.4604045762 Eh

Convergence Acceleration:
 AO-DIIS                CNVDIIS         .... on
   Start iteration      DIISMaxIt       ....    12
   Startup error        DIISStart       ....  0.200000
   # of expansion vecs  DIISMaxEq       ....     5
   Bias factor          DIISBfac        ....   1.050
   Max. coefficient     DIISMaxC        ....  10.000
 MO-DIIS                CNVKDIIS        .... off
 Trust-Rad. Augm. Hess. CNVTRAH         .... auto
   Auto Start mean grad. ratio tolernc. ....  1.125000
   Auto Start start iteration           ....    50
   Auto Start num. interpolation iter.  ....    10
   Max. Number of Micro iterations      ....    24
   Max. Number of Macro iterations      .... Maxiter - #DIIS iter
   Number of Davidson start vectors     ....     2
   Converg. threshold    (grad. norm)   ....   5.000e-05
   Grad. Scal. Fac. for Micro threshold ....   0.100
   Minimum threshold for Micro iter.    ....   1.000e-02
   NR start threshold (gradient norm)   ....   1.000e-04
   Initial trust radius                 ....   0.400
   Minimum AH scaling param. (alpha)    ....   1.000
   Maximum AH scaling param. (alpha)    .... 1000.000
   Quad. conv. algorithm                .... NR
   White noise on init. David. guess    .... on
   Maximum white noise                  ....   0.010
   Pseudo random numbers                .... off
   Inactive MOs                         .... canonical
   Orbital update algorithm             .... Taylor
   Preconditioner                       .... Diag
   Full preconditioner red. dimension   ....   250
 SOSCF                 CNVSOSCF           .... on
   Start iteration     SOSCFMaxIt         ....   150
   Startup grad/error  SOSCFStart         ....  0.003300
   Hessian update      SOSCFHessUp        .... L-BFGS
   Autom. constraints  SOSCFAutoConstrain .... off
 Level Shifting         CNVShift        .... on
   Level shift para.    LevelShift      ....    0.2500
   Turn off err/grad.   ShiftErr        ....    0.0010
 Zerner damping         CNVZerner       .... off
 Static damping         CNVDamp         .... on
   Fraction old density DampFac         ....    0.7000
   Max. Damping (<1)    DampMax         ....    0.9800
   Min. Damping (>=0)   DampMin         ....    0.0000
   Turn off err/grad.   DampErr         ....    0.1000

SCF Procedure:
 Maximum # iterations   MaxIter         ....   125
 SCF integral mode      SCFMode         .... Direct
   Integral package                     .... SHARK and LIBINT hybrid scheme
 Reset frequency        DirectResetFreq ....    20
 Integral Threshold     Thresh          ....  1.000e-10 Eh
 Primitive CutOff       TCut            ....  1.000e-11 Eh

Convergence Tolerance:
 Convergence Check Mode ConvCheckMode   .... Total+1el-Energy
 Convergence forced     ConvForced      .... 0
 Energy Change          TolE            ....  1.000e-06 Eh
 1-El. energy change                    ....  1.000e-03 Eh
 Orbital Gradient       TolG            ....  5.000e-05
 Orbital Rotation angle TolX            ....  5.000e-05
 DIIS Error             TolErr          ....  1.000e-06

------------------------------
INITIAL GUESS: MODEL POTENTIAL
------------------------------
Loading Hartree-Fock densities                     ... done
Calculating cut-offs                               ... done
Initializing the effective Hamiltonian             ... done
Setting up the integral package (SHARK)            ... done
Starting the Coulomb interaction                   ... done (   0.0 sec)
Making the grid                                    ... done (   0.1 sec)
Mapping shells                                     ... done
Starting the XC term evaluation                    ... done (   0.0 sec)
Transforming the Hamiltonian                       ... done (   0.0 sec)
Diagonalizing the Hamiltonian                      ... done (   0.0 sec)
Back transforming the eigenvectors                 ... done (   0.0 sec)
Now organizing SCF variables                       ... done
                      ------------------
                      INITIAL GUESS DONE (   0.1 sec)
                      ------------------
             **** ENERGY FILE WAS UPDATED (h-shift_082.en.tmp) ****
Finished Guess after   0.3 sec
Maximum memory used throughout the entire GUESS-calculation: 4.2 MB


           ************************************************************
           *        Program running with 8 parallel MPI-processes     *
           *              working on a common directory               *
           ************************************************************

-------------------------------------------------------------------------------------------
                                      ORCA LEAN-SCF
                              memory conserving SCF solver
-------------------------------------------------------------------------------------------

----------------------------------------D-I-I-S--------------------------------------------
Iteration    Energy (Eh)           Delta-E    RMSDP     MaxDP     DIISErr   Damp  Time(sec)
-------------------------------------------------------------------------------------------
               ***  Starting incremental Fock matrix formation  ***
    1    -193.6468513369011362     0.00e+00  1.57e-02  5.19e-02  1.82e-01  0.700   0.0
    2    -193.7279258104641144    -8.11e-02  1.25e-02  3.94e-02  1.19e-01  0.700   0.1
                               ***Turning on AO-DIIS***
    3    -193.7780604788098344    -5.01e-02  7.70e-03  2.01e-02  7.15e-02  0.700   0.1
    4    -193.8097415722943424    -3.17e-02  1.83e-02  4.38e-02  4.85e-02  0.000   0.0
                              *** Initializing SOSCF ***
---------------------------------------S-O-S-C-F--------------------------------------
Iteration    Energy (Eh)           Delta-E    RMSDP     MaxDP     MaxGrad    Time(sec)
--------------------------------------------------------------------------------------
    5    -193.8782693577879286    -6.85e-02  1.69e-03  2.66e-03  2.16e-03     0.0
               *** Restarting incremental Fock matrix formation ***
    6    -193.8783891192974806    -1.20e-04  8.61e-04  1.41e-03  1.33e-03     0.0
    7    -193.8784239500882336    -3.48e-05  5.32e-04  1.08e-03  5.39e-04     0.0
    8    -193.8784305621901467    -6.61e-06  6.98e-05  1.96e-04  1.33e-04     0.0
    9    -193.8784307746001900    -2.12e-07  3.17e-05  9.42e-05  3.47e-05     0.0
                 **** Energy Check signals convergence ****

               *****************************************************
               *                     SUCCESS                       *
               *           SCF CONVERGED AFTER   9 CYCLES          *
               *****************************************************

             **** ENERGY FILE WAS UPDATED (h-shift_082.en.tmp) ****

----------------
TOTAL SCF ENERGY
----------------

Total Energy       :       -193.87843083060994 Eh           -5275.70031 eV

Components:
Nuclear Repulsion  :        160.46040457616147 Eh            4366.34959 eV
Electronic Energy  :       -354.33883540677141 Eh           -9642.04990 eV
One Electron Energy:       -577.88317900421578 Eh          -15725.00074 eV
Two Electron Energy:        223.54434359744437 Eh            6082.95084 eV

Virial components:
Potential Energy   :       -388.03855790837940 Eh          -10559.06597 eV
Kinetic Energy     :        194.16012707776946 Eh            5283.36566 eV
Virial Ratio       :          1.99854915501242

---------------
SCF CONVERGENCE
---------------

  Last Energy change         ...    2.1241e-07  Tolerance :   1.0000e-06
  Last MAX-Density change    ...    9.4208e-05  Tolerance :   1.0000e-05
  Last RMS-Density change    ...    3.1706e-05  Tolerance :   1.0000e-06
  Last DIIS Error            ...    2.1612e-03  Tolerance :   1.0000e-06
  Last Orbital Gradient      ...    3.4679e-05  Tolerance :   5.0000e-05
  Last Orbital Rotation      ...    3.3903e-05  Tolerance :   5.0000e-05


----------------
ORBITAL ENERGIES
----------------

  NO   OCC          E(Eh)            E(eV) 
   0   2.0000     -11.236027      -305.7478 
   1   2.0000     -11.235345      -305.7293 
   2   2.0000     -11.227445      -305.5143 
   3   2.0000     -11.221744      -305.3592 
   4   2.0000     -11.215680      -305.1942 
   5   2.0000      -1.099683       -29.9239 
   6   2.0000      -1.021734       -27.8028 
   7   2.0000      -0.940949       -25.6045 
   8   2.0000      -0.814317       -22.1587 
   9   2.0000      -0.716476       -19.4963 
  10   2.0000      -0.666773       -18.1438 
  11   2.0000      -0.604451       -16.4480 
  12   2.0000      -0.585003       -15.9188 
  13   2.0000      -0.567211       -15.4346 
  14   2.0000      -0.540354       -14.7038 
  15   2.0000      -0.506958       -13.7950 
  16   2.0000      -0.468827       -12.7574 
  17   2.0000      -0.412492       -11.2245 
  18   2.0000      -0.315777        -8.5927 
  19   0.0000       0.132729         3.6117 
  20   0.0000       0.233524         6.3545 
  21   0.0000       0.253872         6.9082 
  22   0.0000       0.264039         7.1849 
  23   0.0000       0.291807         7.9405 
  24   0.0000       0.319452         8.6927 
  25   0.0000       0.337203         9.1758 
  26   0.0000       0.346708         9.4344 
  27   0.0000       0.357749         9.7348 
  28   0.0000       0.367864        10.0101 
  29   0.0000       0.427941        11.6449 
*Only the first 10 virtual orbitals were printed.

                    ********************************
                    * MULLIKEN POPULATION ANALYSIS *
                    ********************************

-----------------------
MULLIKEN ATOMIC CHARGES
-----------------------
   0 C :   -0.361382
   1 H :    0.180835
   2 C :   -0.507603
   3 C :   -0.148649
   4 C :   -0.196449
   5 C :   -0.151106
   6 H :    0.161951
   7 H :    0.171270
   8 H :    0.170355
   9 H :    0.159570
  10 H :    0.173173
  11 H :    0.174362
  12 H :    0.173674
Sum of atomic charges:   -0.0000000

--------------------------------
MULLIKEN REDUCED ORBITAL CHARGES
--------------------------------
  0 C s       :     3.265998  s :     3.265998
      pz      :     1.041268  p :     3.095384
      px      :     1.059182
      py      :     0.994935

  1 H s       :     0.819165  s :     0.819165

  2 C s       :     3.366346  s :     3.366346
      pz      :     1.065270  p :     3.141257
      px      :     1.076953
      py      :     0.999033

  3 C s       :     3.210021  s :     3.210021
      pz      :     0.999736  p :     2.938628
      px      :     0.981549
      py      :     0.957342

  4 C s       :     3.192842  s :     3.192842
      pz      :     0.998523  p :     3.003607
      px      :     0.940234
      py      :     1.064850

  5 C s       :     3.194227  s :     3.194227
      pz      :     0.944475  p :     2.956879
      px      :     1.017406
      py      :     0.994998

  6 H s       :     0.838049  s :     0.838049

  7 H s       :     0.828730  s :     0.828730

  8 H s       :     0.829645  s :     0.829645

  9 H s       :     0.840430  s :     0.840430

 10 H s       :     0.826827  s :     0.826827

 11 H s       :     0.825638  s :     0.825638

 12 H s       :     0.826326  s :     0.826326



                     *******************************
                     * LOEWDIN POPULATION ANALYSIS *
                     *******************************

----------------------
LOEWDIN ATOMIC CHARGES
----------------------
   0 C :   -0.245308
   1 H :    0.123926
   2 C :   -0.318885
   3 C :   -0.108300
   4 C :   -0.149377
   5 C :   -0.114118
   6 H :    0.116274
   7 H :    0.117361
   8 H :    0.117155
   9 H :    0.111318
  10 H :    0.116178
  11 H :    0.117216
  12 H :    0.116560

-------------------------------
LOEWDIN REDUCED ORBITAL CHARGES
-------------------------------
  0 C s       :     2.988297  s :     2.988297
      pz      :     1.073311  p :     3.257011
      px      :     1.076298
      py      :     1.107403

  1 H s       :     0.876074  s :     0.876074

  2 C s       :     2.976004  s :     2.976004
      pz      :     1.127679  p :     3.342881
      px      :     1.121454
      py      :     1.093748

  3 C s       :     2.951301  s :     2.951301
      pz      :     1.036000  p :     3.156999
      px      :     1.089388
      py      :     1.031612

  4 C s       :     2.940360  s :     2.940360
      pz      :     1.053011  p :     3.209017
      px      :     1.085386
      py      :     1.070620

  5 C s       :     2.944992  s :     2.944992
      pz      :     1.023340  p :     3.169126
      px      :     1.035265
      py      :     1.110521

  6 H s       :     0.883726  s :     0.883726

  7 H s       :     0.882639  s :     0.882639

  8 H s       :     0.882845  s :     0.882845

  9 H s       :     0.888682  s :     0.888682

 10 H s       :     0.883822  s :     0.883822

 11 H s       :     0.882784  s :     0.882784

 12 H s       :     0.883440  s :     0.883440



                      *****************************
                      * MAYER POPULATION ANALYSIS *
                      *****************************

  NA   - Mulliken gross atomic population
  ZA   - Total nuclear charge
  QA   - Mulliken gross atomic charge
  VA   - Mayer's total valence
  BVA  - Mayer's bonded valence
  FA   - Mayer's free valence

  ATOM       NA         ZA         QA         VA         BVA        FA
  0 C      6.3614     6.0000    -0.3614     3.8466     3.8466    -0.0000
  1 H      0.8192     1.0000     0.1808     0.9311     0.9311    -0.0000
  2 C      6.5076     6.0000    -0.5076     3.7719     3.7719    -0.0000
  3 C      6.1486     6.0000    -0.1486     3.7687     3.7687    -0.0000
  4 C      6.1964     6.0000    -0.1964     3.8260     3.8260    -0.0000
  5 C      6.1511     6.0000    -0.1511     3.8083     3.8083    -0.0000
  6 H      0.8380     1.0000     0.1620     0.9439     0.9439    -0.0000
  7 H      0.8287     1.0000     0.1713     0.9393     0.9393     0.0000
  8 H      0.8296     1.0000     0.1704     0.9225     0.9225    -0.0000
  9 H      0.8404     1.0000     0.1596     0.9320     0.9320     0.0000
 10 H      0.8268     1.0000     0.1732     0.9388     0.9388    -0.0000
 11 H      0.8256     1.0000     0.1744     0.9388     0.9388     0.0000
 12 H      0.8263     1.0000     0.1737     0.9372     0.9372     0.0000

  Mayer bond orders larger than 0.100000
B(  0-C ,  5-C ) :   1.8823 B(  0-C ,  6-H ) :   0.9627 B(  0-C ,  7-H ) :   0.9618 
B(  1-H ,  2-C ) :   0.9452 B(  2-C ,  3-C ) :   0.9573 B(  2-C ,  8-H ) :   0.9451 
B(  2-C ,  9-H ) :   0.9593 B(  3-C ,  4-C ) :   1.8854 B(  3-C , 10-H ) :   0.9581 
B(  4-C ,  5-C ) :   1.0439 B(  4-C , 11-H ) :   0.9567 B(  5-C , 12-H ) :   0.9575 


-------
TIMINGS
-------

Total SCF time: 0 days 0 hours 0 min 0 sec 

Total time                  ....       0.681 sec
Sum of individual times     ....       0.637 sec  ( 93.5%)

SCF preparation             ....       0.269 sec  ( 39.5%)
Fock matrix formation       ....       0.313 sec  ( 46.0%)
  Startup                   ....       0.002 sec  (  0.6% of F)
  Coulomb+Exchange Fock     ....       0.332 sec  (106.0% of F)
Diagonalization             ....       0.000 sec  (  0.0%)
Density matrix formation    ....       0.008 sec  (  1.1%)
Total Energy calculation    ....       0.005 sec  (  0.7%)
Population analysis         ....       0.005 sec  (  0.7%)
Orbital Transformation      ....       0.004 sec  (  0.7%)
Orbital Orthonormalization  ....       0.000 sec  (  0.0%)
DIIS solution               ....       0.020 sec  (  2.9%)
SOSCF solution              ....       0.013 sec  (  2.0%)
Finished LeanSCF after   0.7 sec

Maximum memory used throughout the entire LEANSCF-calculation: 6.4 MB

-------------------------   --------------------
FINAL SINGLE POINT ENERGY      -193.878430830610
-------------------------   --------------------



           ************************************************************
           *        Program running with 8 parallel MPI-processes     *
           *              working on a common directory               *
           ************************************************************

------------------------------------------------------------------------------
                              ORCA PROPERTY CALCULATIONS
------------------------------------------------------------------------------

GBWName                                 ... h-shift_082.gbw
Number of atoms                         ...     13
Number of basis functions               ...     61
Max core memory                         ...   1200 MB

Electric properties:
Dipole moment                           ... YES
Quadrupole moment                       ...  NO
Static polarizability (Dipole/Dipole)   ...  NO
Static polarizability (Dipole/Quad.)    ...  NO
Static polarizability (Quad./Quad.)     ...  NO
Static polarizability (Velocity)        ...  NO
Static hyperpolarizability              ...  NO

Atomic electric properties:
Dipole moment                           ...  NO
Quadrupole moment                       ...  NO
Static polarizability                   ...  NO

Choice of electric origin               ... Center of mass
Position of electric origin             ...     1.639198    -1.413790     1.915832

General magnetic properties:
Magnetizability                         ...  NO

EPR properties:
g-Tensor (aka g-matrix)                 ...  NO
Zero-Field splitting spin-orbit         ...  NO
Zero-field splitting spin-spin          ...  NO
Hyperfine couplings                     ...  NO (   0 nuclei)
Quadrupole couplings                    ...  NO (   0 nuclei)
Contact density                         ...  NO (   0 nuclei)

NMR properties:
Chemical shifts                         ...  NO (   0 nuclei)
Spin-rotation constants                 ...  NO (   0 nuclei)
Spin-spin couplings                     ...  NO (   0 nuclei,    0 pairs)

Choice of magnetic origin               ... GIAO
Position of magnetic origin             ...     0.000000     0.000000     0.000000

Properties with geometric perturbations:
SCF Hessian                             ...  NO
IR spectrum                             ...  NO
VCD spectrum                            ...  NO
X-ray spectroscopy properties:
SCF XES/XAS/RIXS spectra                ...  NO

SCF SOC stabilization energy            ...  NO
Diagonal Born-Oppenheimer correction    ...  NO

-------------
DIPOLE MOMENT
-------------

Method             : SCF
Type of density    : Electron Density
Multiplicity       :   1
Irrep              :   0
Energy             :  -193.8784308306099433 Eh
Basis              : AO
                                X                 Y                 Z
Electronic contribution:     -1.530046646      -1.817528881       0.803124930
Nuclear contribution   :      1.644133418       1.837295822      -0.815938620
                        -----------------------------------------
Total Dipole Moment    :      0.114086772       0.019766942      -0.012813691
                        -----------------------------------------
Magnitude (a.u.)       :      0.116493408
Magnitude (Debye)      :      0.296102712



--------------------
Rotational spectrum 
--------------------
 
Rotational constants in cm-1:             0.288548             0.137075             0.096229 
Rotational constants in MHz :          8650.447760          4109.412449          2884.860885 

Dipole components along the rotational axes: 
x,y,z [a.u.] :     0.099892     0.046554     0.037750 
x,y,z [Debye]:     0.253905     0.118330     0.095952 

 

Dipole moment calculation done in   0.0 sec 

Maximum memory used throughout the entire PROP-calculation: 2.2 MB

--------------------------------
SUGGESTED CITATIONS FOR THIS RUN
--------------------------------

Below you find a list of papers that are relevant to this ORCA run
We neither can nor want to force you to cite these papers, but we appreciate if you do
You receive ORCA, which is the product of decades of hard work by many enthusiastic individuals, for free
The only thing we kindly ask in return is that you cite our papers,
We deeply appreciate it, if you show your appreciation for ORCA by not just citing the generic ORCA reference.

Please note that relegating all ORCA citations to the supporting information does *not* help us.
SI sections are not indexed - citations you put there will not count into any citation statistics
But we need these citations in order to attract the funding resources that allow us to do what we are doing

Therefore, if you are a happy ORCA user, please consider citing a few of the papers listed below in the main body of your paper

In addition to the list printed below, the program has created the file h-shift_082.bibtex that contains the list in bibtex format
You can import this file easily into all common literature databanks and citation aid programs


List of essential papers. We consider these as the minimum necessary citations

  1. Neese, F.
     Software update: the ORCA program system, version 6.0
     WIRES Comput. Molec. Sci. 2025 15(1), e70019
     doi.org/10.1002/wcms.7019

List of papers to cite with high priority. The work reported in these papers was absolutely
necessary for this run to complete.
Our perspective: the developers of density functionals and basis sets usually get cited in chemistry papers
Good! But without the algorithms to do something with them, the functionals or basis sets would not do anything.
Hence, in our opinion, the algorithm design and method developments papers are equally worthy of getting cited

  1. Neese, F.
     The SHARK Integral Generation and Digestion System
     J. Comp. Chem. 2022 44(3), 381
     doi.org/10.1002/jcc.26942

List of suggested additional citations. These are papers that are important in the 'surrounding' of 
of this run, or papers that preceded the highly important papers. If you like your results we are grateful for a citation.

  1. Neese, F.
     The ORCA program system
     WIRES Comput. Molec. Sci. 2012 2(1), 73-78
     doi.org/10.1002/wcms.81
  2. Neese, F.
     Software update: the ORCA program system, version 4.0
     WIRES Comput. Molec. Sci. 2018 8(1), 1-6
     doi.org/10.1002/wcms.1327
  3. Neese, F.; Wennmohs, F.; Becker, U.; Riplinger, C.
     The ORCA quantum chemistry program package
     J. Chem. Phys. 2020 152(22), 224108
     doi.org/10.1063/5.0004608
  4. Neese, F.
     Software update: The ORCA program system—Version 5.0
     WIRES Comput. Molec. Sci. 2022 12(1), e1606
     doi.org/10.1002/wcms.1606

List of optional additional citations

  1. Neese, F.
     Approximate second-order SCF convergence for spin unrestricted wavefunctions
     Chem. Phys. Lett. 2000 325(1-3), 93-98
     doi.org/10.1016/s0009-2614(00)00662-x

Timings for individual modules:

Sum of individual times          ...        2.301 sec (=   0.038 min)
Startup calculation              ...        0.688 sec (=   0.011 min)  29.9 %
SCF iterations                   ...        1.236 sec (=   0.021 min)  53.7 %
Property calculations            ...        0.377 sec (=   0.006 min)  16.4 %
                             ****ORCA TERMINATED NORMALLY****
TOTAL RUN TIME: 0 days 0 hours 0 minutes 2 seconds 762 msec
