
                                 *****************
                                 * O   R   C   A *
                                 *****************

                                            #,                                       
                                            ###                                      
                                            ####                                     
                                            #####                                    
                                            ######                                   
                                           ########,                                 
                                     ,,################,,,,,                         
                               ,,#################################,,                 
                          ,,##########################################,,             
                       ,#########################################, ''#####,          
                    ,#############################################,,   '####,        
                  ,##################################################,,,,####,       
                ,###########''''           ''''###############################       
              ,#####''   ,,,,##########,,,,          '''####'''          '####       
            ,##' ,,,,###########################,,,                        '##       
           ' ,,###''''                  '''############,,,                           
         ,,##''                                '''############,,,,        ,,,,,,###''
      ,#''                                            '''#######################'''  
     '                                                          ''''####''''         
             ,#######,   #######,   ,#######,      ##                                
            ,#'     '#,  ##    ##  ,#'     '#,    #''#        ,####,    ,#,          
            ##       ##  ##   ,#'  ##            #'  '#       #'       ,# #          
            ##       ##  #######   ##           ,######,      #####,      #          
            '#,     ,#'  ##    ##  '#,     ,#' ,#      #,     #,   #      #          
             '#######'   ##     ##  '#######'  #'      '#     '####' #    #          



                #########################################################
                #                        -***-                          #
                #          Department of theory and spectroscopy        #
                #                                                       #
                #                      Frank Neese                      #
                #                                                       #
                #     Directorship, Architecture, Infrastructure        #
                #                    SHARK, DRIVERS                     #
                #        Core code/Algorithms in most modules           #
                #                                                       #
                #        Max Planck Institute fuer Kohlenforschung      #
                #                Kaiser Wilhelm Platz 1                 #
                #                 D-45470 Muelheim/Ruhr                 #
                #                      Germany                          #
                #                                                       #
                #                  All rights reserved                  #
                #                        -***-                          #
                #########################################################


                         Program Version 6.1.0  -  RELEASE   -
                                (GIT: $679e74b$)
                          ($2025-06-10 18:02:51 +0200$)


 With contributions from (in alphabetic order):
[Max-Planck-Institut fuer Kohlenforschung]                               
  Daniel Aravena         : Magnetic Suceptibility                        
  Michael Atanasov       : Ab Initio Ligand Field Theory (pilot matlab implementation)
  Alexander A. Auer      : GIAO ZORA, VPT2 properties, NMR spectrum      
  Ute Becker             : All parallelization in ORCA, NUMFREQ, NUMCALC 
  Giovanni Bistoni       : ED, misc. LED, open-shell LED, HFLD           
  Dmytro Bykov           : pre 5.0 version of the SCF Hessian            
  Marcos Casanova-Páez   : Triplet and SCS-CIS(D). UHF-(DLPNO)-IP/EA/STEOM-CCSD. UHF-CVS-IP/STEOM-CCSD   
  Vijay G. Chilkuri      : MRCI spin determinant printing, contributions to CSF-ICE 
  Pauline Colinet        : FMM embedding                                 
  Dipayan Datta          : RHF DLPNO-CCSD density                        
  Achintya Kumar Dutta   : EOM-CC, STEOM-CC                              
  Nicolas Foglia         : Exact transition moments, OPA infrastructure, MCD improvements    
  Dmitry Ganyushin       : Spin-Orbit,Spin-Spin,Magnetic field MRCI      
  Miquel Garcia-Rates    : C-PCM and meta-GGA Hessian, CCSD/C-PCM, Gaussian charge scheme 
  Tiago L. C. Gouveia    : GS-ROHF, GS-ROCIS                             
  Yang Guo               : DLPNO-NEVPT2, F12-NEVPT2, CIM, IAO-localization        
  Andreas Hansen         : Spin unrestricted coupled pair/coupled cluster methods 
  Ingolf Harden          : AUTO-CI MPn and infrastructure                
  Benjamin Helmich-Paris : MC-RPA, TRAH-(SCF,CASSCF), AVAS, COSX integrals, SCF dyn. polar., MC-PDFT, srDFT 
  Lee Huntington         : MR-EOM, pCC                                   
  Robert Izsak           : Overlap fitted RIJCOSX, COSX-SCS-MP3, EOM     
  Riya Kayal             : Wick's Theorem for AUTO-CI, AUTO-CI UHF-CCSDT 
  Emily Kempfer          : AUTO-CI RHF CISDT and CCSDT, approximate NEVPT4
  Christian Kollmar      : KDIIS, OOCD, Brueckner-CCSD(T), CCSD density, CASPT2, CASPT2-K, improved NEVPT2 
  Axel Koslowski         : Symmetry handling                             
  Simone Kossmann        : meta-GGA functionals, TD-DFT gradient, OOMP2, (MP2 Hessian; deprecated post 5.0) 
  Lucas Lang             : DCDCAS, Hyperfine gauge corrections, ICE-SOC+SSC
  Marvin Lechner         : AUTO-CI (C++ implementation), FIC-MRCC        
  Spencer Leger          : CASSCF response                               
  Dagmar Lenk            : GEPOL surface, SMD, ORCA-2-JSON               
  Dimitrios Liakos       : Extrapolation schemes; Compound Job, Property file
  Dimitrios Manganas     : Further ROCIS development; embedding schemes. LFT, Crystal Embedding 
  Dimitrios Pantazis     : SARC Basis sets                               
  Anastasios Papadopoulos: AUTO-CI, single reference methods and gradients 
  Taras Petrenko         : pre 6.0 DFT Hessian and TD-DFT gradient,  ECA, NRVS 
  Petra Pikulova         : Analytic Raman intensities                    
  Peter Pinski           : DLPNO-MP2, DLPNO-MP2 Gradient                 
  Shashank Vittal Rao    : ES-AILFT, MagRelax                            
  Christoph Reimann      : Effective Core Potentials                     
  Marius Retegan         : Local ZFS, SOC                                
  Christoph Riplinger    : Optimizer, TS searches, QM/MM, DLPNO-CCSD(T), (RO)-DLPNO pert. Triples 
  Michael Roemelt        : Original ROCIS implementation, recursive CI coupling coefficients
  Masaaki Saitow         : Open-shell DLPNO-CCSD energy and density      
  Barbara Sandhoefer     : DKH picture change effects                    
  Yorick L. A. Schmerwitz: GMF and freeze-and-release deltaSCF, NEB S-IDPP initial path                    
  Kantharuban Sivalingam : CASSCF convergence/infrastructure, NEVPT2, NEVPT3, NEVPT4(SD), FIC-MRCI and CEPA variants
  Bernardo de Souza      : ESD, SOC TD-DFT                               
  Georgi L. Stoychev     : AutoAux, RI-MP2 NMR, DLPNO-MP2 response, X2C  
  Van Anh Tran           : RI-MP2 g-tensors                              
  Willem Van den Heuvel  : Paramagnetic NMR                              
  Zikuan Wang            : NOTCH, Electric field optimization            
  Frank Wennmohs         : Technical directorship and infrastructure     
  Hang Xu                : AUTO-CI-Response properties                   
                                                                         
[FACCTs GmbH]                                                            
  Markus Bursch, Nicolas Foglia, Miquel Garcia-Rates, Ingolf Harden, Hagen Neugebauer, Anastasios Papadopoulos, 
  Christoph Riplinger, Bernardo de Souza, Georgi L. Stoychev                                                    
                                                                 
  APM, various basis sets, CI-OPT, improved COSX, DLPNO-Multilevel,           
  DOCKER, DRACO, updates on ESD, Fragmentator, GOAT, IRC, LR-CPCM, L-BFGS, MBIS, meta-GGA TD-DFT gradient, ML-optimized integration grids, 
  MM, NACMEs, nearIR, NEB, NEB-TS, NL-DFT gradient (VV10), 2- and 3-layer-ONIOM, interface openCOSMO-RS, QMMM,   
  Crystal-QMMM, RESP, rigid body optimization, SF, symmetry and pop. for TD-DFT, various functionals, SOLVATOR                                   
                                                                         
[Other institutions]                                                     
  V. Asgeirsson          : NEB                                           
  Christoph Bannwarth    : sTDA-DFT, sTD-DFT, PBEh-3c, B97-3c, D3        
  Giovanni Bistoni       : ETS/NOCV, ADLD/ADEX, COVALED                  
  Martin Brehm           : Molecular dynamics                            
  Ronald Cardenas        : ETS/NOCV                                      
  Martina Colucci        : COVALED                                       
  Sebastian Ehlert       : rSCAN, r2SCAN, r2SCAN-3c, D4, dhf basis sets  
  Marvin Friede          : D4 for Fr, Ra, Ac-Lr                          
  Lars Goerigk           : TD-DFT with DH, B97 family of functionals     
  Stefan Grimme          : VdW corrections, initial TS optimization, DFT functionals, gCP, sTDA/sTD-DF 
  Waldemar Hujo          : DFT-NL                                        
  H. Jonsson             : NEB                                           
  Holger Kruse           : gCP                                           
  Marcel Mueller         : wB97X-3c, vDZP basis set                      
  Hagen Neugebauer       : wr2SCAN, Native XTB                           
  Gianluca Regni         : ADLD/ADEX                                     
  Tobias Risthaus        : pre 6.0 range-separated hybrid DFT and stability analysis
  Lukas Wittmann         : regularized MP2, r2SCAN double-hybrids, wr2SCAN        
                                                                         
We gratefully acknowledge several colleagues who have allowed us to      
interface, adapt or use parts of their codes:                            
  Ed Valeev, F. Pavosevic, A. Kumar             : LibInt (2-el integral package), F12 methods 
  Garnet Chan, S. Sharma, J. Yang, R. Olivares  : DMRG                   
  Ulf Ekstrom                                   : XCFun DFT Library      
  Mihaly Kallay                                 : mrcc  (arbitrary order and MRCC methods)
  Frank Weinhold                                : gennbo (NPA and NBO analysis)           
  Simon Mueller                                 : openCOSMO-RS                            
  Christopher J. Cramer and Donald G. Truhlar   : smd solvation model                     
  S Lehtola, MJT Oliveira, MAL Marques          : LibXC Library                           
  Liviu Ungur et al                             : ANISO software                          


 Your calculation uses the libint2 library for the computation of 2-el integrals
 For citations please refer to: http://libint.valeyev.net

 Your ORCA version has been built with support for libXC version: 7.0.0
 For citations please refer to: https://libxc.gitlab.io

 This ORCA versions uses:
   CBLAS   interface :  Fast vector & matrix operations
   LAPACKE interface :  Fast linear algebra routines
   SCALAPACK package :  Parallel linear algebra routines
   Shared memory     :  Shared parallel matrices
   BLAS/LAPACK       :  OpenBLAS 0.3.29  USE64BITINT DYNAMIC_ARCH NO_AFFINITY Zen SINGLE_THREADED
        Core in use  :  Zen
   Copyright (c) 2011-2014, The OpenBLAS Project


  ***********************************
  * Starting time: Sun Apr  5 13:00:42 2026
  * Host name:     QC1
  * Process ID:    6180
  * Working dir.:  /home/user/QC/h-shift/split_2
  ***********************************

NOTE: MaxCore=1200 MB was set to SCF,MP2,MDCI,CIPSI,MRCI,RASCI and CIS
      => If you want to overwrite this, your respective input block should be placed after the MaxCore statement
================================================================================

----- Orbital basis set information -----
Your calculation utilizes the basis: 6-31G
   H-He, Li-Ne : W. J. Hehre, R. Ditchfield and J.A. Pople, J. Chem. Phys. 56, 2257 (1972).
                 Note: He and Ne are unpublished basis sets taken from the Gaussian program.
                 Note: Li and B from J. D. Dill and J. A. Pople, J. Chem. Phys. 62, 2921 (1975).
   Na - Ar     : M. M. Francl, W. J. Pietro, W. J. Hehre, J. S. Binkley, M. S. Gordon, 
                 D. J. DeFrees and J. A. Pople, J. Chem. Phys. 77, 3654 (1982).
   K - Zn      : V. A. Rassolov, J. A. Pople, M. A. Ratner, and T. L. Windus, J. Chem. Phys. 109, 1223 (1998).

================================================================================
                                        WARNINGS
                       Please study these warnings very carefully!
================================================================================


================================================================================
                                       INPUT FILE
================================================================================
NAME = h-shift_027.inp
|  1> ! HF 6-31G
|  2> %maxcore 1200
|  3> %pal nprocs 8 end
|  4> * xyz 0 1
|  5> C    0.02945800   0.01154700  -0.13474200
|  6> H    1.06597700   0.00753000  -0.44835300
|  7> C    2.54365000   0.01855000   1.48789700
|  8> C    2.01575400  -1.15946400   1.81462200
|  9> C    0.61981900  -1.60226700   1.68784900
| 10> C   -0.24002800  -1.15149300   0.77336300
| 11> H   -0.59652600   0.01026700  -1.01432300
| 12> H   -0.13393500   0.94924600   0.38991800
| 13> H    1.95898100   0.88080900   1.24484800
| 14> H    3.60636500   0.14830200   1.43132700
| 15> H    2.69091300  -1.93765500   2.12482900
| 16> H    0.33300500  -2.44327700   2.29581200
| 17> H   -1.17765900  -1.66414200   0.64734400
| 18> *
| 19> 
| 20>                          ****END OF INPUT****
================================================================================

                       ****************************
                       * Single Point Calculation *
                       ****************************

---------------------------------
CARTESIAN COORDINATES (ANGSTROEM)
---------------------------------
  C      0.029458    0.011547   -0.134742
  H      1.065977    0.007530   -0.448353
  C      2.543650    0.018550    1.487897
  C      2.015754   -1.159464    1.814622
  C      0.619819   -1.602267    1.687849
  C     -0.240028   -1.151493    0.773363
  H     -0.596526    0.010267   -1.014323
  H     -0.133935    0.949246    0.389918
  H      1.958981    0.880809    1.244848
  H      3.606365    0.148302    1.431327
  H      2.690913   -1.937655    2.124829
  H      0.333005   -2.443277    2.295812
  H     -1.177659   -1.664142    0.647344

----------------------------
CARTESIAN COORDINATES (A.U.)
----------------------------
  NO LB      ZA    FRAG     MASS         X           Y           Z
   0 C     6.0000    0    12.011    0.055668    0.021821   -0.254625
   1 H     1.0000    0     1.008    2.014405    0.014230   -0.847264
   2 C     6.0000    0    12.011    4.806802    0.035054    2.811718
   3 C     6.0000    0    12.011    3.809223   -2.191069    3.429139
   4 C     6.0000    0    12.011    1.171288   -3.027846    3.189572
   5 C     6.0000    0    12.011   -0.453587   -2.176006    1.461444
   6 H     1.0000    0     1.008   -1.127271    0.019402   -1.916793
   7 H     1.0000    0     1.008   -0.253100    1.793815    0.736838
   8 H     1.0000    0     1.008    3.701938    1.664488    2.352422
   9 H     1.0000    0     1.008    6.815042    0.280250    2.704816
  10 H     1.0000    0     1.008    5.085089   -3.661637    4.015345
  11 H     1.0000    0     1.008    0.629288   -4.617124    4.338456
  12 H     1.0000    0     1.008   -2.225453   -3.144773    1.223303

--------------------------------
INTERNAL COORDINATES (ANGSTROEM)
--------------------------------
 C      0   0   0     0.000000000000     0.00000000     0.00000000
 H      1   0   0     1.082931037957     0.00000000     0.00000000
 C      2   1   0     2.435714063233   110.51430767     0.00000000
 C      3   2   1     1.331593179855    87.16498500    62.64125021
 C      4   3   2     1.469959324119   128.44818488   321.86847843
 C      5   4   3     1.333723624549   124.71901922    28.48431443
 H      1   2   3     1.079592674214   108.60464217   179.78691739
 H      1   2   3     1.086850864953   106.67189374    63.73894525
 H      3   2   1     1.069766908744    59.43399042   290.47559183
 H      3   2   1     1.072100236745   124.05306676   188.54648492
 H      4   3   2     1.075941118561   117.50468805   135.27800969
 H      5   4   3     1.076651800753   116.07739892   199.79778667
 H      6   5   4     1.076030518955   118.75422817   168.90394661

---------------------------
INTERNAL COORDINATES (A.U.)
---------------------------
 C      0   0   0     0.000000000000     0.00000000     0.00000000
 H      1   0   0     2.046443083662     0.00000000     0.00000000
 C      2   1   0     4.602832520050   110.51430767     0.00000000
 C      3   2   1     2.516346431724    87.16498500    62.64125021
 C      4   3   2     2.777820550588   128.44818488   321.86847843
 C      5   4   3     2.520372388739   124.71901922    28.48431443
 H      1   2   3     2.040134490453   108.60464217   179.78691739
 H      1   2   3     2.053850483177   106.67189374    63.73894525
 H      3   2   1     2.021566484657    59.43399042   290.47559183
 H      3   2   1     2.025975835560   124.05306676   188.54648492
 H      4   3   2     2.033234050306   117.50468805   135.27800969
 H      5   4   3     2.034577045017   116.07739892   199.79778667
 H      6   5   4     2.033402992566   118.75422817   168.90394661

---------------------
BASIS SET INFORMATION
---------------------
There are 2 groups of distinct atoms

 Group   1 Type C   : 10s4p contracted to 3s2p pattern {631/31}
 Group   2 Type H   : 4s contracted to 2s pattern {31}

Atom   0C    basis set group =>   1
Atom   1H    basis set group =>   2
Atom   2C    basis set group =>   1
Atom   3C    basis set group =>   1
Atom   4C    basis set group =>   1
Atom   5C    basis set group =>   1
Atom   6H    basis set group =>   2
Atom   7H    basis set group =>   2
Atom   8H    basis set group =>   2
Atom   9H    basis set group =>   2
Atom  10H    basis set group =>   2
Atom  11H    basis set group =>   2
Atom  12H    basis set group =>   2


           ************************************************************
           *        Program running with 8 parallel MPI-processes     *
           *              working on a common directory               *
           ************************************************************
------------------------------------------------------------------------------
                             ORCA STARTUP CALCULATIONS
------------------------------------------------------------------------------
------------------------------------------------------------------------------
                   ___                                                        
                  /   \      - P O W E R E D   B Y -                         
                 /     \                                                     
                 |  |  |   _    _      __       _____    __    __             
                 |  |  |  | |  | |    /  \     |  _  \  |  |  /  |          
                  \  \/   | |  | |   /    \    | | | |  |  | /  /          
                 / \  \   | |__| |  /  /\  \   | |_| |  |  |/  /          
                |  |  |   |  __  | /  /__\  \  |    /   |      \           
                |  |  |   | |  | | |   __   |  |    \   |  |\   \          
                \     /   | |  | | |  |  |  |  | |\  \  |  | \   \       
                 \___/    |_|  |_| |__|  |__|  |_| \__\ |__|  \__/        
                                                                              
                      - O R C A' S   B I G   F R I E N D -                    
                                      &                                       
                       - I N T E G R A L  F E E D E R -                       
                                                                              
 v1 FN, 2020, v2 2021, v3 2022-2024                                           
------------------------------------------------------------------------------


----------------------
SHARK INTEGRAL PACKAGE
----------------------

Number of atoms                             ...     13
Number of basis functions                   ...     61
Number of shells                            ...     41
Maximum angular momentum                    ...      1
Integral batch strategy                     ... SHARK/LIBINT Hybrid
RI-J (if used) integral strategy            ... SPLIT-RIJ (Revised 2003 algorithm where possible)
Printlevel                                  ...      1
Contraction scheme used                     ... SEGMENTED contraction
Prescreening option                         ... SCHWARTZ
   Thresh                                   ... 1.000e-10
   Tcut                                     ... 1.000e-11
   Tpresel                                  ... 1.000e-11 
Coulomb Range Separation                    ... NOT USED
Exchange Range Separation                   ... NOT USED
Multipole approximations                    ... NOT USED
Finite Nucleus Model                        ... NOT USED
CABS basis                                  ... NOT available
Auxiliary Coulomb fitting basis             ... NOT available
Auxiliary J/K fitting basis                 ... NOT available
Auxiliary Correlation fitting basis         ... NOT available
Auxiliary 'external' fitting basis          ... NOT available

Checking pre-screening integrals            ... done (  0.0 sec) Dimension = 41
   => SHARK Basis and OBASIS are compatible. Storing Pre-screening
Shell pair information
Shell pair cut-off parameter TPreSel        ...   1.0e-11
Total number of shell pairs                 ...       861
Shell pairs after pre-screening             ...       846
Total number of primitive shell pairs       ...      5382
Primitive shell pairs kept                  ...      3737
          la=0 lb=0:    481 shell pairs
          la=1 lb=0:    310 shell pairs
          la=1 lb=1:     55 shell pairs

Checking whether 4 symmetric matrices of dimension 61 fit in memory
:Max Core in MB      =   1200.00
 MB in use           =      2.04
 MB left             =   1197.96
 MB needed           =      0.06
 Data fit in memory  = YES
Calculating Nuclear repulsion               ... done (  0.0 sec) ENN=    161.390381377751 Eh

Diagonalization of the overlap matrix:
Smallest eigenvalue                        ... 3.394e-03
Time for diagonalization                   ...    0.001 sec
Threshold for overlap eigenvalues          ... 1.000e-07
Number of eigenvalues below threshold      ... 0
Time for construction of square roots      ...    0.000 sec
Total time needed                          ...    0.001 sec

-------------------
DFT GRID GENERATION
-------------------

General Integration Accuracy     IntAcc      ... 4.388
Radial Grid Type                 RadialGrid  ... OptM3 with GC (2021)
Angular Grid (max. ang.)         AngularGrid ... 4 (Lebedev-302)
Angular grid pruning method      GridPruning ... 4 (adaptive)
Weight generation scheme         WeightScheme... mBecke (2022)
Basis function cutoff            BFCut       ... 1.0000e-10
Integration weight cutoff        WCut        ... 1.0000e-14
Partially contracted basis set               ... off
Rotationally invariant grid construction     ... off
Angular grids for H and He will be reduced by one unit

Total number of grid points                  ...    56021
Total number of batches                      ...      881
Average number of points per batch           ...       63
Average number of grid points per atom       ...     4309
Grids setup in   0.2 sec
Initializing property integral containers    ... done (  0.0 sec)

SHARK setup successfully completed in   0.3 seconds

Maximum memory used throughout the entire STARTUP-calculation: 11.8 MB


           ************************************************************
           *        Program running with 8 parallel MPI-processes     *
           *              working on a common directory               *
           ************************************************************
-------------------------------------------------------------------------------
                                 ORCA GUESS
                   Start orbitals & Density for SCF / CASSCF
-------------------------------------------------------------------------------

------------
SCF SETTINGS
------------
Hamiltonian:
 Ab initio Hamiltonian  Method          .... Hartree-Fock(GTOs)


General Settings:
 Integral files         IntName         .... h-shift_027
 Hartree-Fock type      HFTyp           .... RHF
 Total Charge           Charge          ....    0
 Multiplicity           Mult            ....    1
 Number of Electrons    NEL             ....   38
 Basis Dimension        Dim             ....   61
 Nuclear Repulsion      ENuc            ....    161.3903813778 Eh

Convergence Acceleration:
 AO-DIIS                CNVDIIS         .... on
   Start iteration      DIISMaxIt       ....    12
   Startup error        DIISStart       ....  0.200000
   # of expansion vecs  DIISMaxEq       ....     5
   Bias factor          DIISBfac        ....   1.050
   Max. coefficient     DIISMaxC        ....  10.000
 MO-DIIS                CNVKDIIS        .... off
 Trust-Rad. Augm. Hess. CNVTRAH         .... auto
   Auto Start mean grad. ratio tolernc. ....  1.125000
   Auto Start start iteration           ....    50
   Auto Start num. interpolation iter.  ....    10
   Max. Number of Micro iterations      ....    24
   Max. Number of Macro iterations      .... Maxiter - #DIIS iter
   Number of Davidson start vectors     ....     2
   Converg. threshold    (grad. norm)   ....   5.000e-05
   Grad. Scal. Fac. for Micro threshold ....   0.100
   Minimum threshold for Micro iter.    ....   1.000e-02
   NR start threshold (gradient norm)   ....   1.000e-04
   Initial trust radius                 ....   0.400
   Minimum AH scaling param. (alpha)    ....   1.000
   Maximum AH scaling param. (alpha)    .... 1000.000
   Quad. conv. algorithm                .... NR
   White noise on init. David. guess    .... on
   Maximum white noise                  ....   0.010
   Pseudo random numbers                .... off
   Inactive MOs                         .... canonical
   Orbital update algorithm             .... Taylor
   Preconditioner                       .... Diag
   Full preconditioner red. dimension   ....   250
 SOSCF                 CNVSOSCF           .... on
   Start iteration     SOSCFMaxIt         ....   150
   Startup grad/error  SOSCFStart         ....  0.003300
   Hessian update      SOSCFHessUp        .... L-BFGS
   Autom. constraints  SOSCFAutoConstrain .... off
 Level Shifting         CNVShift        .... on
   Level shift para.    LevelShift      ....    0.2500
   Turn off err/grad.   ShiftErr        ....    0.0010
 Zerner damping         CNVZerner       .... off
 Static damping         CNVDamp         .... on
   Fraction old density DampFac         ....    0.7000
   Max. Damping (<1)    DampMax         ....    0.9800
   Min. Damping (>=0)   DampMin         ....    0.0000
   Turn off err/grad.   DampErr         ....    0.1000

SCF Procedure:
 Maximum # iterations   MaxIter         ....   125
 SCF integral mode      SCFMode         .... Direct
   Integral package                     .... SHARK and LIBINT hybrid scheme
 Reset frequency        DirectResetFreq ....    20
 Integral Threshold     Thresh          ....  1.000e-10 Eh
 Primitive CutOff       TCut            ....  1.000e-11 Eh

Convergence Tolerance:
 Convergence Check Mode ConvCheckMode   .... Total+1el-Energy
 Convergence forced     ConvForced      .... 0
 Energy Change          TolE            ....  1.000e-06 Eh
 1-El. energy change                    ....  1.000e-03 Eh
 Orbital Gradient       TolG            ....  5.000e-05
 Orbital Rotation angle TolX            ....  5.000e-05
 DIIS Error             TolErr          ....  1.000e-06

------------------------------
INITIAL GUESS: MODEL POTENTIAL
------------------------------
Loading Hartree-Fock densities                     ... done
Calculating cut-offs                               ... done
Initializing the effective Hamiltonian             ... done
Setting up the integral package (SHARK)            ... done
Starting the Coulomb interaction                   ... done (   0.0 sec)
Making the grid                                    ... done (   0.1 sec)
Mapping shells                                     ... done
Starting the XC term evaluation                    ... done (   0.0 sec)
Transforming the Hamiltonian                       ... done (   0.0 sec)
Diagonalizing the Hamiltonian                      ... done (   0.0 sec)
Back transforming the eigenvectors                 ... done (   0.0 sec)
Now organizing SCF variables                       ... done
                      ------------------
                      INITIAL GUESS DONE (   0.1 sec)
                      ------------------
             **** ENERGY FILE WAS UPDATED (h-shift_027.en.tmp) ****
Finished Guess after   0.3 sec
Maximum memory used throughout the entire GUESS-calculation: 4.2 MB


           ************************************************************
           *        Program running with 8 parallel MPI-processes     *
           *              working on a common directory               *
           ************************************************************

-------------------------------------------------------------------------------------------
                                      ORCA LEAN-SCF
                              memory conserving SCF solver
-------------------------------------------------------------------------------------------

----------------------------------------D-I-I-S--------------------------------------------
Iteration    Energy (Eh)           Delta-E    RMSDP     MaxDP     DIISErr   Damp  Time(sec)
-------------------------------------------------------------------------------------------
               ***  Starting incremental Fock matrix formation  ***
    1    -193.6426612544977104     0.00e+00  1.57e-02  5.32e-02  1.87e-01  0.700   0.1
    2    -193.7234648724430883    -8.08e-02  1.25e-02  4.03e-02  1.22e-01  0.700   0.0
                               ***Turning on AO-DIIS***
    3    -193.7734109351797827    -4.99e-02  7.69e-03  2.02e-02  7.29e-02  0.700   0.0
    4    -193.8049729969506814    -3.16e-02  1.83e-02  4.28e-02  4.93e-02  0.000   0.0
                              *** Initializing SOSCF ***
---------------------------------------S-O-S-C-F--------------------------------------
Iteration    Energy (Eh)           Delta-E    RMSDP     MaxDP     MaxGrad    Time(sec)
--------------------------------------------------------------------------------------
    5    -193.8732672358048887    -6.83e-02  1.71e-03  2.80e-03  2.78e-03     0.1
               *** Restarting incremental Fock matrix formation ***
    6    -193.8733909048688417    -1.24e-04  8.84e-04  1.86e-03  1.39e-03     0.0
    7    -193.8734280212657666    -3.71e-05  5.60e-04  1.23e-03  5.76e-04     0.0
    8    -193.8734354168800280    -7.40e-06  7.43e-05  1.77e-04  1.36e-04     0.0
    9    -193.8734356453739736    -2.28e-07  3.32e-05  7.92e-05  2.89e-05     0.0
                 **** Energy Check signals convergence ****

               *****************************************************
               *                     SUCCESS                       *
               *           SCF CONVERGED AFTER   9 CYCLES          *
               *****************************************************

             **** ENERGY FILE WAS UPDATED (h-shift_027.en.tmp) ****

----------------
TOTAL SCF ENERGY
----------------

Total Energy       :       -193.87343570553915 Eh           -5275.56439 eV

Components:
Nuclear Repulsion  :        161.39038137775051 Eh            4391.65554 eV
Electronic Energy  :       -355.26381708328967 Eh           -9667.21993 eV
One Electron Energy:       -579.73368794239673 Eh          -15775.35565 eV
Two Electron Energy:        224.46987085910706 Eh            6108.13572 eV

Virial components:
Potential Energy   :       -388.05415025359531 Eh          -10559.49026 eV
Kinetic Energy     :        194.18071454805616 Eh            5283.92587 eV
Virial Ratio       :          1.99841756251010

---------------
SCF CONVERGENCE
---------------

  Last Energy change         ...    2.2849e-07  Tolerance :   1.0000e-06
  Last MAX-Density change    ...    7.9219e-05  Tolerance :   1.0000e-05
  Last RMS-Density change    ...    3.3222e-05  Tolerance :   1.0000e-06
  Last DIIS Error            ...    2.7772e-03  Tolerance :   1.0000e-06
  Last Orbital Gradient      ...    2.8872e-05  Tolerance :   5.0000e-05
  Last Orbital Rotation      ...    3.0298e-05  Tolerance :   5.0000e-05


----------------
ORBITAL ENERGIES
----------------

  NO   OCC          E(Eh)            E(eV) 
   0   2.0000     -11.236080      -305.7493 
   1   2.0000     -11.236023      -305.7477 
   2   2.0000     -11.227694      -305.5211 
   3   2.0000     -11.220989      -305.3386 
   4   2.0000     -11.214067      -305.1503 
   5   2.0000      -1.101984       -29.9865 
   6   2.0000      -1.019907       -27.7531 
   7   2.0000      -0.941615       -25.6226 
   8   2.0000      -0.813132       -22.1264 
   9   2.0000      -0.718858       -19.5611 
  10   2.0000      -0.668242       -18.1838 
  11   2.0000      -0.601852       -16.3772 
  12   2.0000      -0.584483       -15.9046 
  13   2.0000      -0.567744       -15.4491 
  14   2.0000      -0.543122       -14.7791 
  15   2.0000      -0.507461       -13.8087 
  16   2.0000      -0.469558       -12.7773 
  17   2.0000      -0.409299       -11.1376 
  18   2.0000      -0.314864        -8.5679 
  19   0.0000       0.132762         3.6126 
  20   0.0000       0.229632         6.2486 
  21   0.0000       0.251503         6.8437 
  22   0.0000       0.268259         7.2997 
  23   0.0000       0.291477         7.9315 
  24   0.0000       0.322308         8.7705 
  25   0.0000       0.335956         9.1418 
  26   0.0000       0.348029         9.4704 
  27   0.0000       0.362156         9.8548 
  28   0.0000       0.368264        10.0210 
  29   0.0000       0.431827        11.7506 
*Only the first 10 virtual orbitals were printed.

                    ********************************
                    * MULLIKEN POPULATION ANALYSIS *
                    ********************************

-----------------------
MULLIKEN ATOMIC CHARGES
-----------------------
   0 C :   -0.513051
   1 H :    0.183829
   2 C :   -0.364934
   3 C :   -0.152982
   4 C :   -0.197268
   5 C :   -0.146605
   6 H :    0.158827
   7 H :    0.171703
   8 H :    0.173198
   9 H :    0.161743
  10 H :    0.172640
  11 H :    0.176029
  12 H :    0.176871
Sum of atomic charges:    0.0000000

--------------------------------
MULLIKEN REDUCED ORBITAL CHARGES
--------------------------------
  0 C s       :     3.367104  s :     3.367104
      pz      :     1.040260  p :     3.145947
      px      :     1.111454
      py      :     0.994233

  1 H s       :     0.816171  s :     0.816171

  2 C s       :     3.267662  s :     3.267662
      pz      :     1.016046  p :     3.097272
      px      :     1.082797
      py      :     0.998428

  3 C s       :     3.195661  s :     3.195661
      pz      :     0.995887  p :     2.957321
      px      :     0.965128
      py      :     0.996305

  4 C s       :     3.195480  s :     3.195480
      pz      :     1.013459  p :     3.001788
      px      :     0.925068
      py      :     1.063261

  5 C s       :     3.211386  s :     3.211386
      pz      :     0.938341  p :     2.935219
      px      :     1.032281
      py      :     0.964597

  6 H s       :     0.841173  s :     0.841173

  7 H s       :     0.828297  s :     0.828297

  8 H s       :     0.826802  s :     0.826802

  9 H s       :     0.838257  s :     0.838257

 10 H s       :     0.827360  s :     0.827360

 11 H s       :     0.823971  s :     0.823971

 12 H s       :     0.823129  s :     0.823129



                     *******************************
                     * LOEWDIN POPULATION ANALYSIS *
                     *******************************

----------------------
LOEWDIN ATOMIC CHARGES
----------------------
   0 C :   -0.320502
   1 H :    0.126548
   2 C :   -0.249231
   3 C :   -0.113871
   4 C :   -0.150378
   5 C :   -0.105422
   6 H :    0.110225
   7 H :    0.117248
   8 H :    0.118009
   9 H :    0.116081
  10 H :    0.116625
  11 H :    0.117414
  12 H :    0.117254

-------------------------------
LOEWDIN REDUCED ORBITAL CHARGES
-------------------------------
  0 C s       :     2.976383  s :     2.976383
      pz      :     1.107946  p :     3.344119
      px      :     1.144953
      py      :     1.091221

  1 H s       :     0.873452  s :     0.873452

  2 C s       :     2.988612  s :     2.988612
      pz      :     1.037575  p :     3.260619
      px      :     1.116374
      py      :     1.106670

  3 C s       :     2.944982  s :     2.944982
      pz      :     0.988135  p :     3.168888
      px      :     1.072291
      py      :     1.108462

  4 C s       :     2.941280  s :     2.941280
      pz      :     1.075798  p :     3.209097
      px      :     1.062667
      py      :     1.070632

  5 C s       :     2.952462  s :     2.952462
      pz      :     1.032827  p :     3.152960
      px      :     1.085144
      py      :     1.034989

  6 H s       :     0.889775  s :     0.889775

  7 H s       :     0.882752  s :     0.882752

  8 H s       :     0.881991  s :     0.881991

  9 H s       :     0.883919  s :     0.883919

 10 H s       :     0.883375  s :     0.883375

 11 H s       :     0.882586  s :     0.882586

 12 H s       :     0.882746  s :     0.882746



                      *****************************
                      * MAYER POPULATION ANALYSIS *
                      *****************************

  NA   - Mulliken gross atomic population
  ZA   - Total nuclear charge
  QA   - Mulliken gross atomic charge
  VA   - Mayer's total valence
  BVA  - Mayer's bonded valence
  FA   - Mayer's free valence

  ATOM       NA         ZA         QA         VA         BVA        FA
  0 C      6.5131     6.0000    -0.5131     3.7707     3.7707     0.0000
  1 H      0.8162     1.0000     0.1838     0.9291     0.9291    -0.0000
  2 C      6.3649     6.0000    -0.3649     3.8430     3.8430    -0.0000
  3 C      6.1530     6.0000    -0.1530     3.8081     3.8081    -0.0000
  4 C      6.1973     6.0000    -0.1973     3.8203     3.8203     0.0000
  5 C      6.1466     6.0000    -0.1466     3.7627     3.7627     0.0000
  6 H      0.8412     1.0000     0.1588     0.9333     0.9333     0.0000
  7 H      0.8283     1.0000     0.1717     0.9217     0.9217     0.0000
  8 H      0.8268     1.0000     0.1732     0.9381     0.9381    -0.0000
  9 H      0.8383     1.0000     0.1617     0.9436     0.9436    -0.0000
 10 H      0.8274     1.0000     0.1726     0.9371     0.9371     0.0000
 11 H      0.8240     1.0000     0.1760     0.9386     0.9386     0.0000
 12 H      0.8231     1.0000     0.1769     0.9384     0.9384    -0.0000

  Mayer bond orders larger than 0.100000
B(  0-C ,  1-H ) :   0.9386 B(  0-C ,  5-C ) :   0.9613 B(  0-C ,  6-H ) :   0.9602 
B(  0-C ,  7-H ) :   0.9454 B(  2-C ,  3-C ) :   1.8734 B(  2-C ,  8-H ) :   0.9610 
B(  2-C ,  9-H ) :   0.9627 B(  3-C ,  4-C ) :   1.0507 B(  3-C , 10-H ) :   0.9579 
B(  4-C ,  5-C ) :   1.8742 B(  4-C , 11-H ) :   0.9564 B(  5-C , 12-H ) :   0.9567 


-------
TIMINGS
-------

Total SCF time: 0 days 0 hours 0 min 0 sec 

Total time                  ....       0.689 sec
Sum of individual times     ....       0.646 sec  ( 93.8%)

SCF preparation             ....       0.265 sec  ( 38.4%)
Fock matrix formation       ....       0.325 sec  ( 47.2%)
  Startup                   ....       0.001 sec  (  0.4% of F)
  Coulomb+Exchange Fock     ....       0.344 sec  (105.8% of F)
Diagonalization             ....       0.000 sec  (  0.0%)
Density matrix formation    ....       0.008 sec  (  1.2%)
Total Energy calculation    ....       0.005 sec  (  0.7%)
Population analysis         ....       0.005 sec  (  0.7%)
Orbital Transformation      ....       0.005 sec  (  0.7%)
Orbital Orthonormalization  ....       0.000 sec  (  0.0%)
DIIS solution               ....       0.021 sec  (  3.0%)
SOSCF solution              ....       0.013 sec  (  2.0%)
Finished LeanSCF after   0.7 sec

Maximum memory used throughout the entire LEANSCF-calculation: 6.4 MB

-------------------------   --------------------
FINAL SINGLE POINT ENERGY      -193.873435705539
-------------------------   --------------------



           ************************************************************
           *        Program running with 8 parallel MPI-processes     *
           *              working on a common directory               *
           ************************************************************

------------------------------------------------------------------------------
                              ORCA PROPERTY CALCULATIONS
------------------------------------------------------------------------------

GBWName                                 ... h-shift_027.gbw
Number of atoms                         ...     13
Number of basis functions               ...     61
Max core memory                         ...   1200 MB

Electric properties:
Dipole moment                           ... YES
Quadrupole moment                       ...  NO
Static polarizability (Dipole/Dipole)   ...  NO
Static polarizability (Dipole/Quad.)    ...  NO
Static polarizability (Quad./Quad.)     ...  NO
Static polarizability (Velocity)        ...  NO
Static hyperpolarizability              ...  NO

Atomic electric properties:
Dipole moment                           ...  NO
Quadrupole moment                       ...  NO
Static polarizability                   ...  NO

Choice of electric origin               ... Center of mass
Position of electric origin             ...     1.872210    -1.407094     2.062155

General magnetic properties:
Magnetizability                         ...  NO

EPR properties:
g-Tensor (aka g-matrix)                 ...  NO
Zero-Field splitting spin-orbit         ...  NO
Zero-field splitting spin-spin          ...  NO
Hyperfine couplings                     ...  NO (   0 nuclei)
Quadrupole couplings                    ...  NO (   0 nuclei)
Contact density                         ...  NO (   0 nuclei)

NMR properties:
Chemical shifts                         ...  NO (   0 nuclei)
Spin-rotation constants                 ...  NO (   0 nuclei)
Spin-spin couplings                     ...  NO (   0 nuclei,    0 pairs)

Choice of magnetic origin               ... GIAO
Position of magnetic origin             ...     0.000000     0.000000     0.000000

Properties with geometric perturbations:
SCF Hessian                             ...  NO
IR spectrum                             ...  NO
VCD spectrum                            ...  NO
X-ray spectroscopy properties:
SCF XES/XAS/RIXS spectra                ...  NO

SCF SOC stabilization energy            ...  NO
Diagonal Born-Oppenheimer correction    ...  NO

-------------
DIPOLE MOMENT
-------------

Method             : SCF
Type of density    : Electron Density
Multiplicity       :   1
Irrep              :   0
Energy             :  -193.8734357055391513 Eh
Basis              : AO
                                X                 Y                 Z
Electronic contribution:      0.119143226      -1.798228796       1.785534609
Nuclear contribution   :     -0.167675711       1.789943706      -1.931295188
                        -----------------------------------------
Total Dipole Moment    :     -0.048532486      -0.008285090      -0.145760580
                        -----------------------------------------
Magnitude (a.u.)       :      0.153851199
Magnitude (Debye)      :      0.391058670



--------------------
Rotational spectrum 
--------------------
 
Rotational constants in cm-1:             0.282370             0.144193             0.098724 
Rotational constants in MHz :          8465.244870          4322.808043          2959.680041 

Dipole components along the rotational axes: 
x,y,z [a.u.] :     0.112649     0.052571    -0.090645 
x,y,z [Debye]:     0.286332     0.133625    -0.230402 

 

Dipole moment calculation done in   0.0 sec 

Maximum memory used throughout the entire PROP-calculation: 2.2 MB

--------------------------------
SUGGESTED CITATIONS FOR THIS RUN
--------------------------------

Below you find a list of papers that are relevant to this ORCA run
We neither can nor want to force you to cite these papers, but we appreciate if you do
You receive ORCA, which is the product of decades of hard work by many enthusiastic individuals, for free
The only thing we kindly ask in return is that you cite our papers,
We deeply appreciate it, if you show your appreciation for ORCA by not just citing the generic ORCA reference.

Please note that relegating all ORCA citations to the supporting information does *not* help us.
SI sections are not indexed - citations you put there will not count into any citation statistics
But we need these citations in order to attract the funding resources that allow us to do what we are doing

Therefore, if you are a happy ORCA user, please consider citing a few of the papers listed below in the main body of your paper

In addition to the list printed below, the program has created the file h-shift_027.bibtex that contains the list in bibtex format
You can import this file easily into all common literature databanks and citation aid programs


List of essential papers. We consider these as the minimum necessary citations

  1. Neese, F.
     Software update: the ORCA program system, version 6.0
     WIRES Comput. Molec. Sci. 2025 15(1), e70019
     doi.org/10.1002/wcms.7019

List of papers to cite with high priority. The work reported in these papers was absolutely
necessary for this run to complete.
Our perspective: the developers of density functionals and basis sets usually get cited in chemistry papers
Good! But without the algorithms to do something with them, the functionals or basis sets would not do anything.
Hence, in our opinion, the algorithm design and method developments papers are equally worthy of getting cited

  1. Neese, F.
     The SHARK Integral Generation and Digestion System
     J. Comp. Chem. 2022 44(3), 381
     doi.org/10.1002/jcc.26942

List of suggested additional citations. These are papers that are important in the 'surrounding' of 
of this run, or papers that preceded the highly important papers. If you like your results we are grateful for a citation.

  1. Neese, F.
     The ORCA program system
     WIRES Comput. Molec. Sci. 2012 2(1), 73-78
     doi.org/10.1002/wcms.81
  2. Neese, F.
     Software update: the ORCA program system, version 4.0
     WIRES Comput. Molec. Sci. 2018 8(1), 1-6
     doi.org/10.1002/wcms.1327
  3. Neese, F.; Wennmohs, F.; Becker, U.; Riplinger, C.
     The ORCA quantum chemistry program package
     J. Chem. Phys. 2020 152(22), 224108
     doi.org/10.1063/5.0004608
  4. Neese, F.
     Software update: The ORCA program system—Version 5.0
     WIRES Comput. Molec. Sci. 2022 12(1), e1606
     doi.org/10.1002/wcms.1606

List of optional additional citations

  1. Neese, F.
     Approximate second-order SCF convergence for spin unrestricted wavefunctions
     Chem. Phys. Lett. 2000 325(1-3), 93-98
     doi.org/10.1016/s0009-2614(00)00662-x

Timings for individual modules:

Sum of individual times          ...        2.278 sec (=   0.038 min)
Startup calculation              ...        0.634 sec (=   0.011 min)  27.8 %
SCF iterations                   ...        1.273 sec (=   0.021 min)  55.9 %
Property calculations            ...        0.371 sec (=   0.006 min)  16.3 %
                             ****ORCA TERMINATED NORMALLY****
TOTAL RUN TIME: 0 days 0 hours 0 minutes 2 seconds 723 msec
