
                                 *****************
                                 * O   R   C   A *
                                 *****************

                                            #,                                       
                                            ###                                      
                                            ####                                     
                                            #####                                    
                                            ######                                   
                                           ########,                                 
                                     ,,################,,,,,                         
                               ,,#################################,,                 
                          ,,##########################################,,             
                       ,#########################################, ''#####,          
                    ,#############################################,,   '####,        
                  ,##################################################,,,,####,       
                ,###########''''           ''''###############################       
              ,#####''   ,,,,##########,,,,          '''####'''          '####       
            ,##' ,,,,###########################,,,                        '##       
           ' ,,###''''                  '''############,,,                           
         ,,##''                                '''############,,,,        ,,,,,,###''
      ,#''                                            '''#######################'''  
     '                                                          ''''####''''         
             ,#######,   #######,   ,#######,      ##                                
            ,#'     '#,  ##    ##  ,#'     '#,    #''#        ,####,    ,#,          
            ##       ##  ##   ,#'  ##            #'  '#       #'       ,# #          
            ##       ##  #######   ##           ,######,      #####,      #          
            '#,     ,#'  ##    ##  '#,     ,#' ,#      #,     #,   #      #          
             '#######'   ##     ##  '#######'  #'      '#     '####' #    #          



                #########################################################
                #                        -***-                          #
                #          Department of theory and spectroscopy        #
                #                                                       #
                #                      Frank Neese                      #
                #                                                       #
                #     Directorship, Architecture, Infrastructure        #
                #                    SHARK, DRIVERS                     #
                #        Core code/Algorithms in most modules           #
                #                                                       #
                #        Max Planck Institute fuer Kohlenforschung      #
                #                Kaiser Wilhelm Platz 1                 #
                #                 D-45470 Muelheim/Ruhr                 #
                #                      Germany                          #
                #                                                       #
                #                  All rights reserved                  #
                #                        -***-                          #
                #########################################################


                         Program Version 6.1.0  -  RELEASE   -
                                (GIT: $679e74b$)
                          ($2025-06-10 18:02:51 +0200$)


 With contributions from (in alphabetic order):
[Max-Planck-Institut fuer Kohlenforschung]                               
  Daniel Aravena         : Magnetic Suceptibility                        
  Michael Atanasov       : Ab Initio Ligand Field Theory (pilot matlab implementation)
  Alexander A. Auer      : GIAO ZORA, VPT2 properties, NMR spectrum      
  Ute Becker             : All parallelization in ORCA, NUMFREQ, NUMCALC 
  Giovanni Bistoni       : ED, misc. LED, open-shell LED, HFLD           
  Dmytro Bykov           : pre 5.0 version of the SCF Hessian            
  Marcos Casanova-Páez   : Triplet and SCS-CIS(D). UHF-(DLPNO)-IP/EA/STEOM-CCSD. UHF-CVS-IP/STEOM-CCSD   
  Vijay G. Chilkuri      : MRCI spin determinant printing, contributions to CSF-ICE 
  Pauline Colinet        : FMM embedding                                 
  Dipayan Datta          : RHF DLPNO-CCSD density                        
  Achintya Kumar Dutta   : EOM-CC, STEOM-CC                              
  Nicolas Foglia         : Exact transition moments, OPA infrastructure, MCD improvements    
  Dmitry Ganyushin       : Spin-Orbit,Spin-Spin,Magnetic field MRCI      
  Miquel Garcia-Rates    : C-PCM and meta-GGA Hessian, CCSD/C-PCM, Gaussian charge scheme 
  Tiago L. C. Gouveia    : GS-ROHF, GS-ROCIS                             
  Yang Guo               : DLPNO-NEVPT2, F12-NEVPT2, CIM, IAO-localization        
  Andreas Hansen         : Spin unrestricted coupled pair/coupled cluster methods 
  Ingolf Harden          : AUTO-CI MPn and infrastructure                
  Benjamin Helmich-Paris : MC-RPA, TRAH-(SCF,CASSCF), AVAS, COSX integrals, SCF dyn. polar., MC-PDFT, srDFT 
  Lee Huntington         : MR-EOM, pCC                                   
  Robert Izsak           : Overlap fitted RIJCOSX, COSX-SCS-MP3, EOM     
  Riya Kayal             : Wick's Theorem for AUTO-CI, AUTO-CI UHF-CCSDT 
  Emily Kempfer          : AUTO-CI RHF CISDT and CCSDT, approximate NEVPT4
  Christian Kollmar      : KDIIS, OOCD, Brueckner-CCSD(T), CCSD density, CASPT2, CASPT2-K, improved NEVPT2 
  Axel Koslowski         : Symmetry handling                             
  Simone Kossmann        : meta-GGA functionals, TD-DFT gradient, OOMP2, (MP2 Hessian; deprecated post 5.0) 
  Lucas Lang             : DCDCAS, Hyperfine gauge corrections, ICE-SOC+SSC
  Marvin Lechner         : AUTO-CI (C++ implementation), FIC-MRCC        
  Spencer Leger          : CASSCF response                               
  Dagmar Lenk            : GEPOL surface, SMD, ORCA-2-JSON               
  Dimitrios Liakos       : Extrapolation schemes; Compound Job, Property file
  Dimitrios Manganas     : Further ROCIS development; embedding schemes. LFT, Crystal Embedding 
  Dimitrios Pantazis     : SARC Basis sets                               
  Anastasios Papadopoulos: AUTO-CI, single reference methods and gradients 
  Taras Petrenko         : pre 6.0 DFT Hessian and TD-DFT gradient,  ECA, NRVS 
  Petra Pikulova         : Analytic Raman intensities                    
  Peter Pinski           : DLPNO-MP2, DLPNO-MP2 Gradient                 
  Shashank Vittal Rao    : ES-AILFT, MagRelax                            
  Christoph Reimann      : Effective Core Potentials                     
  Marius Retegan         : Local ZFS, SOC                                
  Christoph Riplinger    : Optimizer, TS searches, QM/MM, DLPNO-CCSD(T), (RO)-DLPNO pert. Triples 
  Michael Roemelt        : Original ROCIS implementation, recursive CI coupling coefficients
  Masaaki Saitow         : Open-shell DLPNO-CCSD energy and density      
  Barbara Sandhoefer     : DKH picture change effects                    
  Yorick L. A. Schmerwitz: GMF and freeze-and-release deltaSCF, NEB S-IDPP initial path                    
  Kantharuban Sivalingam : CASSCF convergence/infrastructure, NEVPT2, NEVPT3, NEVPT4(SD), FIC-MRCI and CEPA variants
  Bernardo de Souza      : ESD, SOC TD-DFT                               
  Georgi L. Stoychev     : AutoAux, RI-MP2 NMR, DLPNO-MP2 response, X2C  
  Van Anh Tran           : RI-MP2 g-tensors                              
  Willem Van den Heuvel  : Paramagnetic NMR                              
  Zikuan Wang            : NOTCH, Electric field optimization            
  Frank Wennmohs         : Technical directorship and infrastructure     
  Hang Xu                : AUTO-CI-Response properties                   
                                                                         
[FACCTs GmbH]                                                            
  Markus Bursch, Nicolas Foglia, Miquel Garcia-Rates, Ingolf Harden, Hagen Neugebauer, Anastasios Papadopoulos, 
  Christoph Riplinger, Bernardo de Souza, Georgi L. Stoychev                                                    
                                                                 
  APM, various basis sets, CI-OPT, improved COSX, DLPNO-Multilevel,           
  DOCKER, DRACO, updates on ESD, Fragmentator, GOAT, IRC, LR-CPCM, L-BFGS, MBIS, meta-GGA TD-DFT gradient, ML-optimized integration grids, 
  MM, NACMEs, nearIR, NEB, NEB-TS, NL-DFT gradient (VV10), 2- and 3-layer-ONIOM, interface openCOSMO-RS, QMMM,   
  Crystal-QMMM, RESP, rigid body optimization, SF, symmetry and pop. for TD-DFT, various functionals, SOLVATOR                                   
                                                                         
[Other institutions]                                                     
  V. Asgeirsson          : NEB                                           
  Christoph Bannwarth    : sTDA-DFT, sTD-DFT, PBEh-3c, B97-3c, D3        
  Giovanni Bistoni       : ETS/NOCV, ADLD/ADEX, COVALED                  
  Martin Brehm           : Molecular dynamics                            
  Ronald Cardenas        : ETS/NOCV                                      
  Martina Colucci        : COVALED                                       
  Sebastian Ehlert       : rSCAN, r2SCAN, r2SCAN-3c, D4, dhf basis sets  
  Marvin Friede          : D4 for Fr, Ra, Ac-Lr                          
  Lars Goerigk           : TD-DFT with DH, B97 family of functionals     
  Stefan Grimme          : VdW corrections, initial TS optimization, DFT functionals, gCP, sTDA/sTD-DF 
  Waldemar Hujo          : DFT-NL                                        
  H. Jonsson             : NEB                                           
  Holger Kruse           : gCP                                           
  Marcel Mueller         : wB97X-3c, vDZP basis set                      
  Hagen Neugebauer       : wr2SCAN, Native XTB                           
  Gianluca Regni         : ADLD/ADEX                                     
  Tobias Risthaus        : pre 6.0 range-separated hybrid DFT and stability analysis
  Lukas Wittmann         : regularized MP2, r2SCAN double-hybrids, wr2SCAN        
                                                                         
We gratefully acknowledge several colleagues who have allowed us to      
interface, adapt or use parts of their codes:                            
  Ed Valeev, F. Pavosevic, A. Kumar             : LibInt (2-el integral package), F12 methods 
  Garnet Chan, S. Sharma, J. Yang, R. Olivares  : DMRG                   
  Ulf Ekstrom                                   : XCFun DFT Library      
  Mihaly Kallay                                 : mrcc  (arbitrary order and MRCC methods)
  Frank Weinhold                                : gennbo (NPA and NBO analysis)           
  Simon Mueller                                 : openCOSMO-RS                            
  Christopher J. Cramer and Donald G. Truhlar   : smd solvation model                     
  S Lehtola, MJT Oliveira, MAL Marques          : LibXC Library                           
  Liviu Ungur et al                             : ANISO software                          


 Your calculation uses the libint2 library for the computation of 2-el integrals
 For citations please refer to: http://libint.valeyev.net

 Your ORCA version has been built with support for libXC version: 7.0.0
 For citations please refer to: https://libxc.gitlab.io

 This ORCA versions uses:
   CBLAS   interface :  Fast vector & matrix operations
   LAPACKE interface :  Fast linear algebra routines
   SCALAPACK package :  Parallel linear algebra routines
   Shared memory     :  Shared parallel matrices
   BLAS/LAPACK       :  OpenBLAS 0.3.29  USE64BITINT DYNAMIC_ARCH NO_AFFINITY Zen SINGLE_THREADED
        Core in use  :  Zen
   Copyright (c) 2011-2014, The OpenBLAS Project


  ***********************************
  * Starting time: Sun Apr  5 13:00:16 2026
  * Host name:     QC1
  * Process ID:    4848
  * Working dir.:  /home/user/QC/h-shift/split_2
  ***********************************

NOTE: MaxCore=1200 MB was set to SCF,MP2,MDCI,CIPSI,MRCI,RASCI and CIS
      => If you want to overwrite this, your respective input block should be placed after the MaxCore statement
================================================================================

----- Orbital basis set information -----
Your calculation utilizes the basis: 6-31G
   H-He, Li-Ne : W. J. Hehre, R. Ditchfield and J.A. Pople, J. Chem. Phys. 56, 2257 (1972).
                 Note: He and Ne are unpublished basis sets taken from the Gaussian program.
                 Note: Li and B from J. D. Dill and J. A. Pople, J. Chem. Phys. 62, 2921 (1975).
   Na - Ar     : M. M. Francl, W. J. Pietro, W. J. Hehre, J. S. Binkley, M. S. Gordon, 
                 D. J. DeFrees and J. A. Pople, J. Chem. Phys. 77, 3654 (1982).
   K - Zn      : V. A. Rassolov, J. A. Pople, M. A. Ratner, and T. L. Windus, J. Chem. Phys. 109, 1223 (1998).

================================================================================
                                        WARNINGS
                       Please study these warnings very carefully!
================================================================================


================================================================================
                                       INPUT FILE
================================================================================
NAME = h-shift_018.inp
|  1> ! HF 6-31G
|  2> %maxcore 1200
|  3> %pal nprocs 8 end
|  4> * xyz 0 1
|  5> C    0.00792000   0.01072600  -0.15894000
|  6> H    1.03505200   0.01379900  -0.50222800
|  7> C    2.56641800   0.01179700   1.51432200
|  8> C    2.03909500  -1.17587700   1.79953800
|  9> C    0.63966300  -1.60643800   1.66161800
| 10> C   -0.23745600  -1.13899200   0.77435800
| 11> H   -0.64275900  -0.01640200  -1.02130100
| 12> H   -0.15861100   0.95667900   0.34986300
| 13> H    1.97963400   0.86615800   1.24713500
| 14> H    3.62790200   0.16323200   1.53474600
| 15> H    2.70826900  -1.95469100   2.12274300
| 16> H    0.34605200  -2.43794000   2.27975000
| 17> H   -1.19540400  -1.62409700   0.69878600
| 18> *
| 19> 
| 20>                          ****END OF INPUT****
================================================================================

                       ****************************
                       * Single Point Calculation *
                       ****************************

---------------------------------
CARTESIAN COORDINATES (ANGSTROEM)
---------------------------------
  C      0.007920    0.010726   -0.158940
  H      1.035052    0.013799   -0.502228
  C      2.566418    0.011797    1.514322
  C      2.039095   -1.175877    1.799538
  C      0.639663   -1.606438    1.661618
  C     -0.237456   -1.138992    0.774358
  H     -0.642759   -0.016402   -1.021301
  H     -0.158611    0.956679    0.349863
  H      1.979634    0.866158    1.247135
  H      3.627902    0.163232    1.534746
  H      2.708269   -1.954691    2.122743
  H      0.346052   -2.437940    2.279750
  H     -1.195404   -1.624097    0.698786

----------------------------
CARTESIAN COORDINATES (A.U.)
----------------------------
  NO LB      ZA    FRAG     MASS         X           Y           Z
   0 C     6.0000    0    12.011    0.014967    0.020269   -0.300353
   1 H     1.0000    0     1.008    1.955965    0.026076   -0.949073
   2 C     6.0000    0    12.011    4.849827    0.022293    2.861654
   3 C     6.0000    0    12.011    3.853331   -2.222085    3.400634
   4 C     6.0000    0    12.011    1.208788   -3.035728    3.140003
   5 C     6.0000    0    12.011   -0.448727   -2.152383    1.463325
   6 H     1.0000    0     1.008   -1.214638   -0.030995   -1.929979
   7 H     1.0000    0     1.008   -0.299731    1.807861    0.661145
   8 H     1.0000    0     1.008    3.740966    1.636801    2.356744
   9 H     1.0000    0     1.008    6.855741    0.308464    2.900250
  10 H     1.0000    0     1.008    5.117887   -3.693831    4.011403
  11 H     1.0000    0     1.008    0.653944   -4.607039    4.308103
  12 H     1.0000    0     1.008   -2.258986   -3.069099    1.320514

--------------------------------
INTERNAL COORDINATES (ANGSTROEM)
--------------------------------
 C      0   0   0     0.000000000000     0.00000000     0.00000000
 H      1   0   0     1.082984875101     0.00000000     0.00000000
 C      2   1   0     2.532105790930   108.73212354     0.00000000
 C      3   2   1     1.330408675280    86.08518655    63.30289568
 C      4   3   2     1.470651088377   128.20090763   320.81838906
 C      5   4   3     1.332318959813   125.88740827    28.86833496
 H      1   2   3     1.080641283565   108.55323394   181.56574644
 H      1   2   3     1.086940727445   106.93108872    65.68970973
 H      3   2   1     1.070344371661    57.92800532   289.51156688
 H      3   2   1     1.072426212500   127.85493040   190.15108104
 H      4   3   2     1.076478778656   117.63508289   137.08490970
 H      5   4   3     1.076889114417   115.57359999   202.80183174
 H      6   5   4     1.076430378108   118.32782131   172.59276423

---------------------------
INTERNAL COORDINATES (A.U.)
---------------------------
 C      0   0   0     0.000000000000     0.00000000     0.00000000
 H      1   0   0     2.046544821119     0.00000000     0.00000000
 C      2   1   0     4.784986486973   108.73212354     0.00000000
 C      3   2   1     2.514108042473    86.08518655    63.30289568
 C      4   3   2     2.779127795586   128.20090763   320.81838906
 C      5   4   3     2.517717957077   125.88740827    28.86833496
 H      1   2   3     2.042116074948   108.55323394   181.56574644
 H      1   2   3     2.054020298676   106.93108872    65.68970973
 H      3   2   1     2.022657731423    57.92800532   289.51156688
 H      3   2   1     2.026591840463   127.85493040   190.15108104
 H      4   3   2     2.034250080638   117.63508289   137.08490970
 H      5   4   3     2.035025502848   115.57359999   202.80183174
 H      6   5   4     2.034158616857   118.32782131   172.59276423

---------------------
BASIS SET INFORMATION
---------------------
There are 2 groups of distinct atoms

 Group   1 Type C   : 10s4p contracted to 3s2p pattern {631/31}
 Group   2 Type H   : 4s contracted to 2s pattern {31}

Atom   0C    basis set group =>   1
Atom   1H    basis set group =>   2
Atom   2C    basis set group =>   1
Atom   3C    basis set group =>   1
Atom   4C    basis set group =>   1
Atom   5C    basis set group =>   1
Atom   6H    basis set group =>   2
Atom   7H    basis set group =>   2
Atom   8H    basis set group =>   2
Atom   9H    basis set group =>   2
Atom  10H    basis set group =>   2
Atom  11H    basis set group =>   2
Atom  12H    basis set group =>   2


           ************************************************************
           *        Program running with 8 parallel MPI-processes     *
           *              working on a common directory               *
           ************************************************************
------------------------------------------------------------------------------
                             ORCA STARTUP CALCULATIONS
------------------------------------------------------------------------------
------------------------------------------------------------------------------
                   ___                                                        
                  /   \      - P O W E R E D   B Y -                         
                 /     \                                                     
                 |  |  |   _    _      __       _____    __    __             
                 |  |  |  | |  | |    /  \     |  _  \  |  |  /  |          
                  \  \/   | |  | |   /    \    | | | |  |  | /  /          
                 / \  \   | |__| |  /  /\  \   | |_| |  |  |/  /          
                |  |  |   |  __  | /  /__\  \  |    /   |      \           
                |  |  |   | |  | | |   __   |  |    \   |  |\   \          
                \     /   | |  | | |  |  |  |  | |\  \  |  | \   \       
                 \___/    |_|  |_| |__|  |__|  |_| \__\ |__|  \__/        
                                                                              
                      - O R C A' S   B I G   F R I E N D -                    
                                      &                                       
                       - I N T E G R A L  F E E D E R -                       
                                                                              
 v1 FN, 2020, v2 2021, v3 2022-2024                                           
------------------------------------------------------------------------------


----------------------
SHARK INTEGRAL PACKAGE
----------------------

Number of atoms                             ...     13
Number of basis functions                   ...     61
Number of shells                            ...     41
Maximum angular momentum                    ...      1
Integral batch strategy                     ... SHARK/LIBINT Hybrid
RI-J (if used) integral strategy            ... SPLIT-RIJ (Revised 2003 algorithm where possible)
Printlevel                                  ...      1
Contraction scheme used                     ... SEGMENTED contraction
Prescreening option                         ... SCHWARTZ
   Thresh                                   ... 1.000e-10
   Tcut                                     ... 1.000e-11
   Tpresel                                  ... 1.000e-11 
Coulomb Range Separation                    ... NOT USED
Exchange Range Separation                   ... NOT USED
Multipole approximations                    ... NOT USED
Finite Nucleus Model                        ... NOT USED
CABS basis                                  ... NOT available
Auxiliary Coulomb fitting basis             ... NOT available
Auxiliary J/K fitting basis                 ... NOT available
Auxiliary Correlation fitting basis         ... NOT available
Auxiliary 'external' fitting basis          ... NOT available

Checking pre-screening integrals            ... done (  0.0 sec) Dimension = 41
   => SHARK Basis and OBASIS are compatible. Storing Pre-screening
Shell pair information
Shell pair cut-off parameter TPreSel        ...   1.0e-11
Total number of shell pairs                 ...       861
Shell pairs after pre-screening             ...       846
Total number of primitive shell pairs       ...      5382
Primitive shell pairs kept                  ...      3733
          la=0 lb=0:    481 shell pairs
          la=1 lb=0:    310 shell pairs
          la=1 lb=1:     55 shell pairs

Checking whether 4 symmetric matrices of dimension 61 fit in memory
:Max Core in MB      =   1200.00
 MB in use           =      2.04
 MB left             =   1197.96
 MB needed           =      0.06
 Data fit in memory  = YES
Calculating Nuclear repulsion               ... done (  0.0 sec) ENN=    160.844400944505 Eh

Diagonalization of the overlap matrix:
Smallest eigenvalue                        ... 3.363e-03
Time for diagonalization                   ...    0.001 sec
Threshold for overlap eigenvalues          ... 1.000e-07
Number of eigenvalues below threshold      ... 0
Time for construction of square roots      ...    0.000 sec
Total time needed                          ...    0.001 sec

-------------------
DFT GRID GENERATION
-------------------

General Integration Accuracy     IntAcc      ... 4.388
Radial Grid Type                 RadialGrid  ... OptM3 with GC (2021)
Angular Grid (max. ang.)         AngularGrid ... 4 (Lebedev-302)
Angular grid pruning method      GridPruning ... 4 (adaptive)
Weight generation scheme         WeightScheme... mBecke (2022)
Basis function cutoff            BFCut       ... 1.0000e-10
Integration weight cutoff        WCut        ... 1.0000e-14
Partially contracted basis set               ... off
Rotationally invariant grid construction     ... off
Angular grids for H and He will be reduced by one unit

Total number of grid points                  ...    56052
Total number of batches                      ...      883
Average number of points per batch           ...       63
Average number of grid points per atom       ...     4312
Grids setup in   0.2 sec
Initializing property integral containers    ... done (  0.0 sec)

SHARK setup successfully completed in   0.2 seconds

Maximum memory used throughout the entire STARTUP-calculation: 11.8 MB


           ************************************************************
           *        Program running with 8 parallel MPI-processes     *
           *              working on a common directory               *
           ************************************************************
-------------------------------------------------------------------------------
                                 ORCA GUESS
                   Start orbitals & Density for SCF / CASSCF
-------------------------------------------------------------------------------

------------
SCF SETTINGS
------------
Hamiltonian:
 Ab initio Hamiltonian  Method          .... Hartree-Fock(GTOs)


General Settings:
 Integral files         IntName         .... h-shift_018
 Hartree-Fock type      HFTyp           .... RHF
 Total Charge           Charge          ....    0
 Multiplicity           Mult            ....    1
 Number of Electrons    NEL             ....   38
 Basis Dimension        Dim             ....   61
 Nuclear Repulsion      ENuc            ....    160.8444009445 Eh

Convergence Acceleration:
 AO-DIIS                CNVDIIS         .... on
   Start iteration      DIISMaxIt       ....    12
   Startup error        DIISStart       ....  0.200000
   # of expansion vecs  DIISMaxEq       ....     5
   Bias factor          DIISBfac        ....   1.050
   Max. coefficient     DIISMaxC        ....  10.000
 MO-DIIS                CNVKDIIS        .... off
 Trust-Rad. Augm. Hess. CNVTRAH         .... auto
   Auto Start mean grad. ratio tolernc. ....  1.125000
   Auto Start start iteration           ....    50
   Auto Start num. interpolation iter.  ....    10
   Max. Number of Micro iterations      ....    24
   Max. Number of Macro iterations      .... Maxiter - #DIIS iter
   Number of Davidson start vectors     ....     2
   Converg. threshold    (grad. norm)   ....   5.000e-05
   Grad. Scal. Fac. for Micro threshold ....   0.100
   Minimum threshold for Micro iter.    ....   1.000e-02
   NR start threshold (gradient norm)   ....   1.000e-04
   Initial trust radius                 ....   0.400
   Minimum AH scaling param. (alpha)    ....   1.000
   Maximum AH scaling param. (alpha)    .... 1000.000
   Quad. conv. algorithm                .... NR
   White noise on init. David. guess    .... on
   Maximum white noise                  ....   0.010
   Pseudo random numbers                .... off
   Inactive MOs                         .... canonical
   Orbital update algorithm             .... Taylor
   Preconditioner                       .... Diag
   Full preconditioner red. dimension   ....   250
 SOSCF                 CNVSOSCF           .... on
   Start iteration     SOSCFMaxIt         ....   150
   Startup grad/error  SOSCFStart         ....  0.003300
   Hessian update      SOSCFHessUp        .... L-BFGS
   Autom. constraints  SOSCFAutoConstrain .... off
 Level Shifting         CNVShift        .... on
   Level shift para.    LevelShift      ....    0.2500
   Turn off err/grad.   ShiftErr        ....    0.0010
 Zerner damping         CNVZerner       .... off
 Static damping         CNVDamp         .... on
   Fraction old density DampFac         ....    0.7000
   Max. Damping (<1)    DampMax         ....    0.9800
   Min. Damping (>=0)   DampMin         ....    0.0000
   Turn off err/grad.   DampErr         ....    0.1000

SCF Procedure:
 Maximum # iterations   MaxIter         ....   125
 SCF integral mode      SCFMode         .... Direct
   Integral package                     .... SHARK and LIBINT hybrid scheme
 Reset frequency        DirectResetFreq ....    20
 Integral Threshold     Thresh          ....  1.000e-10 Eh
 Primitive CutOff       TCut            ....  1.000e-11 Eh

Convergence Tolerance:
 Convergence Check Mode ConvCheckMode   .... Total+1el-Energy
 Convergence forced     ConvForced      .... 0
 Energy Change          TolE            ....  1.000e-06 Eh
 1-El. energy change                    ....  1.000e-03 Eh
 Orbital Gradient       TolG            ....  5.000e-05
 Orbital Rotation angle TolX            ....  5.000e-05
 DIIS Error             TolErr          ....  1.000e-06

------------------------------
INITIAL GUESS: MODEL POTENTIAL
------------------------------
Loading Hartree-Fock densities                     ... done
Calculating cut-offs                               ... done
Initializing the effective Hamiltonian             ... done
Setting up the integral package (SHARK)            ... done
Starting the Coulomb interaction                   ... done (   0.0 sec)
Making the grid                                    ... done (   0.1 sec)
Mapping shells                                     ... done
Starting the XC term evaluation                    ... done (   0.0 sec)
Transforming the Hamiltonian                       ... done (   0.0 sec)
Diagonalizing the Hamiltonian                      ... done (   0.0 sec)
Back transforming the eigenvectors                 ... done (   0.0 sec)
Now organizing SCF variables                       ... done
                      ------------------
                      INITIAL GUESS DONE (   0.1 sec)
                      ------------------
             **** ENERGY FILE WAS UPDATED (h-shift_018.en.tmp) ****
Finished Guess after   0.3 sec
Maximum memory used throughout the entire GUESS-calculation: 4.2 MB


           ************************************************************
           *        Program running with 8 parallel MPI-processes     *
           *              working on a common directory               *
           ************************************************************

-------------------------------------------------------------------------------------------
                                      ORCA LEAN-SCF
                              memory conserving SCF solver
-------------------------------------------------------------------------------------------

----------------------------------------D-I-I-S--------------------------------------------
Iteration    Energy (Eh)           Delta-E    RMSDP     MaxDP     DIISErr   Damp  Time(sec)
-------------------------------------------------------------------------------------------
               ***  Starting incremental Fock matrix formation  ***
    1    -193.6455144068068535     0.00e+00  1.57e-02  5.34e-02  1.89e-01  0.700   0.0
    2    -193.7264768654847558    -8.10e-02  1.25e-02  4.05e-02  1.23e-01  0.700   0.0
                               ***Turning on AO-DIIS***
    3    -193.7765353605738028    -5.01e-02  7.70e-03  2.03e-02  7.37e-02  0.700   0.0
    4    -193.8081691306173866    -3.16e-02  1.83e-02  4.32e-02  4.98e-02  0.000   0.0
                              *** Initializing SOSCF ***
---------------------------------------S-O-S-C-F--------------------------------------
Iteration    Energy (Eh)           Delta-E    RMSDP     MaxDP     MaxGrad    Time(sec)
--------------------------------------------------------------------------------------
    5    -193.8766060797171349    -6.84e-02  1.70e-03  2.79e-03  2.78e-03     0.0
               *** Restarting incremental Fock matrix formation ***
    6    -193.8767274065741049    -1.21e-04  8.71e-04  1.83e-03  1.35e-03     0.0
    7    -193.8767630721779938    -3.57e-05  5.43e-04  1.19e-03  5.54e-04     0.0
    8    -193.8767699558590039    -6.88e-06  7.12e-05  1.79e-04  1.34e-04     0.0
    9    -193.8767701717596879    -2.16e-07  3.21e-05  7.80e-05  3.19e-05     0.0
                 **** Energy Check signals convergence ****

               *****************************************************
               *                     SUCCESS                       *
               *           SCF CONVERGED AFTER   9 CYCLES          *
               *****************************************************

             **** ENERGY FILE WAS UPDATED (h-shift_018.en.tmp) ****

----------------
TOTAL SCF ENERGY
----------------

Total Energy       :       -193.87677022831969 Eh           -5275.65513 eV

Components:
Nuclear Repulsion  :        160.84440094450468 Eh            4376.79866 eV
Electronic Energy  :       -354.72117117282437 Eh           -9652.45379 eV
One Electron Energy:       -578.64757327164614 Eh          -15745.80097 eV
Two Electron Energy:        223.92640209882177 Eh            6093.34718 eV

Virial components:
Potential Energy   :       -388.04597405505018 Eh          -10559.26778 eV
Kinetic Energy     :        194.16920382673050 Eh            5283.61265 eV
Virial Ratio       :          1.99849392389397

---------------
SCF CONVERGENCE
---------------

  Last Energy change         ...    2.1590e-07  Tolerance :   1.0000e-06
  Last MAX-Density change    ...    7.8027e-05  Tolerance :   1.0000e-05
  Last RMS-Density change    ...    3.2106e-05  Tolerance :   1.0000e-06
  Last DIIS Error            ...    2.7805e-03  Tolerance :   1.0000e-06
  Last Orbital Gradient      ...    3.1875e-05  Tolerance :   5.0000e-05
  Last Orbital Rotation      ...    3.1781e-05  Tolerance :   5.0000e-05


----------------
ORBITAL ENERGIES
----------------

  NO   OCC          E(Eh)            E(eV) 
   0   2.0000     -11.236043      -305.7483 
   1   2.0000     -11.235592      -305.7360 
   2   2.0000     -11.227454      -305.5146 
   3   2.0000     -11.221396      -305.3497 
   4   2.0000     -11.215066      -305.1775 
   5   2.0000      -1.100587       -29.9485 
   6   2.0000      -1.021016       -27.7833 
   7   2.0000      -0.941248       -25.6126 
   8   2.0000      -0.813836       -22.1456 
   9   2.0000      -0.717500       -19.5242 
  10   2.0000      -0.667423       -18.1615 
  11   2.0000      -0.603240       -16.4150 
  12   2.0000      -0.584754       -15.9120 
  13   2.0000      -0.567503       -15.4426 
  14   2.0000      -0.541755       -14.7419 
  15   2.0000      -0.507042       -13.7973 
  16   2.0000      -0.468876       -12.7588 
  17   2.0000      -0.411525       -11.1982 
  18   2.0000      -0.315528        -8.5860 
  19   0.0000       0.132741         3.6121 
  20   0.0000       0.232182         6.3180 
  21   0.0000       0.252897         6.8817 
  22   0.0000       0.265864         7.2345 
  23   0.0000       0.291701         7.9376 
  24   0.0000       0.320704         8.7268 
  25   0.0000       0.336884         9.1671 
  26   0.0000       0.347604         9.4588 
  27   0.0000       0.359555         9.7840 
  28   0.0000       0.367751        10.0070 
  29   0.0000       0.429579        11.6894 
*Only the first 10 virtual orbitals were printed.

                    ********************************
                    * MULLIKEN POPULATION ANALYSIS *
                    ********************************

-----------------------
MULLIKEN ATOMIC CHARGES
-----------------------
   0 C :   -0.509953
   1 H :    0.181946
   2 C :   -0.362882
   3 C :   -0.151799
   4 C :   -0.196571
   5 C :   -0.148012
   6 H :    0.159287
   7 H :    0.171020
   8 H :    0.172024
   9 H :    0.161789
  10 H :    0.173170
  11 H :    0.175150
  12 H :    0.174830
Sum of atomic charges:    0.0000000

--------------------------------
MULLIKEN REDUCED ORBITAL CHARGES
--------------------------------
  0 C s       :     3.366678  s :     3.366678
      pz      :     1.035070  p :     3.143275
      px      :     1.111667
      py      :     0.996538

  1 H s       :     0.818054  s :     0.818054

  2 C s       :     3.266479  s :     3.266479
      pz      :     1.017860  p :     3.096403
      px      :     1.082324
      py      :     0.996218

  3 C s       :     3.194728  s :     3.194728
      pz      :     0.997820  p :     2.957071
      px      :     0.964095
      py      :     0.995156

  4 C s       :     3.193639  s :     3.193639
      pz      :     1.015669  p :     3.002931
      px      :     0.923063
      py      :     1.064200

  5 C s       :     3.210634  s :     3.210634
      pz      :     0.941083  p :     2.937378
      px      :     1.035648
      py      :     0.960647

  6 H s       :     0.840713  s :     0.840713

  7 H s       :     0.828980  s :     0.828980

  8 H s       :     0.827976  s :     0.827976

  9 H s       :     0.838211  s :     0.838211

 10 H s       :     0.826830  s :     0.826830

 11 H s       :     0.824850  s :     0.824850

 12 H s       :     0.825170  s :     0.825170



                     *******************************
                     * LOEWDIN POPULATION ANALYSIS *
                     *******************************

----------------------
LOEWDIN ATOMIC CHARGES
----------------------
   0 C :   -0.319515
   1 H :    0.124895
   2 C :   -0.247033
   3 C :   -0.113881
   4 C :   -0.149839
   5 C :   -0.107012
   6 H :    0.110864
   7 H :    0.117255
   8 H :    0.117620
   9 H :    0.116141
  10 H :    0.116566
  11 H :    0.117289
  12 H :    0.116651

-------------------------------
LOEWDIN REDUCED ORBITAL CHARGES
-------------------------------
  0 C s       :     2.976164  s :     2.976164
      pz      :     1.106328  p :     3.343351
      px      :     1.144587
      py      :     1.092436

  1 H s       :     0.875105  s :     0.875105

  2 C s       :     2.988329  s :     2.988329
      pz      :     1.036484  p :     3.258703
      px      :     1.115338
      py      :     1.106882

  3 C s       :     2.944961  s :     2.944961
      pz      :     0.987925  p :     3.168920
      px      :     1.071674
      py      :     1.109321

  4 C s       :     2.940612  s :     2.940612
      pz      :     1.074769  p :     3.209227
      px      :     1.063776
      py      :     1.070682

  5 C s       :     2.951718  s :     2.951718
      pz      :     1.032226  p :     3.155295
      px      :     1.090014
      py      :     1.033054

  6 H s       :     0.889136  s :     0.889136

  7 H s       :     0.882745  s :     0.882745

  8 H s       :     0.882380  s :     0.882380

  9 H s       :     0.883859  s :     0.883859

 10 H s       :     0.883434  s :     0.883434

 11 H s       :     0.882711  s :     0.882711

 12 H s       :     0.883349  s :     0.883349



                      *****************************
                      * MAYER POPULATION ANALYSIS *
                      *****************************

  NA   - Mulliken gross atomic population
  ZA   - Total nuclear charge
  QA   - Mulliken gross atomic charge
  VA   - Mayer's total valence
  BVA  - Mayer's bonded valence
  FA   - Mayer's free valence

  ATOM       NA         ZA         QA         VA         BVA        FA
  0 C      6.5100     6.0000    -0.5100     3.7715     3.7715     0.0000
  1 H      0.8181     1.0000     0.1819     0.9304     0.9304     0.0000
  2 C      6.3629     6.0000    -0.3629     3.8452     3.8452     0.0000
  3 C      6.1518     6.0000    -0.1518     3.8087     3.8087     0.0000
  4 C      6.1966     6.0000    -0.1966     3.8236     3.8236    -0.0000
  5 C      6.1480     6.0000    -0.1480     3.7663     3.7663     0.0000
  6 H      0.8407     1.0000     0.1593     0.9326     0.9326    -0.0000
  7 H      0.8290     1.0000     0.1710     0.9221     0.9221     0.0000
  8 H      0.8280     1.0000     0.1720     0.9388     0.9388     0.0000
  9 H      0.8382     1.0000     0.1618     0.9439     0.9439     0.0000
 10 H      0.8268     1.0000     0.1732     0.9372     0.9372     0.0000
 11 H      0.8248     1.0000     0.1752     0.9387     0.9387    -0.0000
 12 H      0.8252     1.0000     0.1748     0.9386     0.9386     0.0000

  Mayer bond orders larger than 0.100000
B(  0-C ,  1-H ) :   0.9426 B(  0-C ,  5-C ) :   0.9591 B(  0-C ,  6-H ) :   0.9598 
B(  0-C ,  7-H ) :   0.9452 B(  2-C ,  3-C ) :   1.8789 B(  2-C ,  8-H ) :   0.9614 
B(  2-C ,  9-H ) :   0.9628 B(  3-C ,  4-C ) :   1.0467 B(  3-C , 10-H ) :   0.9578 
B(  4-C ,  5-C ) :   1.8809 B(  4-C , 11-H ) :   0.9566 B(  5-C , 12-H ) :   0.9576 


-------
TIMINGS
-------

Total SCF time: 0 days 0 hours 0 min 0 sec 

Total time                  ....       0.626 sec
Sum of individual times     ....       0.584 sec  ( 93.2%)

SCF preparation             ....       0.264 sec  ( 42.2%)
Fock matrix formation       ....       0.265 sec  ( 42.3%)
  Startup                   ....       0.001 sec  (  0.5% of F)
  Coulomb+Exchange Fock     ....       0.283 sec  (106.9% of F)
Diagonalization             ....       0.000 sec  (  0.0%)
Density matrix formation    ....       0.008 sec  (  1.2%)
Total Energy calculation    ....       0.005 sec  (  0.7%)
Population analysis         ....       0.005 sec  (  0.7%)
Orbital Transformation      ....       0.005 sec  (  0.7%)
Orbital Orthonormalization  ....       0.000 sec  (  0.0%)
DIIS solution               ....       0.020 sec  (  3.2%)
SOSCF solution              ....       0.013 sec  (  2.1%)
Finished LeanSCF after   0.6 sec

Maximum memory used throughout the entire LEANSCF-calculation: 6.4 MB

-------------------------   --------------------
FINAL SINGLE POINT ENERGY      -193.876770228320
-------------------------   --------------------



           ************************************************************
           *        Program running with 8 parallel MPI-processes     *
           *              working on a common directory               *
           ************************************************************

------------------------------------------------------------------------------
                              ORCA PROPERTY CALCULATIONS
------------------------------------------------------------------------------

GBWName                                 ... h-shift_018.gbw
Number of atoms                         ...     13
Number of basis functions               ...     61
Max core memory                         ...   1200 MB

Electric properties:
Dipole moment                           ... YES
Quadrupole moment                       ...  NO
Static polarizability (Dipole/Dipole)   ...  NO
Static polarizability (Dipole/Quad.)    ...  NO
Static polarizability (Quad./Quad.)     ...  NO
Static polarizability (Velocity)        ...  NO
Static hyperpolarizability              ...  NO

Atomic electric properties:
Dipole moment                           ...  NO
Quadrupole moment                       ...  NO
Static polarizability                   ...  NO

Choice of electric origin               ... Center of mass
Position of electric origin             ...     1.886552    -1.411873     2.050528

General magnetic properties:
Magnetizability                         ...  NO

EPR properties:
g-Tensor (aka g-matrix)                 ...  NO
Zero-Field splitting spin-orbit         ...  NO
Zero-field splitting spin-spin          ...  NO
Hyperfine couplings                     ...  NO (   0 nuclei)
Quadrupole couplings                    ...  NO (   0 nuclei)
Contact density                         ...  NO (   0 nuclei)

NMR properties:
Chemical shifts                         ...  NO (   0 nuclei)
Spin-rotation constants                 ...  NO (   0 nuclei)
Spin-spin couplings                     ...  NO (   0 nuclei,    0 pairs)

Choice of magnetic origin               ... GIAO
Position of magnetic origin             ...     0.000000     0.000000     0.000000

Properties with geometric perturbations:
SCF Hessian                             ...  NO
IR spectrum                             ...  NO
VCD spectrum                            ...  NO
X-ray spectroscopy properties:
SCF XES/XAS/RIXS spectra                ...  NO

SCF SOC stabilization energy            ...  NO
Diagonal Born-Oppenheimer correction    ...  NO

-------------
DIPOLE MOMENT
-------------

Method             : SCF
Type of density    : Electron Density
Multiplicity       :   1
Irrep              :   0
Energy             :  -193.8767702283196854 Eh
Basis              : AO
                                X                 Y                 Z
Electronic contribution:      0.213426826      -1.814382973       1.733104613
Nuclear contribution   :     -0.268720270       1.823614859      -1.849377147
                        -----------------------------------------
Total Dipole Moment    :     -0.055293444       0.009231886      -0.116272534
                        -----------------------------------------
Magnitude (a.u.)       :      0.129080962
Magnitude (Debye)      :      0.328097732



--------------------
Rotational spectrum 
--------------------
 
Rotational constants in cm-1:             0.285873             0.140048             0.097225 
Rotational constants in MHz :          8570.248351          4198.522837          2914.721667 

Dipole components along the rotational axes: 
x,y,z [a.u.] :     0.104984     0.048540    -0.057306 
x,y,z [Debye]:     0.266849     0.123380    -0.145661 

 

Dipole moment calculation done in   0.0 sec 

Maximum memory used throughout the entire PROP-calculation: 2.2 MB

--------------------------------
SUGGESTED CITATIONS FOR THIS RUN
--------------------------------

Below you find a list of papers that are relevant to this ORCA run
We neither can nor want to force you to cite these papers, but we appreciate if you do
You receive ORCA, which is the product of decades of hard work by many enthusiastic individuals, for free
The only thing we kindly ask in return is that you cite our papers,
We deeply appreciate it, if you show your appreciation for ORCA by not just citing the generic ORCA reference.

Please note that relegating all ORCA citations to the supporting information does *not* help us.
SI sections are not indexed - citations you put there will not count into any citation statistics
But we need these citations in order to attract the funding resources that allow us to do what we are doing

Therefore, if you are a happy ORCA user, please consider citing a few of the papers listed below in the main body of your paper

In addition to the list printed below, the program has created the file h-shift_018.bibtex that contains the list in bibtex format
You can import this file easily into all common literature databanks and citation aid programs


List of essential papers. We consider these as the minimum necessary citations

  1. Neese, F.
     Software update: the ORCA program system, version 6.0
     WIRES Comput. Molec. Sci. 2025 15(1), e70019
     doi.org/10.1002/wcms.7019

List of papers to cite with high priority. The work reported in these papers was absolutely
necessary for this run to complete.
Our perspective: the developers of density functionals and basis sets usually get cited in chemistry papers
Good! But without the algorithms to do something with them, the functionals or basis sets would not do anything.
Hence, in our opinion, the algorithm design and method developments papers are equally worthy of getting cited

  1. Neese, F.
     The SHARK Integral Generation and Digestion System
     J. Comp. Chem. 2022 44(3), 381
     doi.org/10.1002/jcc.26942

List of suggested additional citations. These are papers that are important in the 'surrounding' of 
of this run, or papers that preceded the highly important papers. If you like your results we are grateful for a citation.

  1. Neese, F.
     The ORCA program system
     WIRES Comput. Molec. Sci. 2012 2(1), 73-78
     doi.org/10.1002/wcms.81
  2. Neese, F.
     Software update: the ORCA program system, version 4.0
     WIRES Comput. Molec. Sci. 2018 8(1), 1-6
     doi.org/10.1002/wcms.1327
  3. Neese, F.; Wennmohs, F.; Becker, U.; Riplinger, C.
     The ORCA quantum chemistry program package
     J. Chem. Phys. 2020 152(22), 224108
     doi.org/10.1063/5.0004608
  4. Neese, F.
     Software update: The ORCA program system—Version 5.0
     WIRES Comput. Molec. Sci. 2022 12(1), e1606
     doi.org/10.1002/wcms.1606

List of optional additional citations

  1. Neese, F.
     Approximate second-order SCF convergence for spin unrestricted wavefunctions
     Chem. Phys. Lett. 2000 325(1-3), 93-98
     doi.org/10.1016/s0009-2614(00)00662-x

Timings for individual modules:

Sum of individual times          ...        2.199 sec (=   0.037 min)
Startup calculation              ...        0.613 sec (=   0.010 min)  27.9 %
SCF iterations                   ...        1.189 sec (=   0.020 min)  54.1 %
Property calculations            ...        0.397 sec (=   0.007 min)  18.1 %
                             ****ORCA TERMINATED NORMALLY****
TOTAL RUN TIME: 0 days 0 hours 0 minutes 2 seconds 625 msec
