Generated by Psi4
        SP                           RHF                       CC-PVDZ
Number of atoms                            I               11
Charge                                     I                0
Multiplicity                               I                1
Number of electrons                        I               38
Number of alpha electrons                  I               19
Number of beta electrons                   I               19
Number of basis functions                  I              100
Number of independent functions            I              100
Atomic numbers                             I   N=          11
           6           6           6           6           8           1
           1           1           1           1           1
Nuclear charges                            R   N=          11
  6.00000000e+00  6.00000000e+00  6.00000000e+00  6.00000000e+00  8.00000000e+00
  1.00000000e+00  1.00000000e+00  1.00000000e+00  1.00000000e+00  1.00000000e+00
  1.00000000e+00
Current cartesian coordinates              R   N=          33
  1.64135766e+00  3.01388661e+00  3.02105438e-01 -7.92069013e-01  2.41637003e+00
 -1.76089721e-01 -2.04132045e+00 -4.66272915e-03  2.74562982e-01 -8.86542753e-01
 -2.27939716e+00  1.14770745e-01  1.57973857e+00 -2.69769905e+00 -3.97560747e-01
  2.35785222e+00 -1.07019217e+00 -7.72833710e-01  2.41001189e+00  4.84742623e+00
 -2.45618565e-01  2.90313152e+00  1.76921181e+00  1.36901138e+00 -1.93174725e+00
 -4.05181485e+00  3.08665773e-01 -4.08120754e+00 -9.07671364e-03  5.74953790e-01
 -1.98040717e+00  3.86766164e+00 -1.06077865e+00
Integer atomic weights                     I   N=          11
          12          12          12          12          16           1
           1           1           1           1           1
Real atomic weights                        R   N=          11
  1.20000000e+01  1.20000000e+01  1.20000000e+01  1.20000000e+01  1.59949146e+01
  1.00782503e+00  1.00782503e+00  1.00782503e+00  1.00782503e+00  1.00782503e+00
  1.00782503e+00
Number of primitive shells                 I              140
Number of contracted shells                I               48
Pure/Cartesian d shells                    I                0
Pure/Cartesian f shells                    I                0
Highest angular momentum                   I                2
Largest degree of contraction              I                8
Shell types                                I   N=          48
           0           0           0           1           1          -2
           0           0           0           1           1          -2
           0           0           0           1           1          -2
           0           0           0           1           1          -2
           0           0           0           1           1          -2
           0           0           1           0           0           1
           0           0           1           0           0           1
           0           0           1           0           0           1
Number of primitives per shell             I   N=          48
           8           8           1           3           1           1
           8           8           1           3           1           1
           8           8           1           3           1           1
           8           8           1           3           1           1
           8           8           1           3           1           1
           3           1           1           3           1           1
           3           1           1           3           1           1
           3           1           1           3           1           1
Shell to atom map                          I   N=          48
           1           1           1           1           1           1
           2           2           2           2           2           2
           3           3           3           3           3           3
           4           4           4           4           4           4
           5           5           5           5           5           5
           6           6           6           7           7           7
           8           8           8           9           9           9
          10          10          10          11          11          11
Primitive exponents                        R   N=         140
  6.66500000e+03  1.00000000e+03  2.28000000e+02  6.47100000e+01  2.10600000e+01
  7.49500000e+00  2.79700000e+00  5.21500000e-01  6.66500000e+03  1.00000000e+03
  2.28000000e+02  6.47100000e+01  2.10600000e+01  7.49500000e+00  2.79700000e+00
  5.21500000e-01  1.59600000e-01  9.43900000e+00  2.00200000e+00  5.45600000e-01
  1.51700000e-01  5.50000000e-01  6.66500000e+03  1.00000000e+03  2.28000000e+02
  6.47100000e+01  2.10600000e+01  7.49500000e+00  2.79700000e+00  5.21500000e-01
  6.66500000e+03  1.00000000e+03  2.28000000e+02  6.47100000e+01  2.10600000e+01
  7.49500000e+00  2.79700000e+00  5.21500000e-01  1.59600000e-01  9.43900000e+00
  2.00200000e+00  5.45600000e-01  1.51700000e-01  5.50000000e-01  6.66500000e+03
  1.00000000e+03  2.28000000e+02  6.47100000e+01  2.10600000e+01  7.49500000e+00
  2.79700000e+00  5.21500000e-01  6.66500000e+03  1.00000000e+03  2.28000000e+02
  6.47100000e+01  2.10600000e+01  7.49500000e+00  2.79700000e+00  5.21500000e-01
  1.59600000e-01  9.43900000e+00  2.00200000e+00  5.45600000e-01  1.51700000e-01
  5.50000000e-01  6.66500000e+03  1.00000000e+03  2.28000000e+02  6.47100000e+01
  2.10600000e+01  7.49500000e+00  2.79700000e+00  5.21500000e-01  6.66500000e+03
  1.00000000e+03  2.28000000e+02  6.47100000e+01  2.10600000e+01  7.49500000e+00
  2.79700000e+00  5.21500000e-01  1.59600000e-01  9.43900000e+00  2.00200000e+00
  5.45600000e-01  1.51700000e-01  5.50000000e-01  1.17200000e+04  1.75900000e+03
  4.00800000e+02  1.13700000e+02  3.70300000e+01  1.32700000e+01  5.02500000e+00
  1.01300000e+00  1.17200000e+04  1.75900000e+03  4.00800000e+02  1.13700000e+02
  3.70300000e+01  1.32700000e+01  5.02500000e+00  1.01300000e+00  3.02300000e-01
  1.77000000e+01  3.85400000e+00  1.04600000e+00  2.75300000e-01  1.18500000e+00
  1.30100000e+01  1.96200000e+00  4.44600000e-01  1.22000000e-01  7.27000000e-01
  1.30100000e+01  1.96200000e+00  4.44600000e-01  1.22000000e-01  7.27000000e-01
  1.30100000e+01  1.96200000e+00  4.44600000e-01  1.22000000e-01  7.27000000e-01
  1.30100000e+01  1.96200000e+00  4.44600000e-01  1.22000000e-01  7.27000000e-01
  1.30100000e+01  1.96200000e+00  4.44600000e-01  1.22000000e-01  7.27000000e-01
  1.30100000e+01  1.96200000e+00  4.44600000e-01  1.22000000e-01  7.27000000e-01
Contraction coefficients                   R   N=         140
  6.91583963e-04  5.32579615e-03  2.70607210e-02  1.01656846e-01  2.74574824e-01
  4.48294319e-01  2.84902611e-01  1.51948592e-02 -2.93269653e-04 -2.31803547e-03
 -1.14997860e-02 -4.68267270e-02 -1.28466169e-01 -3.01266272e-01 -2.55630702e-01
  1.09379336e+00  1.00000000e+00  5.69792516e-02  3.13207212e-01  7.60376742e-01
  1.00000000e+00  1.00000000e+00  6.91583963e-04  5.32579615e-03  2.70607210e-02
  1.01656846e-01  2.74574824e-01  4.48294319e-01  2.84902611e-01  1.51948592e-02
 -2.93269653e-04 -2.31803547e-03 -1.14997860e-02 -4.68267270e-02 -1.28466169e-01
 -3.01266272e-01 -2.55630702e-01  1.09379336e+00  1.00000000e+00  5.69792516e-02
  3.13207212e-01  7.60376742e-01  1.00000000e+00  1.00000000e+00  6.91583963e-04
  5.32579615e-03  2.70607210e-02  1.01656846e-01  2.74574824e-01  4.48294319e-01
  2.84902611e-01  1.51948592e-02 -2.93269653e-04 -2.31803547e-03 -1.14997860e-02
 -4.68267270e-02 -1.28466169e-01 -3.01266272e-01 -2.55630702e-01  1.09379336e+00
  1.00000000e+00  5.69792516e-02  3.13207212e-01  7.60376742e-01  1.00000000e+00
  1.00000000e+00  6.91583963e-04  5.32579615e-03  2.70607210e-02  1.01656846e-01
  2.74574824e-01  4.48294319e-01  2.84902611e-01  1.51948592e-02 -2.93269653e-04
 -2.31803547e-03 -1.14997860e-02 -4.68267270e-02 -1.28466169e-01 -3.01266272e-01
 -2.55630702e-01  1.09379336e+00  1.00000000e+00  5.69792516e-02  3.13207212e-01
  7.60376742e-01  1.00000000e+00  1.00000000e+00  7.09645947e-04  5.46727229e-03
  2.78231186e-02  1.04747740e-01  2.82920846e-01  4.48495239e-01  2.70816885e-01
  1.54502916e-02 -3.14443412e-04 -2.48213768e-03 -1.23163554e-02 -5.05389173e-02
 -1.39384903e-01 -3.25077495e-01 -2.29848308e-01  1.09537935e+00  1.00000000e+00
  6.26791663e-02  3.33536566e-01  7.41239642e-01  1.00000000e+00  1.00000000e+00
  3.34987264e-02  2.34800801e-01  8.13682958e-01  1.00000000e+00  1.00000000e+00
  3.34987264e-02  2.34800801e-01  8.13682958e-01  1.00000000e+00  1.00000000e+00
  3.34987264e-02  2.34800801e-01  8.13682958e-01  1.00000000e+00  1.00000000e+00
  3.34987264e-02  2.34800801e-01  8.13682958e-01  1.00000000e+00  1.00000000e+00
  3.34987264e-02  2.34800801e-01  8.13682958e-01  1.00000000e+00  1.00000000e+00
  3.34987264e-02  2.34800801e-01  8.13682958e-01  1.00000000e+00  1.00000000e+00
Coordinates of each shell                  R   N=         144
  1.64135766e+00  3.01388661e+00  3.02105438e-01  1.64135766e+00  3.01388661e+00
  3.02105438e-01  1.64135766e+00  3.01388661e+00  3.02105438e-01  1.64135766e+00
  3.01388661e+00  3.02105438e-01  1.64135766e+00  3.01388661e+00  3.02105438e-01
  1.64135766e+00  3.01388661e+00  3.02105438e-01 -7.92069013e-01  2.41637003e+00
 -1.76089721e-01 -7.92069013e-01  2.41637003e+00 -1.76089721e-01 -7.92069013e-01
  2.41637003e+00 -1.76089721e-01 -7.92069013e-01  2.41637003e+00 -1.76089721e-01
 -7.92069013e-01  2.41637003e+00 -1.76089721e-01 -7.92069013e-01  2.41637003e+00
 -1.76089721e-01 -2.04132045e+00 -4.66272915e-03  2.74562982e-01 -2.04132045e+00
 -4.66272915e-03  2.74562982e-01 -2.04132045e+00 -4.66272915e-03  2.74562982e-01
 -2.04132045e+00 -4.66272915e-03  2.74562982e-01 -2.04132045e+00 -4.66272915e-03
  2.74562982e-01 -2.04132045e+00 -4.66272915e-03  2.74562982e-01 -8.86542753e-01
 -2.27939716e+00  1.14770745e-01 -8.86542753e-01 -2.27939716e+00  1.14770745e-01
 -8.86542753e-01 -2.27939716e+00  1.14770745e-01 -8.86542753e-01 -2.27939716e+00
  1.14770745e-01 -8.86542753e-01 -2.27939716e+00  1.14770745e-01 -8.86542753e-01
 -2.27939716e+00  1.14770745e-01  1.57973857e+00 -2.69769905e+00 -3.97560747e-01
  1.57973857e+00 -2.69769905e+00 -3.97560747e-01  1.57973857e+00 -2.69769905e+00
 -3.97560747e-01  1.57973857e+00 -2.69769905e+00 -3.97560747e-01  1.57973857e+00
 -2.69769905e+00 -3.97560747e-01  1.57973857e+00 -2.69769905e+00 -3.97560747e-01
  2.35785222e+00 -1.07019217e+00 -7.72833710e-01  2.35785222e+00 -1.07019217e+00
 -7.72833710e-01  2.35785222e+00 -1.07019217e+00 -7.72833710e-01  2.41001189e+00
  4.84742623e+00 -2.45618565e-01  2.41001189e+00  4.84742623e+00 -2.45618565e-01
  2.41001189e+00  4.84742623e+00 -2.45618565e-01  2.90313152e+00  1.76921181e+00
  1.36901138e+00  2.90313152e+00  1.76921181e+00  1.36901138e+00  2.90313152e+00
  1.76921181e+00  1.36901138e+00 -1.93174725e+00 -4.05181485e+00  3.08665773e-01
 -1.93174725e+00 -4.05181485e+00  3.08665773e-01 -1.93174725e+00 -4.05181485e+00
  3.08665773e-01 -4.08120754e+00 -9.07671364e-03  5.74953790e-01 -4.08120754e+00
 -9.07671364e-03  5.74953790e-01 -4.08120754e+00 -9.07671364e-03  5.74953790e-01
 -1.98040717e+00  3.86766164e+00 -1.06077865e+00 -1.98040717e+00  3.86766164e+00
 -1.06077865e+00 -1.98040717e+00  3.86766164e+00 -1.06077865e+00
Total Energy                               R     -2.312259732206945e+02
Alpha Orbital Energies                     R   N=         100
 -1.91750805e+01 -1.02507021e+01 -1.02055145e+01 -1.01897555e+01 -1.01823882e+01
 -1.06559374e+00 -8.01663922e-01 -7.31005505e-01 -6.29577752e-01 -5.78396716e-01
 -4.99399171e-01 -4.78772314e-01 -4.46841929e-01 -4.08874984e-01 -3.94022647e-01
 -3.76530753e-01 -3.47162362e-01 -3.00861155e-01 -2.17626675e-01 -2.61612921e-02
  5.78658194e-02  7.11939250e-02  8.08245844e-02  1.01321858e-01  1.25331783e-01
  1.42608261e-01  1.62530768e-01  2.20674710e-01  3.01432976e-01  3.22080455e-01
  3.49847317e-01  4.34521061e-01  4.44460909e-01  4.75371071e-01  4.80070505e-01
  4.96003050e-01  5.11563458e-01  5.36192164e-01  5.55721658e-01  5.67123679e-01
  5.82507165e-01  6.12769216e-01  6.27170876e-01  6.58174679e-01  6.75177817e-01
  7.19344436e-01  7.70249481e-01  7.99752887e-01  8.79554977e-01  9.01589598e-01
  9.40003084e-01  9.50584616e-01  9.63273966e-01  1.00372623e+00  1.04337938e+00
  1.04895356e+00  1.09367255e+00  1.10316541e+00  1.16162452e+00  1.19067035e+00
  1.21795388e+00  1.31974313e+00  1.37440839e+00  1.43875024e+00  1.45199788e+00
  1.48188093e+00  1.50352895e+00  1.52956768e+00  1.55756362e+00  1.58805300e+00
  1.60182678e+00  1.64541098e+00  1.68256268e+00  1.71879570e+00  1.73621634e+00
  1.75207203e+00  1.76144969e+00  1.82516381e+00  1.89518591e+00  1.92069064e+00
  1.97689575e+00  1.98700790e+00  2.03589907e+00  2.08087556e+00  2.09829945e+00
  2.17326789e+00  2.20903767e+00  2.26847124e+00  2.39216671e+00  2.40275079e+00
  2.42412883e+00  2.57582203e+00  2.73623740e+00  2.77825137e+00  2.87679295e+00
  2.95715694e+00  3.02801990e+00  3.17787051e+00  3.43599699e+00  3.69593073e+00
Alpha MO coefficients                      R   N=       10000
 -6.92880030e-05 -1.18535200e-04  1.10177828e-03 -9.82929672e-05  7.06695183e-05
  2.18361763e-05 -1.96589789e-04 -1.29688577e-03  1.63566074e-04 -6.54762188e-05
  1.07661932e-05  3.88976807e-05 -4.83432791e-05  7.47184656e-05  2.12301823e-04
  3.65629235e-04 -5.58016450e-03 -6.11766064e-06  7.57953455e-06  5.96618157e-05
  3.18500171e-04  2.97359310e-03 -8.47968693e-04  6.51438095e-05 -1.23976774e-04
  1.00995707e-04 -2.01964477e-06  2.58339559e-05 -1.94457931e-04 -2.85274113e-04
  4.71562620e-03  4.56548305e-05 -2.68245035e-04  7.81817910e-06  4.65315617e-03
  3.23659193e-03 -1.07199347e-03 -1.62937900e-04 -1.32175970e-04  7.15418939e-05
  3.93436502e-04 -4.00812096e-04 -2.01582423e-04 -3.66448090e-04 -5.59540037e-03
 -3.26118060e-04  2.24994440e-04  9.65008957e-05 -5.96006189e-03 -1.38796519e-03
  1.25484997e-03  3.96552989e-04  1.48296976e-05  8.89681148e-05  7.05568567e-04
 -4.04180207e-04 -1.00408171e+00 -9.35564112e-03  1.40407524e-02  8.92447245e-04
 -1.45571983e-03 -7.46448223e-06 -3.26241677e-03  1.41280860e-03  5.94764343e-04
  1.68876417e-05  1.28036626e-05  9.68570199e-05  1.48729888e-04 -2.65837726e-04
 -2.28809141e-04 -2.56361615e-04 -2.39336094e-04 -9.83095130e-04  1.06101089e-04
  5.42228826e-05  2.81514491e-04  3.78531068e-05  6.07808388e-05  7.42513774e-06
 -2.24048230e-04 -2.19210970e-04  2.96216136e-06 -1.71604604e-05 -3.13685119e-06
  3.86629014e-04 -9.06887418e-04  6.41597285e-04  1.33048731e-04 -1.31118115e-04
  1.67447598e-04  1.25955654e-03 -2.26329702e-04 -2.11211885e-04  6.61885762e-05
  1.01930422e-04 -5.86312022e-04 -3.60095327e-05 -1.10952085e-04  2.73228857e-05
 -2.84989568e-04 -3.52004963e-04  1.15115188e-03  1.48796730e-04  8.20831996e-05
  7.30304004e-05 -1.28825792e-03  4.60527680e-04 -6.33320314e-04 -7.51317111e-05
 -1.72590567e-05 -2.95635583e-05  5.12570085e-05 -3.65957735e-05 -4.83083504e-04
 -6.95203972e-04  4.86830886e-03 -1.21281061e-04  9.55533290e-06  2.92415177e-06
 -2.43914266e-03 -4.14187768e-03  7.28800314e-04 -3.57027689e-04 -9.42100092e-05
 -1.01832680e-04  1.46180762e-05  1.98249195e-04  4.54802009e-03 -1.00492998e-03
  2.26658989e-04 -5.70225114e-04  1.34526749e-03  7.89061997e-05 -1.92008462e-03
 -6.56478943e-03  7.83978724e-04  1.07461744e-03  2.18739580e-04 -2.52246189e-05
  5.89939938e-04  8.94908930e-04  1.00591590e+00  1.52979684e-02 -1.26795475e-02
  5.67679942e-04 -4.76327034e-04 -1.74206171e-04  5.12394379e-03 -2.44216385e-03
 -9.88893239e-04 -1.62148084e-03 -5.24004525e-04 -1.48281820e-06 -2.76194449e-04
 -2.92072409e-05  7.23873103e-04  1.30601440e-03 -4.98258745e-03  2.67786893e-04
 -2.13309587e-04 -2.75785574e-05  3.27663433e-03 -2.87236947e-04 -7.01664296e-04
  6.93511410e-04  4.35490512e-04 -3.13421908e-06 -7.66232526e-04  2.14698953e-04
  5.18368823e-04 -4.31259803e-04 -6.33177211e-04 -2.09598693e-05  1.19991633e-04
 -5.22857655e-05  1.85580866e-04 -2.66604402e-05 -5.52344733e-05  3.06219319e-05
  1.88836998e-06  9.21130825e-04  1.24303671e-05  6.61211342e-05 -2.99389609e-05
 -2.12773221e-03  2.32970889e-03 -1.53529978e-03 -1.57195153e-03  2.86634822e-04
 -1.50205717e-04 -2.59104348e-04  2.95931304e-04  2.91819656e-04 -6.95223153e-05
 -5.85805432e-05  5.41412497e-04  1.73512729e-04  1.30099057e-04 -3.13586410e-05
  2.15692837e-02 -1.13541606e-03  4.79534754e-03  1.32830346e-03  3.41825367e-04
  1.71479374e-04 -2.07730890e-03 -1.81160672e-03  3.66713711e-04  7.60739893e-04
 -5.56169863e-04 -3.68635053e-05 -1.06401731e-03 -4.02895765e-04  1.00619999e+00
  1.62726007e-02 -1.92564536e-02 -1.40969667e-04  2.17573077e-04 -2.29466989e-04
 -1.71387683e-03  3.20998165e-03 -1.75082422e-03 -7.88726676e-04  6.85486106e-04
 -6.23051168e-04  2.31638905e-04 -4.10652566e-05  5.75934603e-03 -4.62342896e-04
  1.20505212e-03 -4.70973512e-04 -6.36918979e-04  1.41033011e-04  8.39617594e-04
  3.86937499e-03  2.53809453e-04  8.01862355e-04  4.10982369e-05  5.80737465e-04
  1.10652120e-03 -9.55695926e-04 -3.51887694e-04 -6.83845972e-04  4.03204399e-03
 -1.09283181e-04 -1.54370526e-04  1.23533779e-04 -6.29401153e-04  2.71742045e-03
 -2.93972402e-04 -4.32434596e-04 -3.03089429e-04  6.13173532e-05  4.13982882e-04
 -3.22132815e-04  8.88574738e-05  1.30181324e-04 -1.21269606e-03  1.63757714e-04
 -3.94142353e-05 -2.80369229e-05  1.23610102e-04 -6.90257507e-04  1.07585313e-04
  8.21220335e-05  2.78852397e-05  2.39935960e-05 -1.60687937e-05  1.65450037e-05
  2.93960857e-04  6.07783660e-04 -2.70245558e-04 -8.21266891e-05 -1.41958779e-06
 -5.66732442e-05  8.95630697e-04  1.44586481e-04 -1.12887908e-04  7.49295930e-05
 -2.58380802e-04 -1.99462361e-04  4.08591977e-05  2.47279699e-04 -1.16189555e-04
  9.71275427e-05  7.77282940e-04  1.80860878e-04 -5.51855456e-05  3.35574102e-06
 -2.89334467e-04  4.36310776e-04 -6.83508187e-05 -3.79810539e-04 -5.63207043e-05
 -2.29391464e-03  1.19258589e-03 -1.16843215e-03  1.52711325e-03 -8.99309560e-04
  1.00619311e+00  1.63582174e-02 -1.51674168e-02  2.68089087e-04 -1.59741367e-05
  5.37106126e-05  2.15569069e-03  6.38624334e-04  7.24160201e-04 -1.04294573e-03
  7.76833460e-04 -1.16542367e-03  4.43595242e-05  3.22980448e-04 -2.27852309e-02
 -1.43057813e-03  8.30462119e-04 -1.34043526e-03 -3.35247199e-04 -2.77107720e-04
  2.86802867e-03  2.56094375e-03 -3.98038344e-05  1.01387400e-03 -5.81010645e-04
  1.80275888e-04 -1.00105935e-03 -7.84246455e-04 -1.10637128e-03 -5.17558830e-04
  3.56128724e-03 -8.35961819e-05  5.89369382e-05 -6.64728770e-05  1.95916920e-03
  2.50718777e-03 -5.02375708e-04 -3.78462027e-04  7.65153449e-05 -2.44690425e-04
 -3.47820670e-04  2.91512592e-05  6.68549694e-06 -2.15821486e-04 -6.17843386e-04
  3.64231915e-06 -1.41542060e-04 -5.18393215e-05 -1.31417937e-03 -1.28010774e-04
  3.05144923e-04  6.16291929e-05  9.67263188e-05 -8.61428635e-05 -4.48210485e-05
  1.11356577e-04  8.41402831e-06  2.91095479e-05  3.96195743e-04  1.13277110e-04
  5.67634127e-05 -4.44812252e-05 -6.64576894e-04 -1.78695070e-04  1.19641135e-04
 -2.25881079e-05 -3.77717257e-05 -2.86788340e-05  8.38949323e-05  4.60189260e-05
  1.55536677e-04  1.26269863e-03 -1.20720910e-04  3.88027193e-04  1.00716863e-04
 -2.30558180e-03  1.92975061e-03  7.32053316e-04  2.03454845e-03 -6.69826672e-04
 -2.16055908e-03  1.51645250e-03  1.22201400e-03 -1.48073798e-03  1.23363452e-03
 -8.02386169e-05 -2.39723930e-05  3.83555555e-05  2.07309754e-05 -1.92166983e-05
  1.10488704e-04  5.84608610e-04  1.18615215e-05 -1.34717391e-04  4.54996040e-05
  7.56563367e-05  2.27015294e-04  1.63281572e-05 -3.19028060e-04  9.75889813e-05
  3.92939927e-04 -4.40019427e-04  2.74002400e-03  7.14131415e-05  1.03418223e-04
 -8.21773998e-05 -2.04516269e-03 -3.98821540e-04 -5.16523529e-05 -2.52436919e-04
  5.19725410e-04 -3.06387555e-04  2.78529990e-04 -4.79185087e-04 -6.17155484e-03
 -7.18963070e-04  3.08431506e-03  2.18237924e-04  7.15372583e-04 -1.76643986e-04
 -2.02043996e-03 -3.86134799e-03 -3.68473941e-05  9.08654609e-04  4.78867472e-04
  3.53593381e-04  5.60821968e-04 -1.32134126e-03  1.00664277e+00  1.67425405e-02
 -2.18143172e-02 -2.40660631e-04 -1.53273981e-04 -1.18193257e-04 -5.12771085e-03
 -2.47421607e-04  1.49432863e-03 -1.09192795e-03 -3.49895643e-04 -2.22547635e-05
  2.73276673e-04 -2.03624657e-04 -5.79522294e-03 -1.59057858e-03  6.70207948e-03
  6.36001186e-04 -1.23805269e-03 -7.63406216e-05  3.24113008e-04  4.17168664e-03
 -3.77908233e-04  8.48027671e-04  1.39004887e-04 -1.82176576e-04  6.91877344e-04
  1.02753740e-03  3.68509261e-05  5.36740216e-05 -9.67249718e-04  2.76185303e-05
 -5.76821942e-05  2.36709425e-06 -1.19177120e-04 -7.10525151e-04  8.29405244e-05
 -5.84851702e-05 -4.40305703e-05 -6.71733766e-06  9.87146841e-05  8.21231106e-05
  2.75768388e-04  5.54612843e-05 -1.33684907e-04 -1.58751255e-04  3.29550837e-05
  1.05114903e-04  4.93029003e-04  1.40238664e-04 -1.42992674e-04  4.99613297e-05
 -6.94825752e-04  4.88696828e-04  1.91238919e-04 -1.20000453e-04  1.26546824e-04
  1.33263683e-04  1.20671824e-03  2.76311837e-04 -2.67793470e-05 -2.07785709e-05
 -2.38363940e-03  8.50121329e-04 -2.12045774e-03 -5.52480275e-05  2.40404433e-04
 -3.24803412e-04  7.03302700e-04  2.00544799e-04  2.82175777e-04  7.24525874e-05
  1.34981671e-04  8.00115775e-03 -4.23071262e-03 -1.83701442e-03 -4.82456279e-03
 -6.68626660e-04  2.32055061e-03  4.87681757e-03 -1.86354459e-03 -2.58879978e-04
 -5.29892895e-04  7.23957204e-04 -8.18813399e-04  9.76507934e-04 -4.04724731e-05
  1.28164408e-02  1.19946200e-03  1.39560096e-03 -8.48095653e-03  9.32357698e-04
  5.72919634e-03  3.42302900e-03  4.28016237e-05 -1.35419043e-03 -1.44651592e-04
 -3.69405801e-04 -1.34063546e-03  4.63993578e-04 -1.29562286e-03  3.46767944e-02
 -4.62792547e-03  2.08692755e-02 -1.79848958e-02 -4.06121952e-03  5.45560459e-03
  1.53152676e-02 -2.03227137e-03 -2.22567828e-03 -1.00886633e-03  1.56015583e-03
  2.16834249e-03 -8.06982357e-03 -1.27189172e-02  1.53628488e-01  8.53266756e-02
  1.25723567e-01 -6.84415765e-03 -2.75918597e-02  4.82534521e-03  2.40048816e-02
 -1.87674284e-03 -1.10309208e-02 -1.09826997e-02  1.11818319e-03  2.82592942e-02
 -5.26846612e-03 -6.72272605e-03  4.24326886e-01  3.73033974e-01 -7.26296868e-02
  9.06363010e-02  5.71781307e-03 -3.11218719e-02 -1.48620131e-03  7.03891536e-03
 -6.25472985e-03 -3.40581450e-03 -6.60281426e-04  3.95431575e-03 -1.92197594e-03
  1.71730296e-01  4.78682392e-03 -1.88531126e-02 -2.95276758e-02  8.40445455e-03
  9.19472923e-06 -3.76201264e-03  6.24938874e-05  1.20539643e-04 -1.67932147e-04
  7.03094768e-03  4.76263029e-03 -1.11639679e-03 -7.04373770e-04 -9.74492645e-04
  3.40165225e-02  5.32839977e-03  8.32712735e-03  4.33961339e-03 -1.59206311e-03
  5.06435983e-03  2.03622684e-03  4.15906694e-04 -2.30321097e-03  2.78991482e-05
  1.59579459e-03 -1.24301555e-03 -2.95611428e-04 -4.42675708e-04 -8.38184085e-05
  1.46283252e-02 -1.90553726e-01 -1.02787488e-01  8.25900966e-02  2.87650221e-02
  1.38351184e-02  8.50956410e-03 -3.04897866e-03  8.09845905e-03  4.75261314e-03
 -2.26072196e-03 -3.31223611e-03 -7.83480025e-03 -6.00581924e-03  1.93784262e-02
 -2.77352409e-01 -1.77868980e-01 -3.66687874e-02  4.06580231e-02 -1.92501771e-02
 -1.87551162e-02  2.07750955e-02 -1.34780324e-02  1.03707346e-02 -9.01985526e-04
  1.28959448e-03 -1.39551194e-03 -1.10915928e-02  1.82454025e-02 -2.42554267e-01
 -1.42653473e-01 -5.43961284e-02 -1.55994823e-02  1.45830046e-02 -1.88435166e-02
 -1.21010549e-02  9.19248528e-03  8.67200556e-03  1.66241099e-03  2.66483092e-03
  9.59405762e-03 -5.24507451e-03  5.56272361e-03 -1.25895287e-01 -6.83364570e-02
  6.04346102e-02 -8.55697331e-02 -9.19647339e-03  2.33947210e-02 -1.30681470e-02
 -6.42927031e-03  3.43904398e-03 -1.73274233e-03 -2.81793837e-04  1.20202449e-02
  4.17568953e-03  1.12440501e-03  8.72933227e-02  8.01080937e-02  2.76508778e-02
  2.60245514e-03 -8.50265985e-03  1.66366611e-02 -7.87145990e-03 -3.49064355e-03
  8.28159786e-04  3.52626148e-04 -7.59588482e-04 -1.08339272e-03  2.96868350e-03
  3.52417439e-02  3.71300346e-03 -2.12772819e-03 -8.97028877e-03  6.47752105e-04
 -5.95451202e-02 -5.55029340e-04  5.78289887e-03  8.84206636e-03 -2.05453673e-03
 -6.84149779e-02 -4.50754180e-03  8.09162936e-03 -5.49398103e-03  5.77175742e-03
 -3.40485137e-02  9.25354727e-04 -6.09750613e-04 -5.96484748e-03  3.12659655e-04
 -8.22128697e-02 -8.44487454e-03 -1.32233988e-02 -9.21730767e-04  1.88463584e-03
 -9.53760002e-02 -1.22590428e-02 -8.54135964e-03  1.08765279e-02 -6.14700631e-03
  1.63783289e-02 -2.27642453e-01 -1.26466990e-01  5.52843948e-02  8.32979044e-03
  1.38354950e-02  2.89999601e-03  1.28847462e-03  2.81170563e-03  3.08944600e-03
 -2.59252333e-03 -2.26573254e-03 -5.62284218e-03 -4.26296000e-05  9.00157116e-03
 -1.36841258e-01 -1.02278137e-01 -1.08868476e-01 -7.66431261e-02 -7.34676314e-03
 -4.82434247e-02 -1.29778846e-02 -6.71045547e-03  2.37052427e-03 -4.19095659e-03
 -2.59839365e-03 -1.44374515e-02  1.57905696e-04 -1.32159951e-02  1.96513892e-01
  1.28159313e-01  9.25282553e-03 -1.20519309e-01 -3.38057244e-03  1.86147484e-02
 -3.46236570e-02  3.16732835e-04 -3.32237972e-03  2.69705043e-04  1.74314499e-03
 -6.74419569e-03 -1.21582962e-02 -9.92698546e-03  2.51523248e-01  1.39517755e-01
 -7.27038836e-02  5.86547092e-02  1.07198910e-02 -2.20463726e-02  9.65357227e-03
  2.42198404e-03 -5.35931768e-03 -1.86666410e-05  1.07007779e-03 -5.21828710e-03
 -1.09603066e-02 -1.93058463e-03 -8.74286424e-02 -7.75673401e-02 -1.09148177e-01
 -4.35937407e-02  2.85378142e-02 -5.01646505e-02 -2.77362307e-03  1.06890831e-02
 -1.61928482e-03 -1.29105653e-03  1.51128291e-03  5.86914398e-03 -5.05645091e-03
 -1.07604784e-01 -2.00784316e-02  4.92182487e-03  1.16478013e-02 -3.87800318e-03
 -9.67697004e-02 -1.00018936e-02  6.02894514e-03  1.27621467e-02 -3.38514629e-03
 -9.46542333e-02 -1.24121246e-02  9.12275423e-03 -6.75429927e-03  7.86720715e-03
  1.09257483e-01  9.71637415e-03  5.40203927e-03  1.39556072e-02 -1.03903474e-03
  8.94496100e-02  1.38078146e-02  1.22160956e-02 -3.08133092e-03 -1.97131588e-03
 -5.89362206e-02 -1.20336102e-02 -6.90679237e-03  3.63418404e-03 -3.54848843e-03
  1.04983362e-02 -1.90123910e-01 -1.22274058e-01 -2.24381944e-02 -2.99849942e-02
 -6.92360464e-04 -2.18210187e-02  4.27494091e-03 -8.44568628e-03 -1.57829728e-03
 -2.70004907e-04  5.06549897e-04  5.62519805e-04  2.31502870e-03 -2.70323581e-03
  8.48040664e-02  4.04319257e-02 -1.47920870e-01 -9.48725752e-02 -9.54160407e-03
 -4.97532191e-02 -4.00949107e-02 -1.66973040e-03 -9.69461964e-04 -4.68574539e-03
 -2.55565263e-03 -9.52982405e-03  1.54122471e-03 -6.03883248e-03  1.58828186e-01
  9.23198545e-02 -1.82247521e-02  1.18932924e-01 -1.44981293e-02  5.03280745e-03
  4.42518451e-02 -5.38997484e-03 -7.91239382e-04 -1.19207307e-03 -3.90289414e-03
 -2.30704936e-03  7.41548882e-03  3.06413129e-03 -2.07087154e-01 -1.25229008e-01
 -4.89357157e-02  1.42745442e-01  1.53275468e-03 -2.00345718e-02  3.51685523e-02
 -1.22545690e-04  2.13235092e-03  1.87083568e-03 -2.96487452e-03 -8.80982564e-03
  9.58620988e-03  5.05434230e-04  5.32106446e-02  5.17407005e-02  2.36393721e-01
  1.37515809e-01 -6.94747466e-02  1.02907852e-01  4.16346359e-02 -2.79957722e-02
  1.38779199e-03  2.67472065e-03 -2.13260252e-03 -1.18256119e-02  4.00883120e-03
  1.90379654e-01  3.78991100e-02 -8.21680148e-03 -2.31734338e-02  4.08855429e-03
 -1.23001233e-01 -2.63050024e-02  4.96800689e-03  1.27665108e-02 -4.17001688e-03
 -9.39528094e-02 -6.19977644e-03  6.56372151e-03 -9.39978067e-03  5.89096213e-03
 -1.61694820e-01 -3.02224450e-02 -9.51929901e-03 -1.38763272e-02  1.51265336e-03
  9.45382568e-02  2.02042641e-02  1.06421039e-02  2.67092434e-03 -1.97482800e-03
  5.74150428e-02  1.11237541e-02  5.76268423e-04 -6.47354314e-03  2.29075199e-03
  6.85160073e-03 -1.39563050e-01 -8.54890244e-02 -1.37978685e-01  1.95219572e-02
 -4.22917623e-02 -5.51372345e-02  1.26695591e-02 -1.42047106e-02 -3.16590273e-03
  3.37414267e-03 -7.16570119e-05  1.06972436e-02  2.78398465e-03 -4.22211015e-03
  2.10353402e-01  1.19929168e-01 -1.06922936e-01  4.96049159e-02 -3.95450810e-02
 -4.41001167e-02  7.36523298e-03 -1.20079355e-02  4.13511112e-03 -2.63541910e-03
 -6.56780986e-04 -2.12714778e-03 -4.41148137e-04  1.87364155e-03 -7.73679631e-02
 -2.04481796e-02 -4.88738434e-03  1.86928004e-01 -2.05809253e-02  1.88912897e-03
  4.33299600e-02 -8.89739064e-03 -1.50988217e-03 -1.26735928e-03 -4.69040405e-03
 -3.62052186e-03  6.03341504e-03  2.67145452e-03 -1.37006579e-02 -1.62526088e-02
  1.60220934e-01 -1.76852684e-01 -3.15943483e-02  4.73371538e-02 -6.35413064e-02
 -8.76904094e-03 -2.45506517e-03 -2.25978960e-03  1.36443529e-03  1.01992354e-02
 -1.01500810e-02  1.30640964e-03  3.77574070e-02  5.89898499e-02 -2.00753341e-01
 -1.74485154e-01  5.59731725e-02 -7.78319189e-02 -7.05795034e-02  1.91345608e-02
  8.60177939e-04 -1.32838251e-03  1.52867038e-03  1.06992704e-02 -1.82750247e-03
 -1.89047589e-01 -4.78830960e-02  6.00710912e-03  1.31576963e-02 -6.25230962e-03
 -9.67552382e-02 -2.37391687e-02  3.24715272e-04  1.03419423e-02 -3.99601314e-03
 -1.65521719e-01 -3.57094705e-02  7.25974793e-03 -7.24104830e-03  1.00527771e-02
  2.89819394e-02  3.34091404e-03  3.61055308e-03  2.20737237e-04 -7.35861781e-04
 -4.23075155e-02 -9.71978820e-03 -5.31461412e-03  3.91737180e-03  3.88422394e-04
  1.86049249e-01  3.97081045e-02  9.32219291e-03 -1.30910922e-02  8.11267416e-03
 -7.36483827e-04  3.49969184e-02  4.10531834e-02  6.10893584e-02  1.43133532e-01
 -2.80091700e-02  9.99255702e-03  5.78251612e-02 -1.19583159e-02  2.00324926e-03
 -1.30768934e-03 -2.25319498e-03 -4.71719772e-04 -4.01892129e-03 -4.26951525e-04
 -2.86336427e-02 -1.44097445e-02 -8.96556103e-02  1.53106913e-01 -4.94543158e-02
 -5.38377684e-02  4.64053904e-02 -1.19377670e-02  8.86703453e-04 -1.62398875e-03
 -6.81987597e-04  6.94981037e-03  8.14479945e-03 -4.09649154e-03  2.70093496e-02