[Molden Format]
[Atoms] (AU)
C    1    6           2.0217429900         2.7116250920        -0.2149723564
C    2    6          -0.7887314597         2.3853446579        -0.1069010357
C    3    6          -2.0864569592         0.1914269559         0.0122316834
C    4    6          -0.9227536145        -2.3406350887         0.0703838097
O    5    8           1.3371397367        -2.7659041960         0.2195630041
H    6    1           2.9456993512         1.1832577253        -1.2712520841
H    7    1           2.5273952642         4.5660601096        -1.0091745849
H    8    1           2.8156905213         2.6206763341         1.7158904612
H    9    1          -2.3009316714        -3.9470766037        -0.0289195030
H   10    1          -4.1542945530         0.2437469527         0.0622347626
H   11    1          -1.9060391557         4.1317496643        -0.1046004454
[GTO]
  1 0
 s    8  1.00
     6665.0000000000         0.0006920000
     1000.0000000000         0.0053290000
      228.0000000000         0.0270770000
       64.7100000000         0.1017180000
       21.0600000000         0.2747400000
        7.4950000000         0.4485640000
        2.7970000000         0.2850740000
        0.5215000000         0.0152040000
 s    8  1.00
     6665.0000000000        -0.0001460000
     1000.0000000000        -0.0011540000
      228.0000000000        -0.0057250000
       64.7100000000        -0.0233120000
       21.0600000000        -0.0639550000
        7.4950000000        -0.1499810000
        2.7970000000        -0.1272620000
        0.5215000000         0.5445290000
 s    1  1.00
        0.1596000000         1.0000000000
 p    3  1.00
        9.4390000000         0.0381090000
        2.0020000000         0.2094800000
        0.5456000000         0.5085570000
 p    1  1.00
        0.1517000000         1.0000000000
 d    1  1.00
        0.5500000000         1.0000000000

  2 0
 s    8  1.00
     6665.0000000000         0.0006920000
     1000.0000000000         0.0053290000
      228.0000000000         0.0270770000
       64.7100000000         0.1017180000
       21.0600000000         0.2747400000
        7.4950000000         0.4485640000
        2.7970000000         0.2850740000
        0.5215000000         0.0152040000
 s    8  1.00
     6665.0000000000        -0.0001460000
     1000.0000000000        -0.0011540000
      228.0000000000        -0.0057250000
       64.7100000000        -0.0233120000
       21.0600000000        -0.0639550000
        7.4950000000        -0.1499810000
        2.7970000000        -0.1272620000
        0.5215000000         0.5445290000
 s    1  1.00
        0.1596000000         1.0000000000
 p    3  1.00
        9.4390000000         0.0381090000
        2.0020000000         0.2094800000
        0.5456000000         0.5085570000
 p    1  1.00
        0.1517000000         1.0000000000
 d    1  1.00
        0.5500000000         1.0000000000

  3 0
 s    8  1.00
     6665.0000000000         0.0006920000
     1000.0000000000         0.0053290000
      228.0000000000         0.0270770000
       64.7100000000         0.1017180000
       21.0600000000         0.2747400000
        7.4950000000         0.4485640000
        2.7970000000         0.2850740000
        0.5215000000         0.0152040000
 s    8  1.00
     6665.0000000000        -0.0001460000
     1000.0000000000        -0.0011540000
      228.0000000000        -0.0057250000
       64.7100000000        -0.0233120000
       21.0600000000        -0.0639550000
        7.4950000000        -0.1499810000
        2.7970000000        -0.1272620000
        0.5215000000         0.5445290000
 s    1  1.00
        0.1596000000         1.0000000000
 p    3  1.00
        9.4390000000         0.0381090000
        2.0020000000         0.2094800000
        0.5456000000         0.5085570000
 p    1  1.00
        0.1517000000         1.0000000000
 d    1  1.00
        0.5500000000         1.0000000000

  4 0
 s    8  1.00
     6665.0000000000         0.0006920000
     1000.0000000000         0.0053290000
      228.0000000000         0.0270770000
       64.7100000000         0.1017180000
       21.0600000000         0.2747400000
        7.4950000000         0.4485640000
        2.7970000000         0.2850740000
        0.5215000000         0.0152040000
 s    8  1.00
     6665.0000000000        -0.0001460000
     1000.0000000000        -0.0011540000
      228.0000000000        -0.0057250000
       64.7100000000        -0.0233120000
       21.0600000000        -0.0639550000
        7.4950000000        -0.1499810000
        2.7970000000        -0.1272620000
        0.5215000000         0.5445290000
 s    1  1.00
        0.1596000000         1.0000000000
 p    3  1.00
        9.4390000000         0.0381090000
        2.0020000000         0.2094800000
        0.5456000000         0.5085570000
 p    1  1.00
        0.1517000000         1.0000000000
 d    1  1.00
        0.5500000000         1.0000000000

  5 0
 s    8  1.00
    11720.0000000000         0.0007100000
     1759.0000000000         0.0054700000
      400.8000000000         0.0278370000
      113.7000000000         0.1048000000
       37.0300000000         0.2830620000
       13.2700000000         0.4487190000
        5.0250000000         0.2709520000
        1.0130000000         0.0154580000
 s    8  1.00
    11720.0000000000        -0.0001600000
     1759.0000000000        -0.0012630000
      400.8000000000        -0.0062670000
      113.7000000000        -0.0257160000
       37.0300000000        -0.0709240000
       13.2700000000        -0.1654110000
        5.0250000000        -0.1169550000
        1.0130000000         0.5573680000
 s    1  1.00
        0.3023000000         1.0000000000
 p    3  1.00
       17.7000000000         0.0430180000
        3.8540000000         0.2289130000
        1.0460000000         0.5087280000
 p    1  1.00
        0.2753000000         1.0000000000
 d    1  1.00
        1.1850000000         1.0000000000

  6 0
 s    3  1.00
       13.0100000000         0.0196850000
        1.9620000000         0.1379770000
        0.4446000000         0.4781480000
 s    1  1.00
        0.1220000000         1.0000000000
 p    1  1.00
        0.7270000000         1.0000000000

  7 0
 s    3  1.00
       13.0100000000         0.0196850000
        1.9620000000         0.1379770000
        0.4446000000         0.4781480000
 s    1  1.00
        0.1220000000         1.0000000000
 p    1  1.00
        0.7270000000         1.0000000000

  8 0
 s    3  1.00
       13.0100000000         0.0196850000
        1.9620000000         0.1379770000
        0.4446000000         0.4781480000
 s    1  1.00
        0.1220000000         1.0000000000
 p    1  1.00
        0.7270000000         1.0000000000

  9 0
 s    3  1.00
       13.0100000000         0.0196850000
        1.9620000000         0.1379770000
        0.4446000000         0.4781480000
 s    1  1.00
        0.1220000000         1.0000000000
 p    1  1.00
        0.7270000000         1.0000000000

  10 0
 s    3  1.00
       13.0100000000         0.0196850000
        1.9620000000         0.1379770000
        0.4446000000         0.4781480000
 s    1  1.00
        0.1220000000         1.0000000000
 p    1  1.00
        0.7270000000         1.0000000000

  11 0
 s    3  1.00
       13.0100000000         0.0196850000
        1.9620000000         0.1379770000
        0.4446000000         0.4781480000
 s    1  1.00
        0.1220000000         1.0000000000
 p    1  1.00
        0.7270000000         1.0000000000

[5D7F]
[9G]

[MO]
 Sym= A
 Ene=        -1.9134715008e+01
 Spin= Alpha
 Occup=         2.0000000000e+00
  1        -4.3598212737e-05
  2        -9.8370866061e-05
  3        -3.2552592900e-05
  4         6.4921737070e-05
  5         2.2623193112e-05
  6         1.4942376134e-05
  7        -2.9151618543e-07
  8         8.4758974627e-05
  9         1.8601011689e-04
 10         5.1030516683e-05
 11         2.7077224277e-05
 12         5.9660178345e-05
 13         5.8355458080e-05
 14        -1.0518565193e-04
 15        -2.3055258968e-04
 16        -4.0923804219e-04
 17         5.9089425767e-03
 18        -1.8564878813e-05
 19        -1.0145043242e-05
 20        -2.1551073669e-05
 21        -1.1117430511e-03
 22        -2.6085601575e-03
 23         1.9112624389e-04
 24        -4.4045163232e-05
 25        -9.0478473447e-06
 26         4.0565397408e-07
 27        -4.4154964992e-05
 28        -3.9565102252e-05
 29         2.2556746146e-04
 30         3.4707793053e-04
 31        -4.6166529696e-03
 32         2.0648591011e-05
 33         2.9172044231e-04
 34        -1.7009157559e-05
 35        -4.8253624564e-03
 36        -3.6384194628e-03
 37         4.8003211774e-05
 38         1.4560152745e-04
 39        -5.3694104016e-06
 40         5.6881695767e-05
 41        -3.2501117569e-04
 42         5.1342067624e-04
 43         4.4233730633e-04
 44         5.7745734180e-04
 45         5.4841741674e-03
 46        -1.1139711376e-04
 47        -1.7216115819e-04
 48        -7.0042629579e-06
 49         6.7028828944e-03
 50         6.3639295328e-04
 51         3.6036325478e-04
 52        -4.2180987048e-05
 53        -5.4262493732e-05
 54         2.7510632253e-05
 55        -1.1493420823e-03
 56         5.3208304732e-04
 57         1.0041717864e+00
 58         9.4737706974e-03
 59        -1.5168785164e-02
 60        -1.8288938137e-03
 61         3.6689936199e-04
 62        -1.3716166163e-04
 63         3.4993792956e-03
 64        -8.7269469413e-04
 65         2.5333895548e-04
 66        -2.0980697603e-05
 67         8.3820128526e-06
 68        -5.8563199879e-08
 69         6.6238733821e-05
 70         7.6228593758e-06
 71        -8.0950307033e-05
 72        -2.5229813483e-05
 73         5.5285988826e-05
 74         4.0871856825e-05
 75        -5.8386783880e-06
 76         1.0575482624e-04
 77         2.7705240274e-04
 78        -6.5912797852e-05
 79        -7.9851348670e-05
 80         2.7507554028e-05
 81        -5.4203777644e-05
 82        -2.3521692569e-04
 83         5.5711601354e-05
 84         3.5463463022e-05
 85         4.2905543938e-05
 86        -1.2663160989e-04
 87         9.6813617450e-04
 88        -7.6265849036e-04
 89         1.2150088939e-04
 90        -4.2282827826e-05
 91        -2.6920986227e-04
 92        -1.3646204934e-03
 93         1.8983706774e-04
 94         2.6182679513e-04
 95         1.0891759136e-05
 96        -1.7487967427e-04
 97         2.9801736368e-04
 98         5.7468312080e-05
 99         8.9735990570e-05
100        -1.1811875702e-05
 Sym= A
 Ene=        -1.0272750190e+01
 Spin= Alpha
 Occup=         2.0000000000e+00
  1        -3.3161305335e-04
  2        -4.2659232854e-04
  3         8.3444106530e-04
  4         2.9756144111e-04
  5         5.5676239853e-05
  6        -1.0529464615e-05
  7        -5.8143845314e-04
  8         2.9073055295e-04
  9         1.1559764857e-04
 10         1.7912706765e-05
 11        -1.2161857150e-05
 12         3.4172304720e-05
 13        -1.2672172118e-04
 14        -7.8417865908e-05
 15        -4.2570295687e-04
 16        -6.2975373300e-04
 17         7.0350106112e-03
 18        -2.6933389781e-04
 19        -2.8255726326e-05
 20         1.2070095351e-05
 21        -2.4012230374e-03
 22        -4.1317216894e-03
 23         2.3195713515e-04
 24        -4.4430109618e-04
 25        -7.4495398552e-05
 26        -4.6834460060e-05
 27         3.3892536125e-04
 28         3.9053088057e-04
 29         1.6300867090e-03
 30        -2.3586324916e-04
 31        -2.4557909747e-03
 32        -3.3965956053e-04
 33         7.4814173335e-04
 34        -1.2531724948e-05
 35        -2.8170056316e-03
 36        -6.3025513701e-03
 37         2.2449434514e-04
 38         1.0586428161e-03
 39        -4.6672973037e-05
 40         6.3945085703e-05
 41         1.1804558021e-03
 42         8.0180891829e-04
 43         1.0059274271e+00
 44         1.5253740657e-02
 45        -1.0834395291e-02
 46         7.1776706535e-04
 47        -4.9368366821e-04
 48         5.3186559665e-05
 49         5.4654003731e-03
 50        -2.1181193987e-03
 51         2.5047365112e-04
 52        -1.6428494872e-03
 53         2.6304763741e-04
 54         9.1076792070e-06
 55         8.1574747218e-04
 56         2.6462998634e-05
 57         3.6746926000e-04
 58         9.1478735832e-04
 59        -5.9561104125e-03
 60         7.3500844556e-04
 61        -2.2339007213e-04
 62         3.9127730961e-05
 63         3.3800401361e-03
 64        -2.4477949387e-04
 65         2.5727047902e-04
 66         5.5880922467e-04
 67        -1.0942556214e-04
 68         1.6387759820e-05
 69        -7.0487927123e-04
 70         2.7300785728e-04
 71        -7.5014669796e-05
 72         7.3845272637e-05
 73         7.8223671540e-05
 74         3.1848303906e-05
 75        -1.4976429522e-05
 76        -4.1752111231e-05
 77         2.6572767216e-04
 78        -5.9016928717e-05
 79        -4.6276889646e-05
 80        -2.8179616680e-06
 81        -4.9406199276e-05
 82        -6.1304796940e-05
 83         8.3066960010e-05
 84         2.0480553771e-05
 85        -2.4055053638e-05
 86        -1.6498570312e-03
 87         2.4983237436e-03
 88        -1.4645243160e-03
 89        -1.4440853498e-03
 90        -9.4824446276e-05
 91        -4.8397280136e-04
 92        -4.6564266812e-04
 93         6.7160095573e-05
 94         3.2671184777e-04
 95        -1.6666584503e-05
 96        -3.3909003986e-05
 97         6.5439619558e-04
 98         2.4035120535e-04
 99         1.0838513586e-04
100        -1.1614380077e-05
 Sym= A
 Ene=        -1.0222721988e+01
 Spin= Alpha
 Occup=         2.0000000000e+00
  1         3.3320306457e-03
  2        -4.5858788535e-04
  3         4.3641384879e-03
  4         7.4776400927e-04
  5         9.5403198783e-05
  6         5.7835194826e-05
  7        -2.3122599106e-03
  8        -1.1070419000e-03
  9        -4.9329383583e-04
 10         7.9703725381e-04
 11         1.2546544571e-04
 12        -6.5230543832e-06
 13        -1.0415554382e-03
 14        -2.5169485888e-06
 15         1.0062843407e+00
 16         1.6069279626e-02
 17        -1.9787803814e-02
 18        -5.4878957165e-04
 19         2.3584198535e-04
 20         3.5346588420e-05
 21        -2.1571698671e-03
 22         3.5746787090e-03
 23         5.8283221174e-05
 24        -1.0928627611e-03
 25        -1.9291095031e-06
 26        -4.0736419993e-05
 27        -5.1638015620e-04
 28        -2.2129450991e-04
 29         1.3039312641e-02
 30        -1.3027898033e-03
 31         4.6598123002e-03
 32        -7.8166638205e-04
 33        -1.1066413637e-03
 34         7.6971743154e-05
 35         2.6717681035e-03
 36         2.3249308107e-03
 37        -2.2295759328e-04
 38         8.9157010638e-04
 39         7.1792004943e-05
 40         1.1337393084e-04
 41         5.7530331234e-04
 42        -9.7566052114e-04
 43        -2.6093046192e-04
 44        -5.0887694052e-04
 45         1.0369967397e-03
 46        -4.1069290967e-05
 47        -2.0611998863e-04
 48         1.1231780035e-05
 49        -1.7375037806e-04
 50         1.0398944511e-03
 51         1.9339298151e-05
 52        -3.4283218205e-04
 53        -7.7279259573e-06
 54        -9.0116001727e-06
 55         1.9316171616e-04
 56        -1.0252150383e-04
 57        -3.2616931094e-05
 58        -7.2013529427e-05
 59        -2.5043541747e-04
 60         1.2484784686e-04
 61        -2.4316526935e-06
 62         1.7462254907e-05
 63        -4.2667467147e-05
 64        -2.5969237446e-04
 65        -6.0170101873e-07
 66         1.1606508089e-05
 67        -1.4319906474e-05
 68         4.2510780915e-06
 69        -1.2023177180e-05
 70         1.4090532650e-05
 71        -4.3143102295e-04
 72         1.2740252916e-04
 73        -2.5593440562e-05
 74         3.6801429372e-05
 75         7.8445440225e-05
 76        -3.5295585362e-04
 77         2.9441385832e-04
 78         7.3799770479e-05
 79         8.2897635364e-05
 80         6.5107050959e-05
 81        -4.7607674077e-04
 82         1.1995355262e-03
 83        -1.2737899287e-04
 84         1.7663186866e-05
 85         1.8115276236e-05
 86        -2.0620371518e-05
 87         4.1744990852e-04
 88         5.4518860407e-05
 89        -5.2548786128e-05
 90        -7.3459318014e-06
 91         9.7113691989e-05
 92         9.2535293767e-04
 93         1.2231871174e-04
 94        -2.3054236732e-04
 95         1.5043680900e-05
 96        -2.3338874205e-03
 97         1.2075381689e-03
 98        -1.2084519624e-03
 99         1.7743348311e-03
100         8.8776796092e-06
 Sym= A
 Ene=        -1.0197379697e+01
 Spin= Alpha
 Occup=         2.0000000000e+00
  1         1.6746356500e-03
  2         3.9619703360e-04
  3         8.1866172800e-06
  4        -8.3344730777e-05
  5        -1.1180539465e-04
  6         7.9279131018e-05
  7         7.1069651312e-04
  8        -1.8971923381e-04
  9        -1.2378794520e-04
 10         3.1479873099e-04
 11         7.5885830106e-05
 12        -2.3562140795e-05
 13        -8.5837147546e-05
 14         2.1957002598e-04
 15         1.4573207449e-02
 16         1.8067664594e-03
 17        -6.8251704593e-03
 18        -6.1044828617e-04
 19        -1.2145431461e-03
 20         6.6239947147e-05
 21         5.7958690830e-04
 22         4.1930517191e-03
 23        -1.3570707467e-04
 24        -9.3272126843e-04
 25        -4.5495293171e-05
 26        -9.6752251384e-05
 27        -5.1125837880e-04
 28         1.0308080710e-03
 29        -1.0064855985e+00
 30        -1.6554424954e-02
 31         2.1575372870e-02
 32         3.2591729700e-04
 33        -3.0608576889e-04
 34         3.1902387092e-05
 35         5.5814879220e-03
 36         3.5516605708e-04
 37        -1.7616061996e-04
 38         1.0888778425e-03
 39         7.9946647067e-05
 40         6.7944201189e-05
 41        -3.7455640788e-04
 42        -3.9055170713e-04
 43         1.9507517512e-03
 44         8.1067176794e-04
 45        -5.7864379021e-03
 46        -2.5294199362e-04
 47         7.4781462467e-04
 48        -1.4125014917e-08
 49        -6.8578243520e-04
 50        -3.5130061567e-03
 51         4.7738663253e-05
 52        -6.9243491274e-04
 53        -3.1817105605e-05
 54        -6.4141914200e-05
 55        -6.3952842062e-04
 56        -1.1897978560e-03
 57        -4.5720578292e-05
 58        -7.9405462547e-05
 59         9.2745278053e-04
 60        -2.6031249635e-05
 61         7.4718699534e-05
 62         2.2103466873e-05
 63         9.7906174191e-05
 64         6.0059713061e-04
 65        -4.6878005558e-05
 66         1.3204374238e-04
 67        -3.3187458882e-05
 68        -1.6410752452e-05
 69        -7.5234903714e-05
 70        -2.1821527914e-04
 71         1.6496532433e-04
 72        -3.9190950028e-04
 73        -2.5479740521e-05
 74        -4.1745166708e-05
 75         5.6766117800e-05
 76        -4.9841733482e-05
 77        -2.0639275920e-04
 78        -3.5123277071e-05
 79         6.9221857248e-05
 80         1.4076789227e-05
 81        -5.1704263875e-05
 82        -1.2564470450e-04
 83        -4.9827478130e-05
 84        -6.0528337879e-05
 85         1.3938972851e-04
 86         2.4645234907e-04
 87        -1.0073781154e-03
 88        -7.3992041419e-05
 89         2.0508526780e-04
 90        -2.2698188910e-05
 91         2.4493515986e-03
 92        -7.7574005074e-04
 93         2.1393205078e-03
 94        -1.7159434510e-04
 95        -4.4405933277e-05
 96        -9.7751906287e-05
 97        -1.0134186483e-03
 98        -2.6027189489e-04
 99         2.8693354359e-05
100         1.2078514461e-05
 Sym= A
 Ene=        -1.0192394076e+01
 Spin= Alpha
 Occup=         2.0000000000e+00
  1         1.0069827606e+00
  2         1.7420446459e-02
  3        -1.9447370859e-02
  4         4.5200948945e-04
  5         1.3185106390e-04
  6         1.3525515683e-04
  7         2.9357394779e-03
  8         1.8774861684e-04
  9        -5.4825759195e-04
 10         2.2014286610e-04
 11         3.1142207191e-05
 12        -5.4036202535e-05
 13        -5.8593204677e-04
 14        -1.4390796010e-04
 15        -3.5804742373e-03
 16        -3.0360734115e-04
 17         1.8192751429e-03
 18        -4.9662112753e-04
 19         5.8188739944e-05
 20         2.4156271161e-05
 21         4.5143844605e-03
 22         2.3534545685e-03
 23        -1.6590914710e-04
 24         6.1524944355e-04
 25         1.2579071253e-04
 26         2.1673480829e-05
 27        -1.3416050202e-03
 28        -5.7629771835e-04
 29         1.1081551342e-03
 30        -5.3512141940e-04
 31         3.4819070880e-03
 32        -1.9282543571e-04
 33         9.1693493218e-05
 34         1.0737269840e-05
 35         9.2006244466e-04
 36         2.6714711684e-03
 37        -1.6443891049e-04
 38        -3.4600278508e-04
 39         7.5299707190e-06
 40        -2.4500888785e-05
 41        -5.6358870677e-04
 42        -2.0586646085e-04
 43        -1.0332496562e-04
 44        -4.6170242485e-04
 45         6.5986340753e-04
 46        -3.2746580838e-05
 47        -2.7464855748e-04
 48        -8.6914341199e-06
 49        -1.1308069940e-04
 50         5.3371979000e-04
 51         3.9918455031e-05
 52        -1.5588112053e-05
 53        -2.2354632888e-05
 54         3.8433582984e-06
 55         4.2365407408e-05
 56         3.7282449299e-05
 57        -7.2268197261e-05
 58        -1.4426106523e-04
 59         1.6205827661e-04
 60         8.7244759127e-06
 61        -1.1526394534e-04
 62        -1.0261279317e-05
 63        -1.0892894348e-04
 64         2.2108397534e-04
 65         4.1205454995e-05
 66        -4.3108167847e-05
 67         1.5100797034e-06
 68         1.7473824122e-06
 69         1.7643908744e-06
 70        -4.2992932110e-07
 71        -1.2342942474e-03
 72         1.9177278680e-03
 73         6.9991358901e-04
 74        -1.4457094949e-03
 75        -1.0043640636e-03
 76        -1.3433853956e-03
 77         1.9280016247e-03
 78         4.3680312650e-04
 79         1.8038689984e-03
 80        -7.5755313260e-04
 81        -1.0942186564e-03
 82         2.3397975884e-03
 83         5.5784073205e-04
 84        -9.4970901912e-05
 85         1.8136001594e-03
 86         1.6741624450e-05
 87         3.9038660810e-04
 88         6.6570089626e-06
 89         6.9249488348e-05
 90        -7.5688017348e-06
 91         5.6247847889e-05
 92         3.6745836683e-04
 93         9.6805857775e-05
 94        -2.0608605985e-04
 95         9.9802445639e-06
 96        -4.3376199285e-04
 97         2.4025928048e-04
 98        -3.6896463537e-04
 99        -1.1521045532e-04
100         2.0144051604e-05
 Sym= A
 Ene=        -1.0388638432e+00
 Spin= Alpha
 Occup=         2.0000000000e+00
  1        -4.8175709752e-04
  2         6.3675511924e-03
  3         5.7171272074e-03
  4        -3.0615832417e-03
  5        -3.0522077554e-03
  6        -3.1932763406e-05
  7        -3.0566390478e-03
  8        -2.5790190788e-03
  9         1.0004932778e-03
 10        -6.1337315822e-04
 11        -1.9950838246e-04
 12        -2.2503185579e-04
 13         1.8350353183e-04
 14         9.2124343370e-04
 15         6.0276730122e-04
 16         1.6582680798e-02
 17        -1.3274632836e-02
 18        -1.6937332420e-04
 19        -1.0575872875e-02
 20         5.6103254073e-04
 21        -2.2152973216e-03
 22         1.0081886598e-02
 23        -5.8469332401e-04
 24        -4.4547015061e-04
 25        -1.1775497097e-04
 26        -2.5799159101e-04
 27        -1.6777181228e-03
 28         7.3868672509e-04
 29        -3.6339931695e-03
 30         3.6786275397e-02
 31         3.2828791435e-02
 32         2.0821832928e-02
 33        -2.0580516767e-02
 34         9.1912243057e-04
 35         2.0182906026e-02
 36         1.4007636842e-03
 37        -1.4985858522e-04
 38        -3.7926498056e-03
 39         2.3592539753e-04
 40        -5.7983836038e-04
 41        -1.0689147427e-03
 42        -9.0504197071e-03
 43        -1.4603478551e-02
 44         2.2490931999e-01
 45         9.4436969690e-02
 46         1.8422936366e-01
 47        -2.6177284944e-02
 48         1.2100347871e-02
 49         1.2053362279e-02
 50        -3.0802330083e-03
 51         1.0809909879e-03
 52        -1.3449947526e-02
 53         3.4608266599e-03
 54        -1.0443590422e-03
 55         3.0963822174e-02
 56        -1.4241232364e-02
 57        -9.1258238356e-03
 58         4.0221538606e-01
 59         3.6024137576e-01
 60        -1.5495203033e-01
 61         3.2236185439e-02
 62        -1.0637940609e-02
 63        -3.1627094377e-02
 64         7.2799470583e-03
 65        -2.5755597457e-03
 66        -5.2210926729e-03
 67         1.3822509638e-03
 68        -5.0310423113e-04
 69         1.2063317079e-02
 70        -5.2163647091e-03
 71         4.9194947915e-03
 72         2.9165410969e-03
 73        -6.4003389597e-04
 74        -4.8658356295e-04
 75         5.8773077145e-04
 76         9.7729512692e-04
 77         5.1459768030e-05
 78         2.6240206305e-05
 79         1.3631563258e-05
 80        -4.1034504560e-05
 81         1.8133574026e-03
 82         8.3564789506e-04
 83        -2.6574976474e-04
 84        -1.8842797929e-04
 85        -4.3738182551e-04
 86         3.9561438011e-02
 87        -3.6105254748e-03
 88         1.0188947317e-02
 89         5.8925055196e-03
 90         6.6489838467e-04
 91         7.2112051695e-03
 92         6.0390549523e-03
 93         9.5729303307e-04
 94        -1.9550097062e-03
 95        -1.5475599223e-05
 96         1.7995055587e-03
 97        -3.2978284187e-03
 98        -2.2630643020e-04
 99        -8.3666596299e-04
100         6.7418114474e-05
 Sym= A
 Ene=        -8.0920209248e-01
 Spin= Alpha
 Occup=         2.0000000000e+00
  1         1.0978256607e-02
  2        -1.8109367943e-01
  3        -7.4825162115e-02
  4         6.5495496017e-02
  5         1.3002611072e-02
  6        -4.7688489428e-03
  7         3.0325164654e-03
  8        -8.4561884407e-03
  9         1.0401909026e-03
 10         5.6263062734e-03
 11         8.2694790576e-04
 12         3.3755041170e-05
 13        -9.7817367886e-03
 14        -3.6248105177e-03
 15         1.9807487616e-02
 16        -2.9148195607e-01
 17        -2.0125296775e-01
 18        -4.6454254496e-04
 19         6.6013240351e-02
 20        -2.5906983619e-03
 21        -3.2508035062e-02
 22         2.0995505918e-02
 23         9.5681200984e-05
 24         9.9771414045e-03
 25         8.4562931210e-04
 26         8.5104377627e-04
 27        -2.6907954709e-03
 28        -1.1369697278e-02
 29         1.7104897127e-02
 30        -2.5436001438e-01
 31        -1.4197492961e-01
 32        -5.8196333287e-02
 33        -5.7601175895e-02
 34         4.5346764999e-03
 35        -3.0130209749e-03
 36        -2.4048053801e-02
 37         1.1738676586e-03
 38         6.9303556956e-03
 39         6.4086841233e-04
 40         8.7466184338e-04
 41         8.7488173200e-03
 42        -9.1658901667e-03
 43         2.4587401594e-03
 44        -6.3989586547e-02
 45        -5.1685548626e-02
 46         6.9003220945e-02
 47        -8.0451159316e-02
 48         5.2448521262e-03
 49         2.5085000388e-02
 50        -2.2473317773e-02
 51         1.3860381175e-03
 52         2.6479878002e-03
 53         6.5452145785e-04
 54         3.1596895157e-04
 55         1.3563476764e-02
 56         2.6459540949e-03
 57        -3.3493961366e-04
 58         7.5224743095e-02
 59         7.1630284979e-02
 60        -1.1399513827e-02
 61        -1.6147624752e-02
 62        -2.2527844828e-04
 63         1.6462453198e-03
 64        -6.6981648748e-03
 65         5.6609577084e-04
 66         1.8335043300e-04
 67         6.3788281865e-05
 68         1.7598542685e-04
 69         1.6090102629e-03
 70         1.5813819864e-03
 71        -6.6935231992e-02
 72        -3.3375140861e-03
 73         5.1030673542e-03
 74        -7.2314389014e-03
 75        -5.2872436889e-03
 76        -6.2858500333e-02
 77        -1.4973648447e-03
 78         4.0715492790e-03
 79         8.7449839163e-03
 80        -3.6978111919e-03
 81        -6.7558124879e-02
 82        -3.5937165098e-03
 83         4.7075207212e-03
 84         2.8643133648e-04
 85         9.0108336594e-03
 86        -1.8076325886e-02
 87         9.8267352876e-04
 88         2.2487824420e-05
 89        -3.3866823391e-03
 90         3.5960742800e-05
 91        -8.4520518495e-02
 92        -2.4896472010e-03
 93        -1.4408140831e-02
 94        -1.4471239892e-03
 95         4.6371909287e-04
 96        -1.0215224577e-01
 97        -1.2870024545e-02
 98        -7.1231490417e-03
 99         1.4282447635e-02
100        -3.2102878453e-05
 Sym= A
 Ene=        -7.1810780303e-01
 Spin= Alpha
 Occup=         2.0000000000e+00
  1         1.4024321672e-02
  2        -2.8725651041e-01
  3        -1.1938803379e-01
  4         1.9159809637e-02
  5        -1.0762608974e-02
  6        -4.7751091621e-03
  7        -1.7491001408e-02
  8        -8.4778186288e-03
  9         4.4096560158e-04
 10         1.4611994194e-03
 11         1.8826499649e-04
 12        -1.7948605941e-04
 13        -3.0866270130e-03
 14         2.2057815176e-03
 15         5.2895915887e-03
 16        -4.8309466206e-02
 17        -8.4603176240e-02
 18        -1.3892941463e-01
 19        -9.4945259127e-02
 20         6.9337488429e-03
 21        -9.4000271365e-02
 22        -9.1028477624e-03
 23         2.9098643042e-03
 24         3.8551938477e-03
 25         5.5132310979e-04
 26        -3.8206943686e-04
 27        -1.7127586085e-02
 28         3.0853911678e-03
 29        -1.3982120987e-02
 30         2.2821454294e-01
 31         1.6646694825e-01
 32        -5.9184821120e-03
 33        -5.4633754400e-02
 34         1.0531282535e-03
 35         3.6445128491e-02
 36        -4.0809485886e-02
 37         1.4295347950e-04
 38        -4.8192591612e-03
 39         1.4997924668e-04
 40        -3.3119640052e-04
 41        -1.0034270281e-02
 42        -4.9130555510e-03
 43        -3.0685335256e-03
 44         1.5157769250e-01
 45         6.1347647006e-02
 46        -1.0675456173e-01
 47         7.9082848620e-02
 48        -5.3966471989e-03
 49        -3.7334500761e-02
 50         7.8452888569e-03
 51        -1.7698889445e-03