Generated by Psi4
        SP                           RHF                       CC-PVDZ
Number of atoms                            I               11
Charge                                     I                0
Multiplicity                               I                1
Number of electrons                        I               38
Number of alpha electrons                  I               19
Number of beta electrons                   I               19
Number of basis functions                  I              100
Number of independent functions            I              100
Atomic numbers                             I   N=          11
           6           6           6           6           8           1
           1           1           1           1           1
Nuclear charges                            R   N=          11
  6.00000000e+00  6.00000000e+00  6.00000000e+00  6.00000000e+00  8.00000000e+00
  1.00000000e+00  1.00000000e+00  1.00000000e+00  1.00000000e+00  1.00000000e+00
  1.00000000e+00
Current cartesian coordinates              R   N=          33
  1.94728771e+00  2.60971758e+00 -1.76499782e-01 -8.66568722e-01  2.40743567e+00
 -1.48741444e-01 -2.09868845e+00  2.03178026e-01  1.90679938e-01 -8.48393015e-01
 -2.29212979e+00  7.02809133e-02  1.41969415e+00 -2.70895509e+00  9.60483684e-02
  2.73580867e+00  1.00265975e+00 -1.22224338e+00  2.66992656e+00  4.35951319e+00
 -9.89884280e-01  2.63904488e+00  2.41440896e+00  1.76795956e+00 -2.18212434e+00
 -3.90488441e+00 -1.97611481e-01 -4.17277563e+00  1.30356107e-01  3.18800232e-01
 -1.99899838e+00  4.12543609e+00 -4.36002548e-01
Integer atomic weights                     I   N=          11
          12          12          12          12          16           1
           1           1           1           1           1
Real atomic weights                        R   N=          11
  1.20000000e+01  1.20000000e+01  1.20000000e+01  1.20000000e+01  1.59949146e+01
  1.00782503e+00  1.00782503e+00  1.00782503e+00  1.00782503e+00  1.00782503e+00
  1.00782503e+00
Number of primitive shells                 I              140
Number of contracted shells                I               48
Pure/Cartesian d shells                    I                0
Pure/Cartesian f shells                    I                0
Highest angular momentum                   I                2
Largest degree of contraction              I                8
Shell types                                I   N=          48
           0           0           0           1           1          -2
           0           0           0           1           1          -2
           0           0           0           1           1          -2
           0           0           0           1           1          -2
           0           0           0           1           1          -2
           0           0           1           0           0           1
           0           0           1           0           0           1
           0           0           1           0           0           1
Number of primitives per shell             I   N=          48
           8           8           1           3           1           1
           8           8           1           3           1           1
           8           8           1           3           1           1
           8           8           1           3           1           1
           8           8           1           3           1           1
           3           1           1           3           1           1
           3           1           1           3           1           1
           3           1           1           3           1           1
Shell to atom map                          I   N=          48
           1           1           1           1           1           1
           2           2           2           2           2           2
           3           3           3           3           3           3
           4           4           4           4           4           4
           5           5           5           5           5           5
           6           6           6           7           7           7
           8           8           8           9           9           9
          10          10          10          11          11          11
Primitive exponents                        R   N=         140
  6.66500000e+03  1.00000000e+03  2.28000000e+02  6.47100000e+01  2.10600000e+01
  7.49500000e+00  2.79700000e+00  5.21500000e-01  6.66500000e+03  1.00000000e+03
  2.28000000e+02  6.47100000e+01  2.10600000e+01  7.49500000e+00  2.79700000e+00
  5.21500000e-01  1.59600000e-01  9.43900000e+00  2.00200000e+00  5.45600000e-01
  1.51700000e-01  5.50000000e-01  6.66500000e+03  1.00000000e+03  2.28000000e+02
  6.47100000e+01  2.10600000e+01  7.49500000e+00  2.79700000e+00  5.21500000e-01
  6.66500000e+03  1.00000000e+03  2.28000000e+02  6.47100000e+01  2.10600000e+01
  7.49500000e+00  2.79700000e+00  5.21500000e-01  1.59600000e-01  9.43900000e+00
  2.00200000e+00  5.45600000e-01  1.51700000e-01  5.50000000e-01  6.66500000e+03
  1.00000000e+03  2.28000000e+02  6.47100000e+01  2.10600000e+01  7.49500000e+00
  2.79700000e+00  5.21500000e-01  6.66500000e+03  1.00000000e+03  2.28000000e+02
  6.47100000e+01  2.10600000e+01  7.49500000e+00  2.79700000e+00  5.21500000e-01
  1.59600000e-01  9.43900000e+00  2.00200000e+00  5.45600000e-01  1.51700000e-01
  5.50000000e-01  6.66500000e+03  1.00000000e+03  2.28000000e+02  6.47100000e+01
  2.10600000e+01  7.49500000e+00  2.79700000e+00  5.21500000e-01  6.66500000e+03
  1.00000000e+03  2.28000000e+02  6.47100000e+01  2.10600000e+01  7.49500000e+00
  2.79700000e+00  5.21500000e-01  1.59600000e-01  9.43900000e+00  2.00200000e+00
  5.45600000e-01  1.51700000e-01  5.50000000e-01  1.17200000e+04  1.75900000e+03
  4.00800000e+02  1.13700000e+02  3.70300000e+01  1.32700000e+01  5.02500000e+00
  1.01300000e+00  1.17200000e+04  1.75900000e+03  4.00800000e+02  1.13700000e+02
  3.70300000e+01  1.32700000e+01  5.02500000e+00  1.01300000e+00  3.02300000e-01
  1.77000000e+01  3.85400000e+00  1.04600000e+00  2.75300000e-01  1.18500000e+00
  1.30100000e+01  1.96200000e+00  4.44600000e-01  1.22000000e-01  7.27000000e-01
  1.30100000e+01  1.96200000e+00  4.44600000e-01  1.22000000e-01  7.27000000e-01
  1.30100000e+01  1.96200000e+00  4.44600000e-01  1.22000000e-01  7.27000000e-01
  1.30100000e+01  1.96200000e+00  4.44600000e-01  1.22000000e-01  7.27000000e-01
  1.30100000e+01  1.96200000e+00  4.44600000e-01  1.22000000e-01  7.27000000e-01
  1.30100000e+01  1.96200000e+00  4.44600000e-01  1.22000000e-01  7.27000000e-01
Contraction coefficients                   R   N=         140
  6.91583963e-04  5.32579615e-03  2.70607210e-02  1.01656846e-01  2.74574824e-01
  4.48294319e-01  2.84902611e-01  1.51948592e-02 -2.93269653e-04 -2.31803547e-03
 -1.14997860e-02 -4.68267270e-02 -1.28466169e-01 -3.01266272e-01 -2.55630702e-01
  1.09379336e+00  1.00000000e+00  5.69792516e-02  3.13207212e-01  7.60376742e-01
  1.00000000e+00  1.00000000e+00  6.91583963e-04  5.32579615e-03  2.70607210e-02
  1.01656846e-01  2.74574824e-01  4.48294319e-01  2.84902611e-01  1.51948592e-02
 -2.93269653e-04 -2.31803547e-03 -1.14997860e-02 -4.68267270e-02 -1.28466169e-01
 -3.01266272e-01 -2.55630702e-01  1.09379336e+00  1.00000000e+00  5.69792516e-02
  3.13207212e-01  7.60376742e-01  1.00000000e+00  1.00000000e+00  6.91583963e-04
  5.32579615e-03  2.70607210e-02  1.01656846e-01  2.74574824e-01  4.48294319e-01
  2.84902611e-01  1.51948592e-02 -2.93269653e-04 -2.31803547e-03 -1.14997860e-02
 -4.68267270e-02 -1.28466169e-01 -3.01266272e-01 -2.55630702e-01  1.09379336e+00
  1.00000000e+00  5.69792516e-02  3.13207212e-01  7.60376742e-01  1.00000000e+00
  1.00000000e+00  6.91583963e-04  5.32579615e-03  2.70607210e-02  1.01656846e-01
  2.74574824e-01  4.48294319e-01  2.84902611e-01  1.51948592e-02 -2.93269653e-04
 -2.31803547e-03 -1.14997860e-02 -4.68267270e-02 -1.28466169e-01 -3.01266272e-01
 -2.55630702e-01  1.09379336e+00  1.00000000e+00  5.69792516e-02  3.13207212e-01
  7.60376742e-01  1.00000000e+00  1.00000000e+00  7.09645947e-04  5.46727229e-03
  2.78231186e-02  1.04747740e-01  2.82920846e-01  4.48495239e-01  2.70816885e-01
  1.54502916e-02 -3.14443412e-04 -2.48213768e-03 -1.23163554e-02 -5.05389173e-02
 -1.39384903e-01 -3.25077495e-01 -2.29848308e-01  1.09537935e+00  1.00000000e+00
  6.26791663e-02  3.33536566e-01  7.41239642e-01  1.00000000e+00  1.00000000e+00
  3.34987264e-02  2.34800801e-01  8.13682958e-01  1.00000000e+00  1.00000000e+00
  3.34987264e-02  2.34800801e-01  8.13682958e-01  1.00000000e+00  1.00000000e+00
  3.34987264e-02  2.34800801e-01  8.13682958e-01  1.00000000e+00  1.00000000e+00
  3.34987264e-02  2.34800801e-01  8.13682958e-01  1.00000000e+00  1.00000000e+00
  3.34987264e-02  2.34800801e-01  8.13682958e-01  1.00000000e+00  1.00000000e+00
  3.34987264e-02  2.34800801e-01  8.13682958e-01  1.00000000e+00  1.00000000e+00
Coordinates of each shell                  R   N=         144
  1.94728771e+00  2.60971758e+00 -1.76499782e-01  1.94728771e+00  2.60971758e+00
 -1.76499782e-01  1.94728771e+00  2.60971758e+00 -1.76499782e-01  1.94728771e+00
  2.60971758e+00 -1.76499782e-01  1.94728771e+00  2.60971758e+00 -1.76499782e-01
  1.94728771e+00  2.60971758e+00 -1.76499782e-01 -8.66568722e-01  2.40743567e+00
 -1.48741444e-01 -8.66568722e-01  2.40743567e+00 -1.48741444e-01 -8.66568722e-01
  2.40743567e+00 -1.48741444e-01 -8.66568722e-01  2.40743567e+00 -1.48741444e-01
 -8.66568722e-01  2.40743567e+00 -1.48741444e-01 -8.66568722e-01  2.40743567e+00
 -1.48741444e-01 -2.09868845e+00  2.03178026e-01  1.90679938e-01 -2.09868845e+00
  2.03178026e-01  1.90679938e-01 -2.09868845e+00  2.03178026e-01  1.90679938e-01
 -2.09868845e+00  2.03178026e-01  1.90679938e-01 -2.09868845e+00  2.03178026e-01
  1.90679938e-01 -2.09868845e+00  2.03178026e-01  1.90679938e-01 -8.48393015e-01
 -2.29212979e+00  7.02809133e-02 -8.48393015e-01 -2.29212979e+00  7.02809133e-02
 -8.48393015e-01 -2.29212979e+00  7.02809133e-02 -8.48393015e-01 -2.29212979e+00
  7.02809133e-02 -8.48393015e-01 -2.29212979e+00  7.02809133e-02 -8.48393015e-01
 -2.29212979e+00  7.02809133e-02  1.41969415e+00 -2.70895509e+00  9.60483684e-02
  1.41969415e+00 -2.70895509e+00  9.60483684e-02  1.41969415e+00 -2.70895509e+00
  9.60483684e-02  1.41969415e+00 -2.70895509e+00  9.60483684e-02  1.41969415e+00
 -2.70895509e+00  9.60483684e-02  1.41969415e+00 -2.70895509e+00  9.60483684e-02
  2.73580867e+00  1.00265975e+00 -1.22224338e+00  2.73580867e+00  1.00265975e+00
 -1.22224338e+00  2.73580867e+00  1.00265975e+00 -1.22224338e+00  2.66992656e+00
  4.35951319e+00 -9.89884280e-01  2.66992656e+00  4.35951319e+00 -9.89884280e-01
  2.66992656e+00  4.35951319e+00 -9.89884280e-01  2.63904488e+00  2.41440896e+00
  1.76795956e+00  2.63904488e+00  2.41440896e+00  1.76795956e+00  2.63904488e+00
  2.41440896e+00  1.76795956e+00 -2.18212434e+00 -3.90488441e+00 -1.97611481e-01
 -2.18212434e+00 -3.90488441e+00 -1.97611481e-01 -2.18212434e+00 -3.90488441e+00
 -1.97611481e-01 -4.17277563e+00  1.30356107e-01  3.18800232e-01 -4.17277563e+00
  1.30356107e-01  3.18800232e-01 -4.17277563e+00  1.30356107e-01  3.18800232e-01
 -1.99899838e+00  4.12543609e+00 -4.36002548e-01 -1.99899838e+00  4.12543609e+00
 -4.36002548e-01 -1.99899838e+00  4.12543609e+00 -4.36002548e-01
Total Energy                               R     -2.312382352682540e+02
Alpha Orbital Energies                     R   N=         100
 -1.91349658e+01 -1.02727409e+01 -1.02233126e+01 -1.01980677e+01 -1.01871687e+01
 -1.03930178e+00 -8.12571965e-01 -7.16702513e-01 -6.28466165e-01 -5.34448242e-01
 -4.97088519e-01 -4.40484281e-01 -4.32458726e-01 -4.24926480e-01 -3.85180436e-01
 -3.78724976e-01 -3.74853956e-01 -2.74592680e-01 -2.48160525e-01 -6.42835565e-02
  4.85371690e-02  6.49714064e-02  9.10400320e-02  1.05765187e-01  1.30255639e-01
  1.44981218e-01  1.60836041e-01  2.16850243e-01  2.63891568e-01  3.20621135e-01
  3.38981431e-01  4.34345623e-01  4.38899580e-01  4.50755495e-01  4.72027540e-01
  4.84611607e-01  5.06116786e-01  5.26926792e-01  5.66471222e-01  5.94985122e-01
  6.16805557e-01  6.26705005e-01  6.44045412e-01  6.51702488e-01  6.76697925e-01
  6.83538882e-01  7.04501240e-01  7.72244703e-01  8.09395314e-01  8.50093719e-01
  9.11515983e-01  9.17697793e-01  9.57325285e-01  1.02209657e+00  1.02947039e+00
  1.05680944e+00  1.08361097e+00  1.14052612e+00  1.18135021e+00  1.19244897e+00
  1.28799236e+00  1.36285920e+00  1.40002466e+00  1.47677633e+00  1.49217278e+00
  1.49936883e+00  1.54928770e+00  1.56365989e+00  1.61793209e+00  1.62905086e+00
  1.65722552e+00  1.66656647e+00  1.67010697e+00  1.69994830e+00  1.73150538e+00
  1.75462503e+00  1.78679670e+00  1.80022613e+00  1.85272340e+00  1.92606194e+00
  1.96718919e+00  1.98338265e+00  2.01460709e+00  2.06263080e+00  2.09771608e+00
  2.25719164e+00  2.31795758e+00  2.34661924e+00  2.40110977e+00  2.41956021e+00
  2.42680127e+00  2.48571039e+00  2.57114009e+00  2.64470909e+00  2.69921449e+00
  2.79380765e+00  2.98334042e+00  3.06654367e+00  3.41581856e+00  3.47232427e+00
Alpha MO coefficients                      R   N=       10000
 -7.44814572e-05 -1.54069492e-04  7.93364945e-05  6.47020249e-05  4.64264291e-05
  1.17602063e-05 -4.79158334e-05 -1.79308917e-04  1.53245903e-04  7.55097466e-05
  3.78103033e-05  3.43813025e-05  7.17126344e-05 -9.47019573e-05 -1.99314458e-04
 -3.54903524e-04  5.28555222e-03 -2.30270402e-05 -2.27496591e-05 -6.45347633e-05
 -9.10423536e-04 -2.14471210e-03  5.37953667e-04 -3.06797182e-05  4.01130790e-05
 -2.48908627e-05 -5.12854613e-05 -5.51419547e-05  2.07576854e-04  3.21789312e-04
 -3.73384492e-03  3.10038336e-05  2.70159044e-04 -7.03191015e-06 -4.39919578e-03
 -3.58573625e-03  3.15414621e-04  1.25900262e-04  6.19161470e-05  9.40327204e-05
 -4.02679795e-04  4.83958098e-04  4.56091239e-04  5.98020535e-04  5.25400836e-03
 -9.58659269e-05 -1.85951502e-04 -3.55257301e-05  6.56240422e-03  4.13105008e-04
  6.85348411e-05 -5.18780155e-06  2.68048023e-05  1.01128171e-04 -1.14576213e-03
  5.25892954e-04  1.00416317e+00  9.45975080e-03 -1.50511154e-02 -1.83566724e-03
  3.69053816e-04 -3.77091701e-05  3.49746090e-03 -8.42383917e-04  5.69699091e-05
 -1.79270974e-05  5.33758023e-07 -4.39154028e-06  6.72898598e-05  6.78864121e-06
 -1.20368648e-04 -1.40409342e-04  3.83222342e-05 -1.64896620e-05  2.86306379e-05
  1.22346457e-04  3.68279563e-04 -7.34319157e-05 -6.31133543e-05  4.72152017e-05
 -1.12067131e-04 -2.39545378e-04  6.73596295e-05  6.48545359e-05  5.88876995e-05
 -1.88110690e-04  8.53030255e-04 -7.62414187e-04  1.04615594e-04  3.01131328e-06
 -2.96056440e-04 -1.27875450e-03  1.76199937e-04  2.42877412e-04 -3.14244181e-06
 -1.80852262e-04  2.19532406e-04  3.77146369e-05  8.05172027e-05 -3.16935300e-05
 -3.74411261e-04 -5.02223975e-04  9.01755014e-04  2.85383139e-04  7.27720803e-05
  8.37239367e-09 -6.64341293e-04  1.56784644e-05  1.17840475e-05 -2.44406098e-05
 -8.17629171e-05  5.33311407e-07 -1.12924141e-04 -2.50944993e-05 -4.28782846e-04
 -6.25928047e-04  6.35638021e-03 -2.73018000e-04 -2.48052019e-05  5.56355734e-05
 -2.08469378e-03 -3.71484208e-03  6.52417364e-04 -3.84834968e-04 -2.11129194e-04
 -1.00071774e-04  2.88275942e-04  3.55729025e-04  1.60209354e-03 -2.45594087e-04
 -1.82406639e-03 -3.47008678e-04  7.49550037e-04  5.72464475e-05 -2.51846156e-03
 -5.90313816e-03  4.23092348e-04  1.02585942e-03  1.60153688e-05 -3.51918735e-05
  1.12315373e-03  8.65636226e-04  1.00593463e+00  1.52678561e-02 -1.07179045e-02
  7.30171994e-04 -5.16576745e-04 -1.26098416e-04  5.35474819e-03 -2.10528853e-03
 -4.08512952e-05 -1.62304197e-03  1.97472576e-04  2.27974297e-04  8.34588620e-04
 -1.77335144e-05  3.63187144e-04  9.02863220e-04 -5.89405687e-03  7.41861772e-04
 -2.11414419e-04 -6.65535888e-06  3.38710199e-03 -2.23078650e-04  6.28485863e-05
  5.66734635e-04 -1.05854786e-05 -2.45658098e-05 -7.22791250e-04  2.57999156e-04
 -1.18088881e-04 -5.53567452e-05  2.20352024e-05  3.97336727e-07 -8.65674455e-06
 -5.05899206e-05  3.78137946e-04 -5.00914598e-05 -2.23892011e-05  1.03411227e-05
 -6.44295223e-05  1.04278147e-05  1.08971205e-04  5.46103378e-05 -5.28606788e-05
 -1.69959540e-03  2.45929363e-03 -1.42904172e-03 -1.44801996e-03 -2.48777163e-04
 -5.57206124e-04 -4.82849237e-04  2.96892625e-05  2.59092667e-04 -3.21870644e-05
 -2.32428757e-05  5.93042504e-04  2.24400949e-04  9.88960390e-05 -3.56683937e-05
  2.97871180e-03 -3.86363180e-04  4.36498897e-03  7.19173466e-04  3.29266777e-05
  6.13961917e-05 -2.47849992e-03 -7.47018683e-04 -3.31178314e-04  8.08229110e-04
  5.61810942e-05  3.53871395e-05 -9.66917442e-04 -5.77271733e-05  1.00634538e+00
  1.61953134e-02 -2.04086781e-02 -5.03175825e-04  1.51823194e-04 -2.82909572e-05
 -2.32358954e-03  3.98772414e-03 -5.79177313e-04 -1.02148864e-03  1.42363295e-04
 -3.85302457e-04 -5.52847286e-04 -4.49187724e-04  1.34126268e-02 -1.21736102e-03
  4.89420946e-03 -7.16210372e-04 -1.08525647e-03  1.74645617e-04  2.72987847e-03
  2.76176550e-03 -2.92286683e-04  8.69085106e-04  1.43282436e-04  3.24637961e-04
  4.94072909e-04 -9.62724217e-04 -2.79948585e-04 -5.63319816e-04  1.20402870e-03
 -1.35508510e-05 -2.08359993e-04  4.20273743e-05 -5.21706612e-04  1.07087499e-03
 -7.32077857e-05 -3.18855941e-04 -1.11248319e-04 -1.20477131e-05  1.55635361e-04
  8.96563569e-06 -3.25566937e-05 -6.84389479e-05 -8.57263023e-05  1.19061470e-04
  1.93426897e-05  1.42708304e-05 -1.38778350e-04 -3.63007811e-04  4.13070323e-05
  1.24387144e-05 -2.76276775e-05  4.02658431e-06  8.11802418e-06  2.83263952e-05
 -4.25472670e-04  5.10612848e-04 -1.45852125e-04 -1.56498935e-05  6.43672327e-05
 -2.64660406e-04  1.87169326e-04  1.54742074e-04  8.21164124e-06  8.88030667e-05
 -4.72292372e-04  1.16532118e-03 -1.89995386e-04  3.98534820e-07  2.25426821e-05
 -9.96841905e-05  3.11174080e-04  4.57608777e-05 -7.74658778e-05 -1.66490507e-05
  1.86916627e-04  9.44908152e-04  1.66773415e-04 -2.66767360e-04  6.60770726e-07
 -2.45697521e-03  1.05871535e-03 -1.24725354e-03  1.79226228e-03 -3.00893788e-04
  9.90444851e-04  4.98757995e-04 -3.08700599e-04 -1.09670877e-04 -1.42673240e-04
  1.07265396e-04  9.56785321e-04  1.28938644e-04 -3.49968249e-04  3.00990934e-04
  1.23795764e-05  8.00607400e-05 -4.36045963e-05  8.95036460e-05  1.48835751e-02
  1.76370592e-03 -6.12912356e-03 -5.98552118e-04 -1.22982407e-03  1.96361680e-04
  7.59552629e-04  3.65883439e-03 -1.74208466e-04 -9.04790997e-04 -2.05915434e-04
 -3.66510621e-04 -6.25568760e-04  8.95017543e-04 -1.00646894e+00 -1.65326832e-02
  2.11412463e-02  2.90713474e-04 -2.52537932e-04  2.00337254e-04  5.24145903e-03
  2.72954545e-04 -1.05760259e-03  1.08200045e-03  1.76375735e-04  1.25128105e-04
 -4.30103859e-04 -5.78601856e-04  1.90120148e-03  7.51145166e-04 -5.66372077e-03
 -2.49415393e-04  6.79366086e-04  6.25537182e-05 -2.80051272e-04 -3.46438927e-03
  4.57691700e-05 -6.88668719e-04 -1.87917705e-04  9.74064403e-05 -5.34229910e-04
 -1.22465362e-03 -4.05009781e-05 -7.09958724e-05  7.05467771e-04 -8.49140966e-06
  5.92733566e-05  4.33655578e-05  1.45997522e-04  6.63661148e-04 -5.18454811e-05
  1.26273655e-04 -4.26749560e-05 -1.04961288e-05 -9.15967577e-05 -2.24596106e-04
  1.08265824e-04 -3.32953501e-04 -1.90887903e-05 -9.92455887e-05  4.66674542e-05
 -4.17119100e-05 -3.99474061e-04 -4.71674260e-05  4.73832761e-05  3.44905737e-05
  1.01625077e-04 -1.99984448e-04 -4.07245988e-05 -8.45357697e-05  1.36192389e-04
  3.06867154e-04 -9.66082004e-04 -6.98636094e-05  2.03492285e-04 -3.39148577e-05
  2.43529879e-03 -8.23007956e-04  2.17430094e-03 -7.40006780e-05 -5.14579646e-05
 -1.09322512e-04 -8.12199671e-04 -2.97959389e-04  4.33828999e-05 -5.52708186e-05
  1.00710058e+00  1.76745464e-02 -1.92751858e-02  4.37234105e-04  2.08856025e-05
  1.34826623e-04  2.85157663e-03  4.60355301e-04 -3.57378734e-04  3.00148247e-04
 -5.61181877e-05 -1.63477461e-04 -5.92666949e-04  1.37618519e-04 -3.13748161e-03
 -2.27810820e-04  1.34442750e-03 -4.91364481e-04  4.71274496e-05 -9.23036268e-06
  4.04903857e-03  2.50256607e-03 -3.65618656e-04  6.47326143e-04  6.35454317e-05
 -1.97676707e-05 -1.33815784e-03 -3.51544104e-04  2.71634039e-04 -7.08090306e-04
  3.89616537e-03 -2.52647126e-04  2.79849333e-05 -6.49745788e-06  1.37696797e-03
  2.63216842e-03 -4.07678705e-04 -3.77722348e-04  2.89516015e-05 -1.22480312e-04
 -3.79753744e-04 -2.07553050e-04 -1.32024341e-04 -5.10190786e-04  3.07356110e-04
 -7.84034759e-05 -2.70112363e-04 -4.49633647e-05 -2.22705003e-04  4.71107214e-04
  1.45567811e-04 -4.63823491e-05 -2.93115758e-05 -3.60641649e-05  3.68689426e-05
  4.98429547e-05 -1.07049152e-04 -2.07598458e-04  3.65532716e-04  3.29621204e-05
 -1.12741396e-04 -2.41908344e-05 -2.54312063e-04  2.47113710e-04  6.89359309e-05
 -5.67225665e-05  3.95732728e-07  7.87760464e-06  8.46254759e-07 -1.66477041e-06
 -1.08908052e-03  2.14310953e-03  5.74468256e-04 -1.48968215e-03 -9.47322536e-04
 -1.57355492e-03  1.77651381e-03  6.42258310e-04  1.80759236e-03 -8.20481008e-04
 -1.17182787e-03  2.37206957e-03  4.99186007e-04 -2.25030502e-04  1.87187558e-03
  2.07541878e-05  3.84390085e-04  1.36177530e-05  5.91865533e-05 -1.74883698e-05
  3.22750978e-05  5.44078399e-04  5.07714906e-05 -1.89967123e-04  3.11549784e-05
 -3.83849665e-04  6.78009042e-05 -3.99616553e-04 -1.85596629e-04  2.80018470e-05
 -4.95242418e-04  8.28416253e-03  4.81430499e-03 -3.39674917e-03 -3.97043015e-03
 -1.04411887e-04 -2.47465061e-03 -1.17388460e-03  8.05187720e-04 -7.18750877e-04
 -9.78710936e-05 -1.46967978e-04  8.85929533e-05  8.58406135e-04  4.77178687e-04
  1.69214509e-02 -1.16889058e-02  4.97660731e-04 -1.06447314e-02  1.18695558e-03
 -1.66280950e-03  9.23674255e-03 -1.34855950e-03 -4.76453542e-04 -2.21510702e-04
 -4.91336019e-04 -1.45289748e-03  7.25324712e-04 -3.71260087e-03  3.55944586e-02
  3.11942853e-02  2.09030434e-02 -1.90205307e-02 -1.47190786e-03  1.94812689e-02
  2.24833825e-03 -2.13946584e-03 -3.68051939e-03 -6.17317763e-04  2.04093467e-05
 -1.67581082e-04 -9.00325382e-03 -1.47518881e-02  2.24093212e-01  9.49302958e-02
  1.84078080e-01 -2.57463587e-02  2.06967950e-03  1.27107653e-02 -1.96512878e-03
  8.94895709e-04 -1.39086000e-02 -1.71726701e-04 -1.52752439e-03  3.12112913e-02
 -1.39546130e-02 -9.20655415e-03  4.02154463e-01  3.60790028e-01 -1.54846311e-01
  3.19034364e-02 -2.37333572e-03 -3.17008089e-02  7.57908482e-03 -1.22513544e-03
 -5.40044321e-03  7.77347225e-05 -7.81465361e-04  1.19902625e-02 -5.10316132e-03
  7.82570144e-03  4.01794487e-03 -7.08701118e-04 -3.69939639e-04  7.20977867e-04
  1.16315749e-03 -5.92737374e-04  1.03408813e-05 -5.82622499e-05 -8.02286889e-05
  2.89486883e-03  6.86952287e-04 -3.35278242e-04 -3.65010371e-04 -5.64506207e-04
  4.07937905e-02 -3.08640957e-03  1.00348854e-02  6.18569047e-03  1.11627527e-03
  7.18998089e-03  5.93471301e-03  1.07440522e-03 -1.82783505e-03 -9.76626568e-05
  1.88490772e-03 -2.95719363e-03 -1.67276645e-04 -8.41345321e-04  1.52416351e-04
  1.17034905e-02 -1.82164387e-01 -7.35268758e-02  6.78145614e-02  1.39467338e-02
 -3.63113038e-03  1.65059176e-03 -8.33865592e-03  2.28606204e-03  5.92652841e-03
  4.10515386e-04 -1.48658440e-04 -1.00776705e-02 -3.07289639e-03  2.01404811e-02
 -2.89549681e-01 -2.04475751e-01 -6.06454510e-03  7.24959765e-02 -9.98160647e-03
 -3.37518452e-02  2.53438357e-02 -4.21216306e-03  1.00058995e-02  1.32366040e-03
  2.01135247e-03 -2.22689737e-03 -9.68606238e-03  1.71447571e-02 -2.52948812e-01
 -1.37852057e-01 -5.99982187e-02 -5.79281450e-02  1.68549409e-02 -1.58327177e-03
 -2.16596170e-02  4.18428370e-03  6.84083985e-03  1.76339104e-03  2.27364773e-03
  8.71203148e-03 -8.56307655e-03  2.59711499e-03 -6.33481595e-02 -5.11962313e-02
  7.15689908e-02 -8.00891378e-02  2.41014192e-04  2.28085781e-02 -2.32885443e-02
 -1.60134884e-03  2.73821282e-03  3.56377944e-04 -4.28964400e-04  1.32119956e-02
  3.12557034e-03 -3.80856093e-04  7.64671742e-02  7.40510656e-02 -1.25696471e-02
 -1.63225662e-02  1.71012881e-04  8.88884173e-04 -7.14750596e-03  5.97841381e-04
  1.54849067e-04 -4.84321259e-06  1.27237886e-06  1.74874523e-03  1.55161458e-03
 -6.93095902e-02 -2.03597766e-03  4.60628523e-03 -7.98075229e-03 -5.36541455e-03
 -6.07532349e-02 -1.17620869e-03  5.05279413e-03  8.15682250e-03 -3.56765169e-03
 -7.00725436e-02 -3.23940036e-03  4.39132028e-03 -1.81628085e-04  9.48243248e-03
 -1.83135257e-02 -3.04602373e-04  8.08026250e-05 -3.43772875e-03 -1.57292361e-04
 -8.02597436e-02 -1.87532423e-03 -1.37588060e-02 -2.10321107e-03  1.15249072e-03
 -9.72952806e-02 -1.35217403e-02 -6.91827198e-03  1.35010296e-02 -2.14164572e-03
  1.49170896e-02 -2.83568050e-01 -1.19699565e-01  1.73909318e-02 -8.11005414e-03
 -2.08387106e-03 -1.59382770e-02 -6.76969724e-03 -6.56009684e-04  1.45337869e-03
 -2.13630989e-04 -1.42362576e-04 -2.73386673e-03  2.36544687e-03  5.20911845e-03
 -4.82283432e-02 -8.55650048e-02 -1.38030529e-01 -8.90820549e-02  1.05252922e-02
 -8.85775434e-02 -6.47290204e-03  1.59236782e-03  3.80462233e-03 -5.28567269e-04
 -1.22596394e-03 -1.79520516e-02  4.49366458e-03 -1.36947297e-02  2.28376129e-01
  1.67511834e-01 -5.99644426e-03 -5.98400866e-02 -6.37868162e-03  3.35988106e-02
 -3.47789044e-02 -1.90641685e-03 -4.39523402e-03 -1.50040172e-04  5.52147716e-04
 -9.84318624e-03 -6.05766041e-03 -3.26254395e-03  1.58259250e-01  7.17291038e-02
 -1.10350765e-01  7.43427793e-02  1.26234636e-03 -3.89836507e-02  9.66530518e-03
 -1.16817410e-03 -1.71951198e-03 -3.35109677e-04  3.61319953e-04 -9.46189116e-03
 -6.09292031e-03 -2.30005613e-04 -8.34436631e-02 -8.37447902e-02 -2.15510888e-02
  6.45816857e-03  1.52877810e-03 -2.14056759e-02  1.41263271e-03  3.14835153e-04
 -9.39104116e-04  4.81997974e-05  3.33683300e-04  1.23031493e-03 -1.96310655e-03
 -1.23447456e-01 -1.74180519e-02  6.38502800e-03 -1.31637521e-02 -8.33410850e-03
 -1.34022611e-01 -1.65684140e-02  6.37783040e-03  1.53927334e-02 -7.19229436e-03
 -1.29903880e-01 -1.61314613e-02  5.69668042e-03 -2.04998364e-03  1.64294493e-02
  7.52366218e-02  3.34931557e-03  3.64182079e-03  9.05517793e-03  1.28499189e-03
  1.15903039e-01  2.20735061e-02  1.48344712e-02 -8.22029702e-04 -1.00230514e-03
 -2.67785284e-02 -1.54136253e-02 -3.90548186e-03  5.22540240e-04 -2.41305897e-04
  5.93747436e-03 -1.77795705e-01 -9.66161411e-02 -7.56429559e-02 -2.74330936e-03
 -2.52258702e-03 -3.87712613e-02 -5.91184719e-03  5.73839238e-03 -5.04653872e-03
 -5.79348812e-04 -2.28217519e-04  7.57001205e-03  7.59002040e-04 -5.44295043e-03
  2.12922707e-01  1.02662944e-01 -1.41382804e-01 -1.41623139e-02  6.17662054e-03
 -4.29830232e-02  3.85353904e-04 -6.83953768e-04  2.94074343e-03 -1.61752905e-03
 -1.02245828e-03 -5.68918119e-03  4.07671593e-03 -1.32162513e-03  3.04485273e-03
  1.29150308e-02  7.95426885e-03  2.46951538e-01 -1.28704979e-02  3.46959750e-03
  7.53472215e-02 -3.39652644e-03  9.87188087e-04 -5.05146846e-04 -4.38710440e-03
  1.24351893e-03  1.12593738e-02  2.64376934e-03 -2.31137224e-01 -1.51000689e-01
  1.54792760e-01 -2.50909181e-02  3.54810329e-03  4.77625639e-02 -1.91611090e-02
  5.59172582e-05 -1.16839333e-03  8.61053977e-04 -7.61244232e-04  5.64720212e-03
  1.21129309e-03  1.07972849e-03  1.22178539e-01  1.41740866e-01  5.12082135e-02
 -1.04720695e-02  2.26663827e-03  3.94893305e-02 -6.53745118e-03  1.67659063e-03
  2.53566811e-03 -1.56843839e-04 -6.76745899e-05 -2.24731498e-03  5.72425495e-04
 -1.00930974e-01 -7.84136705e-03  3.11994636e-03 -1.02707334e-02 -5.75446653e-03
 -1.06949903e-01 -1.64704923e-02  2.46004468e-03  1.07963763e-02 -5.29398754e-03
 -1.07183547e-01 -2.03409149e-02  2.98193997e-03 -1.11191172e-03  1.13979853e-02
 -1.57824482e-01 -2.87409524e-02 -7.77613221e-03 -1.39961496e-02 -2.16562671e-03
 -8.65748999e-03 -1.93927346e-03 -7.01658759e-04  4.95586141e-03 -2.06062795e-04
  1.49406872e-01  2.57241471e-02  6.99023674e-03 -1.50761214e-02  2.69670503e-03
  1.54182080e-03 -3.92012005e-02 -3.22793445e-02 -1.08608050e-01  9.15914310e-02
 -1.09571121e-02 -2.98226762e-02  3.86393564e-02 -7.84964664e-03 -4.94147644e-03
  1.16143831e-03 -1.68086820e-03  9.30393433e-03 -6.53447801e-03 -2.81512065e-03
  1.42882836e-01  1.07599785e-01 -1.63739271e-03  2.22260083e-01 -3.69459561e-02
  2.61674660e-02  6.54913892e-02 -9.87992205e-03  3.74497831e-03  1.78348389e-03
  1.36493326e-03  1.47982639e-03 -6.02519364e-03  3.01264171e-03 -1.53205468e-01
 -1.11864707e-01 -1.97261992e-02  1.39431864e-03 -8.42192926e-03 -2.40020802e-02
  2.74562832e-02 -7.44075225e-03 -3.50726219e-03  2.79149391e-04 -7.88546002e-04
 -1.32582673e-02  1.05231675e-03  7.44377918e-04  1.58230902e-01  1.19805363e-01
 -5.97050225e-02 -2.38791720e-01 -2.54156525e-02 -4.65828736e-02 -5.27445427e-02
 -4.43641838e-03  5.20047767e-03  7.88483028e-04 -9.69374250e-05 -4.37704518e-04
  9.40841536e-04  4.62042482e-04 -8.69476979e-02 -1.22544871e-01 -1.43797130e-01
 -1.11267333e-01 -1.00526774e-02 -8.42124886e-02 -6.14382744e-02 -5.76957004e-03
 -3.54296994e-03  1.22670426e-03  3.95715740e-04  9.14432169e-03  6.69849968e-03
 -1.03774501e-01 -3.49401394e-02  1.55702164e-03 -4.12857813e-03 -5.75566111e-03
  5.26170278e-03 -4.22006407e-03 -3.09894910e-03  1.97528353e-03  9.51481860e-05
 -6.11673470e-02 -1.79548731e-02 -6.94621591e-04  2.40749494e-03  5.62822410e-03
  2.30078312e-01  6.03790049e-02  1.16325759e-02  1.27692828e-02  2.46979966e-03
 -8.12795349e-02 -2.99606187e-02 -8.38516495e-03 -1.05387475e-03  3.95424348e-04
  2.18258323e-01  6.59402707e-02  1.09460829e-02 -1.22259572e-02  2.08264330e-03
  2.50133805e-03 -5.05786804e-02 -4.39011079e-02 -1.51407586e-01 -1.00320554e-01
  1.03844119e-02 -3.67834774e-02 -4.23979981e-02 -1.46681429e-03 -5.26003054e-03
 -5.33659088e-04  2.34257090e-03  7.49011133e-03  4.29909321e-03  7.28735086e-04
  8.33302045e-02  5.83389148e-02  1.39906552e-01 -1.16856464e-01  7.30978691e-03
  7.80617030e-02 -3.50920035e-02  3.85366015e-04  1.48699023e-03  2.08723238e-03
  6.87184845e-04 -9.63249105e-03 -1.08905974e-02  5.59442529e-03 -7.53558898e-02