Generated by Psi4
        SP                           RHF                       CC-PVDZ
Number of atoms                            I               11
Charge                                     I                0
Multiplicity                               I                1
Number of electrons                        I               38
Number of alpha electrons                  I               19
Number of beta electrons                   I               19
Number of basis functions                  I              100
Number of independent functions            I              100
Atomic numbers                             I   N=          11
           6           6           6           6           8           1
           1           1           1           1           1
Nuclear charges                            R   N=          11
  6.00000000e+00  6.00000000e+00  6.00000000e+00  6.00000000e+00  8.00000000e+00
  1.00000000e+00  1.00000000e+00  1.00000000e+00  1.00000000e+00  1.00000000e+00
  1.00000000e+00
Current cartesian coordinates              R   N=          33
  1.80079744e+00  2.45272683e+00 -6.85401393e-02 -8.96850248e-01  2.29794633e+00
 -7.81115266e-02 -2.16801765e+00  5.34118827e-02  4.21461631e-01 -7.91023280e-01
 -2.22066235e+00  7.22310778e-02  1.57334139e+00 -2.31697478e+00 -2.23681628e-01
  2.19523499e+00  1.20911218e-01 -7.29919603e-01  2.65056189e+00  4.13515623e+00
 -9.29876117e-01  2.75408201e+00  1.89279483e+00  1.69140203e+00 -1.87205258e+00
 -3.98716278e+00 -2.24995327e-01 -4.22774424e+00 -3.67094775e-02  4.36455342e-01
 -2.00050259e+00  3.88670963e+00 -8.25234819e-01
Integer atomic weights                     I   N=          11
          12          12          12          12          16           1
           1           1           1           1           1
Real atomic weights                        R   N=          11
  1.20000000e+01  1.20000000e+01  1.20000000e+01  1.20000000e+01  1.59949146e+01
  1.00782503e+00  1.00782503e+00  1.00782503e+00  1.00782503e+00  1.00782503e+00
  1.00782503e+00
Number of primitive shells                 I              140
Number of contracted shells                I               48
Pure/Cartesian d shells                    I                0
Pure/Cartesian f shells                    I                0
Highest angular momentum                   I                2
Largest degree of contraction              I                8
Shell types                                I   N=          48
           0           0           0           1           1          -2
           0           0           0           1           1          -2
           0           0           0           1           1          -2
           0           0           0           1           1          -2
           0           0           0           1           1          -2
           0           0           1           0           0           1
           0           0           1           0           0           1
           0           0           1           0           0           1
Number of primitives per shell             I   N=          48
           8           8           1           3           1           1
           8           8           1           3           1           1
           8           8           1           3           1           1
           8           8           1           3           1           1
           8           8           1           3           1           1
           3           1           1           3           1           1
           3           1           1           3           1           1
           3           1           1           3           1           1
Shell to atom map                          I   N=          48
           1           1           1           1           1           1
           2           2           2           2           2           2
           3           3           3           3           3           3
           4           4           4           4           4           4
           5           5           5           5           5           5
           6           6           6           7           7           7
           8           8           8           9           9           9
          10          10          10          11          11          11
Primitive exponents                        R   N=         140
  6.66500000e+03  1.00000000e+03  2.28000000e+02  6.47100000e+01  2.10600000e+01
  7.49500000e+00  2.79700000e+00  5.21500000e-01  6.66500000e+03  1.00000000e+03
  2.28000000e+02  6.47100000e+01  2.10600000e+01  7.49500000e+00  2.79700000e+00
  5.21500000e-01  1.59600000e-01  9.43900000e+00  2.00200000e+00  5.45600000e-01
  1.51700000e-01  5.50000000e-01  6.66500000e+03  1.00000000e+03  2.28000000e+02
  6.47100000e+01  2.10600000e+01  7.49500000e+00  2.79700000e+00  5.21500000e-01
  6.66500000e+03  1.00000000e+03  2.28000000e+02  6.47100000e+01  2.10600000e+01
  7.49500000e+00  2.79700000e+00  5.21500000e-01  1.59600000e-01  9.43900000e+00
  2.00200000e+00  5.45600000e-01  1.51700000e-01  5.50000000e-01  6.66500000e+03
  1.00000000e+03  2.28000000e+02  6.47100000e+01  2.10600000e+01  7.49500000e+00
  2.79700000e+00  5.21500000e-01  6.66500000e+03  1.00000000e+03  2.28000000e+02
  6.47100000e+01  2.10600000e+01  7.49500000e+00  2.79700000e+00  5.21500000e-01
  1.59600000e-01  9.43900000e+00  2.00200000e+00  5.45600000e-01  1.51700000e-01
  5.50000000e-01  6.66500000e+03  1.00000000e+03  2.28000000e+02  6.47100000e+01
  2.10600000e+01  7.49500000e+00  2.79700000e+00  5.21500000e-01  6.66500000e+03
  1.00000000e+03  2.28000000e+02  6.47100000e+01  2.10600000e+01  7.49500000e+00
  2.79700000e+00  5.21500000e-01  1.59600000e-01  9.43900000e+00  2.00200000e+00
  5.45600000e-01  1.51700000e-01  5.50000000e-01  1.17200000e+04  1.75900000e+03
  4.00800000e+02  1.13700000e+02  3.70300000e+01  1.32700000e+01  5.02500000e+00
  1.01300000e+00  1.17200000e+04  1.75900000e+03  4.00800000e+02  1.13700000e+02
  3.70300000e+01  1.32700000e+01  5.02500000e+00  1.01300000e+00  3.02300000e-01
  1.77000000e+01  3.85400000e+00  1.04600000e+00  2.75300000e-01  1.18500000e+00
  1.30100000e+01  1.96200000e+00  4.44600000e-01  1.22000000e-01  7.27000000e-01
  1.30100000e+01  1.96200000e+00  4.44600000e-01  1.22000000e-01  7.27000000e-01
  1.30100000e+01  1.96200000e+00  4.44600000e-01  1.22000000e-01  7.27000000e-01
  1.30100000e+01  1.96200000e+00  4.44600000e-01  1.22000000e-01  7.27000000e-01
  1.30100000e+01  1.96200000e+00  4.44600000e-01  1.22000000e-01  7.27000000e-01
  1.30100000e+01  1.96200000e+00  4.44600000e-01  1.22000000e-01  7.27000000e-01
Contraction coefficients                   R   N=         140
  6.91583963e-04  5.32579615e-03  2.70607210e-02  1.01656846e-01  2.74574824e-01
  4.48294319e-01  2.84902611e-01  1.51948592e-02 -2.93269653e-04 -2.31803547e-03
 -1.14997860e-02 -4.68267270e-02 -1.28466169e-01 -3.01266272e-01 -2.55630702e-01
  1.09379336e+00  1.00000000e+00  5.69792516e-02  3.13207212e-01  7.60376742e-01
  1.00000000e+00  1.00000000e+00  6.91583963e-04  5.32579615e-03  2.70607210e-02
  1.01656846e-01  2.74574824e-01  4.48294319e-01  2.84902611e-01  1.51948592e-02
 -2.93269653e-04 -2.31803547e-03 -1.14997860e-02 -4.68267270e-02 -1.28466169e-01
 -3.01266272e-01 -2.55630702e-01  1.09379336e+00  1.00000000e+00  5.69792516e-02
  3.13207212e-01  7.60376742e-01  1.00000000e+00  1.00000000e+00  6.91583963e-04
  5.32579615e-03  2.70607210e-02  1.01656846e-01  2.74574824e-01  4.48294319e-01
  2.84902611e-01  1.51948592e-02 -2.93269653e-04 -2.31803547e-03 -1.14997860e-02
 -4.68267270e-02 -1.28466169e-01 -3.01266272e-01 -2.55630702e-01  1.09379336e+00
  1.00000000e+00  5.69792516e-02  3.13207212e-01  7.60376742e-01  1.00000000e+00
  1.00000000e+00  6.91583963e-04  5.32579615e-03  2.70607210e-02  1.01656846e-01
  2.74574824e-01  4.48294319e-01  2.84902611e-01  1.51948592e-02 -2.93269653e-04
 -2.31803547e-03 -1.14997860e-02 -4.68267270e-02 -1.28466169e-01 -3.01266272e-01
 -2.55630702e-01  1.09379336e+00  1.00000000e+00  5.69792516e-02  3.13207212e-01
  7.60376742e-01  1.00000000e+00  1.00000000e+00  7.09645947e-04  5.46727229e-03
  2.78231186e-02  1.04747740e-01  2.82920846e-01  4.48495239e-01  2.70816885e-01
  1.54502916e-02 -3.14443412e-04 -2.48213768e-03 -1.23163554e-02 -5.05389173e-02
 -1.39384903e-01 -3.25077495e-01 -2.29848308e-01  1.09537935e+00  1.00000000e+00
  6.26791663e-02  3.33536566e-01  7.41239642e-01  1.00000000e+00  1.00000000e+00
  3.34987264e-02  2.34800801e-01  8.13682958e-01  1.00000000e+00  1.00000000e+00
  3.34987264e-02  2.34800801e-01  8.13682958e-01  1.00000000e+00  1.00000000e+00
  3.34987264e-02  2.34800801e-01  8.13682958e-01  1.00000000e+00  1.00000000e+00
  3.34987264e-02  2.34800801e-01  8.13682958e-01  1.00000000e+00  1.00000000e+00
  3.34987264e-02  2.34800801e-01  8.13682958e-01  1.00000000e+00  1.00000000e+00
  3.34987264e-02  2.34800801e-01  8.13682958e-01  1.00000000e+00  1.00000000e+00
Coordinates of each shell                  R   N=         144
  1.80079744e+00  2.45272683e+00 -6.85401393e-02  1.80079744e+00  2.45272683e+00
 -6.85401393e-02  1.80079744e+00  2.45272683e+00 -6.85401393e-02  1.80079744e+00
  2.45272683e+00 -6.85401393e-02  1.80079744e+00  2.45272683e+00 -6.85401393e-02
  1.80079744e+00  2.45272683e+00 -6.85401393e-02 -8.96850248e-01  2.29794633e+00
 -7.81115266e-02 -8.96850248e-01  2.29794633e+00 -7.81115266e-02 -8.96850248e-01
  2.29794633e+00 -7.81115266e-02 -8.96850248e-01  2.29794633e+00 -7.81115266e-02
 -8.96850248e-01  2.29794633e+00 -7.81115266e-02 -8.96850248e-01  2.29794633e+00
 -7.81115266e-02 -2.16801765e+00  5.34118827e-02  4.21461631e-01 -2.16801765e+00
  5.34118827e-02  4.21461631e-01 -2.16801765e+00  5.34118827e-02  4.21461631e-01
 -2.16801765e+00  5.34118827e-02  4.21461631e-01 -2.16801765e+00  5.34118827e-02
  4.21461631e-01 -2.16801765e+00  5.34118827e-02  4.21461631e-01 -7.91023280e-01
 -2.22066235e+00  7.22310778e-02 -7.91023280e-01 -2.22066235e+00  7.22310778e-02
 -7.91023280e-01 -2.22066235e+00  7.22310778e-02 -7.91023280e-01 -2.22066235e+00
  7.22310778e-02 -7.91023280e-01 -2.22066235e+00  7.22310778e-02 -7.91023280e-01
 -2.22066235e+00  7.22310778e-02  1.57334139e+00 -2.31697478e+00 -2.23681628e-01
  1.57334139e+00 -2.31697478e+00 -2.23681628e-01  1.57334139e+00 -2.31697478e+00
 -2.23681628e-01  1.57334139e+00 -2.31697478e+00 -2.23681628e-01  1.57334139e+00
 -2.31697478e+00 -2.23681628e-01  1.57334139e+00 -2.31697478e+00 -2.23681628e-01
  2.19523499e+00  1.20911218e-01 -7.29919603e-01  2.19523499e+00  1.20911218e-01
 -7.29919603e-01  2.19523499e+00  1.20911218e-01 -7.29919603e-01  2.65056189e+00
  4.13515623e+00 -9.29876117e-01  2.65056189e+00  4.13515623e+00 -9.29876117e-01
  2.65056189e+00  4.13515623e+00 -9.29876117e-01  2.75408201e+00  1.89279483e+00
  1.69140203e+00  2.75408201e+00  1.89279483e+00  1.69140203e+00  2.75408201e+00
  1.89279483e+00  1.69140203e+00 -1.87205258e+00 -3.98716278e+00 -2.24995327e-01
 -1.87205258e+00 -3.98716278e+00 -2.24995327e-01 -1.87205258e+00 -3.98716278e+00
 -2.24995327e-01 -4.22774424e+00 -3.67094775e-02  4.36455342e-01 -4.22774424e+00
 -3.67094775e-02  4.36455342e-01 -4.22774424e+00 -3.67094775e-02  4.36455342e-01
 -2.00050259e+00  3.88670963e+00 -8.25234819e-01 -2.00050259e+00  3.88670963e+00
 -8.25234819e-01 -2.00050259e+00  3.88670963e+00 -8.25234819e-01
Total Energy                               R     -2.312004567965285e+02
Alpha Orbital Energies                     R   N=         100
 -1.91470976e+01 -1.02702932e+01 -1.02269534e+01 -1.01902029e+01 -1.01783354e+01
 -1.04727430e+00 -8.14799084e-01 -7.22694374e-01 -6.16915925e-01 -5.64313966e-01
 -5.04668822e-01 -4.55929930e-01 -4.41652743e-01 -4.11042745e-01 -3.97452308e-01
 -3.82626511e-01 -3.42635686e-01 -2.82897953e-01 -2.26577348e-01 -5.98409263e-02
  3.51248436e-02  6.44466584e-02  9.46332058e-02  1.11387422e-01  1.29395432e-01
  1.51392532e-01  1.82058944e-01  2.35101769e-01  2.75050850e-01  3.16013407e-01
  3.29801833e-01  4.18588082e-01  4.51180386e-01  4.58121728e-01  4.70605323e-01
  4.89518181e-01  5.12847091e-01  5.22957540e-01  5.51481368e-01  5.71160776e-01
  6.00161511e-01  6.22828980e-01  6.32440447e-01  6.43301587e-01  6.77810855e-01
  7.03032189e-01  7.06802947e-01  7.66658395e-01  7.90431304e-01  8.65800060e-01
  8.94833185e-01  9.38415573e-01  9.69811757e-01  1.02064960e+00  1.05893120e+00
  1.09908292e+00  1.10077722e+00  1.13761364e+00  1.19815931e+00  1.25668325e+00
  1.30128435e+00  1.32544579e+00  1.40944243e+00  1.47825972e+00  1.49369586e+00
  1.52547904e+00  1.54740732e+00  1.55749729e+00  1.58080806e+00  1.61063594e+00
  1.64602658e+00  1.64946221e+00  1.68823427e+00  1.71486883e+00  1.75640215e+00
  1.77599809e+00  1.79594730e+00  1.82672368e+00  1.86481672e+00  1.88493033e+00
  1.94490285e+00  1.97298202e+00  2.03504128e+00  2.03757995e+00  2.12876948e+00
  2.17833032e+00  2.22913379e+00  2.35020859e+00  2.35841982e+00  2.39566515e+00
  2.45825259e+00  2.49337243e+00  2.63873624e+00  2.67477996e+00  2.79329661e+00
  2.95187692e+00  3.02111163e+00  3.25683325e+00  3.41636136e+00  3.48816381e+00
Alpha MO coefficients                      R   N=       10000
 -4.73032890e-05 -9.45034179e-05 -2.39274113e-04  8.37089339e-05  3.30354272e-05
 -3.95571865e-05 -2.42933303e-04 -9.78884599e-05  4.52397580e-04  2.46774001e-05
  7.71000724e-05 -7.66593788e-06  4.99338798e-05 -1.41770722e-04 -8.24241243e-05
 -1.51765102e-04  3.71620180e-03 -4.21456472e-05 -3.61970814e-05 -6.45205397e-05
 -7.81738588e-04 -1.63581092e-03  5.66648871e-04  5.89367790e-06  7.91101989e-05
 -7.17232831e-05 -2.78765353e-05 -8.09442732e-06  1.91141147e-04  2.83944020e-04
 -4.36631844e-03 -5.69579296e-05  2.85147166e-04  3.68436632e-05 -4.31878045e-03
 -2.37829791e-03  6.19993423e-04  1.16894340e-04  1.27515772e-04  7.59249851e-05
 -4.51951924e-04  4.21633297e-04  3.67529873e-04  5.36596227e-04  6.58411235e-03
  1.85812695e-04 -1.43576432e-04 -1.10888437e-04  5.53613815e-03  2.31654647e-03
 -4.99494889e-04 -1.81451327e-04  9.01099668e-05  1.85868115e-04 -1.06391791e-03
  3.77175619e-04  1.00426684e+00  9.65693666e-03 -1.54532694e-02 -1.62348986e-03
  4.72268671e-04  6.66402738e-05  3.40355555e-03 -1.46617452e-03 -2.32790279e-04
  1.28228388e-04  1.68478439e-05  4.62248556e-05  1.25301270e-04  3.27762284e-05
  7.26920164e-04  6.63341843e-04 -2.30187666e-04 -5.66240981e-04  1.84342241e-04
  1.96271141e-04  4.00585736e-04 -5.05012773e-05 -8.54461552e-05  1.84038606e-05
 -1.86007306e-04 -3.36914842e-04  8.40809593e-05  8.84637407e-05  6.20658176e-05
 -3.70058390e-04  9.81773741e-04 -7.20917548e-04 -1.40316362e-04  7.31667545e-05
 -1.84605184e-04 -1.27182596e-03  1.89573241e-04  1.99806961e-04 -5.02578077e-05
 -1.06485268e-04  2.04043645e-04  4.84981642e-05  5.69443576e-05 -3.36526220e-05
 -3.78605396e-04 -5.34652108e-04  1.30681240e-03  2.15698355e-04  5.43542515e-05
 -1.64160694e-05 -8.68313231e-04 -2.63313424e-04 -4.55650756e-05 -1.19987552e-04
 -1.07955836e-04  6.73055611e-07 -8.31289076e-05 -1.14237240e-04 -3.83780757e-04
 -6.05182607e-04  4.75343186e-03 -1.27671376e-04 -8.48859114e-06  2.17293143e-05
 -1.97290476e-03 -2.99948725e-03  7.20253331e-04 -3.01362367e-04 -1.94254155e-04
 -8.66816397e-05  8.06969516e-05  1.22267745e-04  2.34710224e-03 -4.63630937e-04
 -9.95405394e-04 -4.63576742e-04  9.94003489e-04  1.54395747e-04 -2.21588517e-03
 -4.83028408e-03  4.41122354e-04  1.04412479e-03  2.31206215e-04 -1.59049383e-04
  6.03947151e-04  1.00625286e-03  1.00596169e+00  1.53618556e-02 -1.02992379e-02
  7.99510935e-04 -2.94270580e-04 -3.87142611e-04  4.85353226e-03 -1.23090938e-03
 -5.64944615e-04 -1.61005416e-03 -2.28832891e-04  4.52062487e-04  4.30213331e-04
  3.14460830e-04  5.84986871e-04  1.18816883e-03 -5.62201268e-03  5.99125273e-04
 -5.70192115e-05 -8.48638274e-05  3.45753999e-03 -9.50559208e-05 -4.07188903e-04
  6.76279228e-04  2.70801107e-04 -1.20480889e-05 -8.04671901e-04  4.22127440e-05
  1.71905899e-04 -4.08983425e-04 -4.18927583e-04 -3.72855038e-04  3.89004655e-05
 -1.00418311e-05  4.36099627e-04 -2.69734438e-05 -2.33993152e-05  2.99557657e-05
 -8.43339917e-05  1.98133062e-04  6.16395889e-05  9.14876572e-05 -7.01230296e-05
 -1.99461729e-03  2.43549439e-03 -1.34271260e-03 -1.64944075e-03 -2.72495062e-04
 -2.99227035e-04 -4.84183745e-04  1.85795438e-04  2.70218852e-04 -2.59284903e-05
 -9.86180742e-05  3.84172601e-04  1.65733536e-04  1.11861813e-04 -4.98882758e-05
  3.50466464e-03 -6.76792114e-04  4.85729622e-03  9.63604574e-04 -2.56478449e-05
  1.74270532e-05 -2.63978677e-03 -7.37580706e-04  1.98971204e-04  8.92769033e-04
  8.46328460e-05  4.29532760e-05 -1.07040606e-03 -1.90574230e-04  1.00647682e+00
  1.63057191e-02 -1.99447621e-02 -3.07453581e-04  6.48362466e-05 -4.09766824e-04
 -2.54797347e-03  3.74530211e-03 -8.42579775e-04 -7.80694130e-04  4.22542556e-04
 -8.15425935e-04 -2.08365737e-04 -4.78096209e-04  6.49955800e-03 -8.31727232e-04
  3.40619094e-03 -5.50055143e-04 -9.03255228e-04  1.77527421e-04  1.76673490e-03
  2.56734144e-03 -9.12992611e-05  8.50459661e-04  1.63797299e-04  4.45952258e-04
  5.30330271e-04 -9.99839425e-04 -3.76623833e-04 -6.62767567e-04  1.94728518e-03
  3.33481649e-05 -1.92044291e-04  4.85559743e-05 -6.90355982e-04  1.52228603e-03
 -1.02798143e-04 -3.37204414e-04 -1.91823079e-04 -5.44335397e-05  6.08398636e-05
  1.39827627e-04  3.34058652e-05  4.77186069e-05 -5.21735267e-04  1.35015163e-04
  2.89415595e-05  2.88820273e-06 -1.94194330e-04 -5.75411504e-04  8.00255704e-05
  2.39102000e-05 -2.32947351e-05  7.09540915e-06  2.56559397e-05  2.47286959e-05
 -1.08644811e-04  8.43200266e-04 -4.02764213e-04 -1.96029077e-04 -2.71142815e-05
 -1.00929798e-04  4.28927056e-04  1.75586909e-04 -1.18586102e-04  1.08077329e-04
 -5.27599140e-04  6.89382317e-04 -4.66837281e-06  3.97725633e-05 -5.00553758e-05
 -1.55543878e-04  3.63695185e-04  6.08701884e-05 -1.33732966e-04 -2.81807035e-05
  1.01821189e-04  5.90137057e-04  1.38516033e-04 -2.89444953e-04  1.72783726e-05
 -2.51004378e-03  1.08916885e-03 -1.16290104e-03  1.68174189e-03 -8.84275022e-04
 -7.72780940e-04 -5.35201211e-04  1.40268819e-03  1.09137002e-04  1.19052560e-04
 -1.32837963e-04 -1.35237728e-03 -3.05013860e-04  5.43013217e-04 -2.86621912e-04
  4.49271363e-05 -1.43658961e-04  1.29640091e-05 -1.60325835e-04 -7.34134798e-03
 -1.09600551e-03  4.57744668e-03  4.78266015e-04  9.50326314e-04 -2.18006344e-04
 -1.68688002e-03 -2.87233464e-03  1.98154036e-05  8.48251414e-04  3.59171995e-04
  5.60737806e-04  6.47715923e-04 -9.02269333e-04  1.00666933e+00  1.67978552e-02
 -2.11869271e-02 -2.40512275e-04  2.65089246e-05 -5.38465829e-04 -4.72112120e-03
 -1.45768367e-04  1.91303544e-03 -1.10676453e-03 -6.65343693e-05 -3.52651010e-05
  7.20608984e-04  2.31181210e-04 -2.90280076e-03 -9.84906325e-04  6.05838284e-03
  4.84496100e-04 -8.17472864e-04 -1.55972203e-04 -5.95904492e-04  3.31128051e-03
 -5.21480695e-06  7.53489854e-04  2.89535903e-04 -3.61822300e-04  5.75475365e-04
  1.13961672e-03  2.23491824e-05  3.53364359e-05 -6.56654520e-04  7.39241207e-05
  7.71667951e-06 -5.00758528e-05 -1.46806098e-04 -7.26525531e-04  1.17397819e-04
 -1.00583281e-04  1.02460464e-06  1.32601152e-05  2.48252902e-05  1.51852827e-04
 -7.84817709e-05  4.62019775e-04 -1.23487938e-04 -1.71744782e-04 -7.34632190e-06
  3.48642202e-05  5.01115035e-04  7.80690192e-05 -5.47157455e-05 -3.57190877e-05
 -2.87298633e-04  1.73147637e-04  1.12875174e-05  1.25444858e-04 -3.56832242e-05
 -1.74193311e-04  7.85506359e-04  2.49945044e-04 -1.20351327e-04  3.42970842e-05
 -2.48985593e-03  1.10726774e-03 -2.23717872e-03 -6.25970106e-05 -1.87098331e-04
 -1.02502534e-04  4.64820724e-04  3.02668200e-04  6.05920243e-05  1.27696533e-04
  1.00685975e+00  1.72010605e-02 -1.89397067e-02  1.14229087e-04  2.00521747e-04
  5.24125330e-04  2.46245804e-03  2.28889349e-03 -3.69852474e-04 -7.52079770e-05
  3.70225864e-04 -1.02205425e-03 -1.58095169e-04  5.62694599e-04 -3.96657801e-03
 -5.48247709e-04  1.97373746e-03 -8.49715305e-04  2.60171381e-05 -2.23622647e-05
  3.13695217e-03  1.38961390e-03 -9.60481694e-05  8.23191225e-04  1.20457007e-04
  7.58859615e-05 -1.38412394e-03 -2.24580377e-04  9.14786651e-05 -5.95965936e-04
  2.60203563e-03 -2.13656007e-04 -4.22054040e-05 -2.51920609e-05  1.40977448e-03
  1.91565410e-03 -3.50187439e-04 -3.80569263e-04  4.13483783e-05 -1.39476585e-04
 -2.97992889e-04 -1.63981537e-04 -1.52038137e-04 -4.79175157e-04 -8.81753980e-04
 -1.60829417e-04 -2.06924891e-04 -7.66951936e-05 -1.01129180e-03  3.25699348e-04
  2.10608541e-04 -2.41579050e-05 -1.28168316e-05 -5.57936084e-05 -1.23343048e-04
  2.11563985e-04 -1.96174657e-05 -4.91352188e-05  1.70894887e-04  1.31604717e-04
 -5.39405520e-05 -9.57194140e-05 -1.19229325e-03 -4.05944858e-04  5.51663692e-04
 -3.10335778e-05  3.13926601e-06  1.26987502e-04  1.12773636e-04 -6.27057120e-05
  4.07835471e-04  3.90701070e-03  1.56588026e-04 -1.02797475e-03 -3.25310244e-04
 -2.07820076e-03  1.26785196e-03  8.78537027e-04  1.74023567e-03 -1.00162869e-03
 -1.20827377e-03  2.11531893e-03  6.87471294e-04 -5.76493658e-04  1.80902238e-03
 -4.93288432e-05  2.50161088e-04  2.90686816e-05 -2.26674833e-05 -3.82463578e-05
  6.08517331e-05  5.12754524e-04  4.92858819e-06 -1.35282456e-04  3.85696661e-05
 -1.78405486e-04  2.76436910e-04 -2.50550174e-04 -2.18411948e-04  3.95261745e-05
 -4.45246678e-04  2.12211500e-02 -8.35720872e-04 -5.30523008e-03 -1.21039826e-02
 -1.82286022e-04  3.38919576e-03  4.70216673e-03 -4.39739654e-03 -6.68518323e-04
 -5.79332944e-04  1.01061210e-03 -2.65643396e-06 -8.70746635e-05 -1.00558148e-03
  2.36615696e-02  4.65576857e-03  4.08651339e-03 -1.43259425e-02  1.12960763e-03
  4.52836251e-03  2.80699409e-03  4.15374627e-04 -1.67650173e-03 -3.85591413e-04
 -7.04210696e-04 -1.07910686e-03 -3.34145976e-04 -4.09120882e-03  4.27312790e-02
  3.33668296e-02  2.76248801e-02 -1.86111048e-02 -6.61466717e-03  1.95807780e-02
  4.81536886e-04 -4.32651354e-03 -3.73130924e-03 -2.27254123e-03  9.23232626e-04
  1.53806324e-03 -8.60781235e-03 -1.44262317e-02  2.06589103e-01  8.19650354e-02
  1.65030364e-01  7.31671670e-03 -2.16239763e-02  1.27223462e-02 -1.85191625e-03
 -8.84071500e-04 -1.35900903e-02 -7.97001410e-03 -2.14684371e-03  3.07937477e-02
 -2.23318167e-03 -8.98787820e-03  4.03281026e-01  3.80207154e-01 -1.37237785e-01
  3.01240255e-02  1.21445643e-02 -3.37669045e-02  1.26301149e-02  2.08033748e-03
 -6.48479890e-03 -2.62747959e-03 -1.59964427e-03  9.23647371e-03 -1.69032218e-03
  5.52348237e-02  4.06142415e-03 -5.88014767e-03 -7.30922511e-03  3.43425601e-03
  2.58732871e-03 -4.36974994e-03 -4.55153409e-04 -7.61527423e-04  3.70197635e-04
  9.73600711e-03  4.14184570e-03 -1.22093642e-03 -1.15570182e-03 -1.23238222e-03
  3.88761437e-02 -2.65146416e-03  8.65256860e-03  6.81076108e-03  3.09655111e-04
  7.01901121e-03  6.06300440e-03  1.06305767e-03 -1.70295615e-03 -1.07023660e-04
  2.88203828e-03 -5.77657206e-04 -1.37047728e-04 -7.13489049e-04  2.90576763e-05
  1.17673924e-02 -1.81561058e-01 -8.50368700e-02  8.00967243e-02  1.77470959e-02
 -5.83433017e-03  4.16376109e-03 -6.95067257e-03  7.93891549e-03  6.40932497e-03
  7.81884842e-04 -9.39503821e-04 -1.04340492e-02 -3.13972360e-03  1.92336479e-02
 -2.88805312e-01 -1.99995400e-01 -2.02952522e-02  6.92437367e-02 -8.04721497e-03
 -2.69088606e-02  2.91367794e-02 -9.76656104e-03  1.05186572e-02  2.20492261e-03
  2.21131433e-03 -1.68427125e-03 -7.29966586e-03  1.76705118e-02 -2.42765262e-01
 -1.30253280e-01 -6.38925419e-02 -4.46893426e-02  2.87628978e-02 -7.51536997e-03
 -1.65094555e-02  7.85379126e-03  6.93758121e-03  3.49742435e-03  3.13331279e-03
  7.80250262e-03 -7.92771753e-03  2.74920352e-03 -6.59857834e-02 -4.58251766e-02
  9.02260662e-02 -8.56295217e-02 -1.26066310e-02  2.53314288e-02 -2.15563550e-02
 -5.52959892e-03  2.49701185e-03 -1.25301746e-03 -1.40913466e-03  1.56170465e-02
  3.87687043e-03 -2.12515872e-04  1.04481618e-01  1.06254979e-01 -1.55754842e-02
 -2.60448378e-02  1.12030665e-03  1.40631958e-03 -9.80083843e-03 -4.82142915e-04
  1.63374937e-04 -2.24813098e-04 -5.82184513e-04  1.65343537e-03  2.26933253e-03
 -5.02481748e-02  2.97158384e-03  3.39991308e-03 -9.62199834e-03 -3.51132417e-03
 -5.34032717e-02  1.95601012e-03  5.71384234e-03  6.72731131e-03 -3.80837384e-03
 -6.70564450e-02 -4.19613008e-03  5.81679023e-03 -1.50762326e-03  8.06598986e-03
 -1.48963949e-02 -6.10633083e-04  1.26813723e-03 -2.92534264e-03 -2.05504944e-04
 -7.64435368e-02 -3.39784078e-03 -1.30577839e-02 -2.13756667e-03  7.34152010e-04
 -9.52905250e-02 -1.35396021e-02 -7.13586100e-03  1.20715476e-02 -4.81651922e-03
  1.33566743e-02 -2.53252125e-01 -1.20337808e-01  3.51846115e-02  6.32538201e-03
 -7.39218389e-03 -7.82434298e-03 -4.27976843e-03  6.11272538e-03  3.03352200e-03
  3.55815101e-05 -1.72918590e-03 -3.04489377e-03  3.08831129e-03  5.93231021e-03
 -8.28658149e-02 -9.12213970e-02 -1.32484409e-01 -7.76365642e-02  1.32366754e-02
 -6.91246075e-02 -6.77584744e-03 -3.41472998e-03  2.78054796e-03 -7.37086898e-04
 -1.42138364e-03 -1.72142339e-02  6.58889530e-03 -1.36893464e-02  2.22870286e-01
  1.49317919e-01  5.43214409e-03 -8.81591427e-02 -1.70703020e-02  2.25443701e-02
 -2.89710998e-02 -1.68147539e-03 -3.32444697e-03 -5.15597966e-04  3.12168734e-03
 -8.27678678e-03 -9.68803553e-03 -5.84362899e-03  2.10500248e-01  1.18184313e-01
 -1.08736651e-01  5.69362772e-02  1.34573607e-02 -3.58416799e-02  1.45086455e-02
  2.29087106e-03 -3.27623946e-03  8.99317334e-05  1.25797578e-03 -7.08951257e-03
 -1.10482403e-02 -3.76415774e-04 -9.08623772e-02 -1.00749544e-01 -6.04682555e-02
 -2.71552140e-02  1.10180268e-02 -3.52566427e-02 -1.26236677e-02  4.52451030e-03
 -1.23275248e-03 -6.36910891e-04  8.79323578e-04  5.00228617e-03 -1.95456100e-03
 -1.09429357e-01 -1.92777754e-02  4.27209926e-03 -5.66532035e-03 -5.88465268e-03
 -1.06375958e-01 -7.97806528e-03  6.69169519e-03  1.21314351e-02 -6.88106352e-03
 -1.17260320e-01 -1.80437066e-02  7.79054065e-03 -2.90843303e-03  1.35355729e-02
  9.77819158e-02  9.23497707e-03  3.93053188e-03  1.20395459e-02  2.23506101e-03
  1.08289185e-01  1.70592720e-02  1.44983866e-02 -1.60039384e-03 -3.79203366e-04
 -3.83517037e-02 -1.39814914e-02 -4.98136553e-03  1.64375319e-03 -1.35527386e-03
  7.72040818e-03 -2.08658034e-01 -1.28884299e-01 -6.64311986e-02 -8.35901248e-03
 -2.32534846e-02 -3.90049836e-02  8.99181444e-04 -6.76281271e-04 -4.81111272e-03
 -6.58066440e-04  4.04554842e-04  6.41953514e-03  9.32677943e-04 -4.46779221e-03
  1.92774633e-01  9.76315113e-02 -1.77087040e-01 -2.58741484e-02 -4.97064050e-03
 -6.29452922e-02 -8.69679385e-03 -2.70727850e-03  2.93017580e-03 -2.95080003e-03
 -1.65836301e-03 -7.98793774e-03  4.57641920e-03 -2.56445024e-03  4.60044236e-02
  4.65123827e-02 -1.70603099e-02  2.29179992e-01 -1.58880103e-02  4.03721398e-03
  6.43499878e-02 -5.07453844e-03  5.87068800e-04 -7.71088441e-04 -7.72642734e-03
 -7.18373226e-04  1.12819486e-02  3.21077981e-03 -2.15338740e-01 -1.48189244e-01
  1.26642237e-01  1.60031629e-02 -1.11747454e-02  3.81253150e-02 -1.27134874e-02
 -6.93942978e-03 -1.51815641e-03 -5.03425621e-04 -1.48264146e-03  4.47835043e-03
  2.08000707e-04  1.27036699e-03  1.18888119e-01  1.47137088e-01  5.84182554e-02
 -4.37277217e-03 -8.17639598e-03  4.15438972e-02 -1.60381779e-03 -5.46315328e-03
  2.46311293e-03  5.53551990e-04 -5.76942646e-04 -2.61721279e-03  5.85392816e-05
 -5.09893516e-02  6.08149253e-03 -3.20185302e-04 -1.29838183e-02 -3.29400203e-03
 -1.23806386e-01 -2.09678131e-02  4.37233923e-03  1.13633824e-02 -7.40850884e-03
 -1.38853443e-01 -2.39196027e-02  5.85558543e-03 -3.90740893e-03  1.29966469e-02
 -1.57303954e-01 -3.32054459e-02 -6.08255062e-03 -1.38804124e-02 -2.81129039e-03
  2.98952107e-02  7.75074308e-03  2.89614884e-03  4.80273685e-03 -3.40681710e-04
  1.47649167e-01  2.57559117e-02  5.43645859e-03 -1.37098100e-02  6.19604514e-03
  1.74778496e-03  7.94184509e-03 -1.09893716e-03  9.91879873e-02 -1.20274292e-01
  3.32763816e-02  3.07889321e-02 -3.24880717e-02  7.72272354e-03  3.87905435e-03
 -1.21961925e-03  1.56833970e-03 -1.08328732e-02  3.38759105e-03  3.22120275e-03
 -1.53394345e-01 -1.05482240e-01 -2.75018163e-03 -1.76268689e-01  5.28922895e-02
 -1.71958739e-02 -5.59584325e-02  1.30782394e-02 -4.39348979e-03 -6.96165310e-04
 -3.51066800e-04 -4.37481781e-03 -4.34000838e-04 -3.46663932e-03  1.40621557e-01
  9.28857094e-02  1.41773087e-02 -3.48650967e-02  2.89203795e-03  1.98067544e-02
 -2.61913100e-02  8.46799867e-03  1.31261481e-03 -3.40006959e-04  2.30926286e-03
  8.21999628e-03 -1.29397440e-03 -1.18753516e-03 -1.42524021e-01 -1.07500307e-01
 -5.48773236e-02  2.34180907e-01  3.44620216e-02  6.12049082e-04  5.32315122e-02
  1.75399656e-03 -2.16645896e-03 -7.72523790e-04 -5.60806515e-04 -7.86029831e-03
  7.45445387e-03 -1.43779332e-03  5.70496316e-02  1.00850597e-01  1.84077463e-01
  1.83937461e-01 -2.19633544e-02  8.89714776e-02  9.65656975e-02 -6.90837165e-03
  2.27537225e-03  6.42453916e-04 -2.20457136e-04 -1.13101617e-02 -6.63575996e-03
  1.67160971e-01  5.60513260e-02 -6.24951435e-03 -7.32472735e-03  8.01716526e-03
 -3.96405481e-02 -1.02088712e-02  4.31166366e-03  1.49363761e-04 -7.36258254e-04
  7.69509935e-02  2.02169119e-02 -9.23220154e-04 -4.20636913e-03 -6.07343842e-03
 -1.85438918e-01 -4.50168277e-02 -1.01079072e-02 -1.21921462e-02 -2.76266206e-03
  7.65469807e-02  2.53947625e-02  8.35832000e-03  2.58566493e-04 -1.37608386e-04
 -1.88207840e-01 -4.71587564e-02 -1.03547587e-02  1.14011633e-02 -6.44603080e-03
 -8.21824754e-04  6.38025789e-02  4.46530641e-02  1.46090413e-01  8.92102376e-02
 -3.30214944e-03  3.30899143e-02  5.15634632e-02 -3.28131848e-03  4.79840669e-03
  1.16157983e-03 -1.43431181e-03 -6.43363257e-03 -5.10105648e-03 -4.62790555e-04
 -7.00348969e-02 -5.03054003e-02 -1.16368900e-01  1.12880223e-01 -1.92961968e-02
 -6.94051032e-02  3.37488625e-02 -9.87586569e-04 -4.36802822e-04 -5.63981622e-04
 -1.33151645e-03  1.06017516e-02  1.18249156e-02 -6.49080622e-03  8.08156126e-02