[Molden Format]
[Atoms] (AU)
C    1    6           1.7332382020         2.5446243702        -0.0099560067
C    2    6          -0.8597146922         2.2856300537        -0.0841915731
C    3    6          -2.1684793103        -0.0263897676         0.4269628276
C    4    6          -0.8384111293        -2.2271122978         0.0716870028
O    5    8           1.6334997044        -2.2693837138        -0.2679506581
H    6    1           2.1407261582        -0.3241044401        -0.6554487511
H    7    1           2.6206280037         4.1613508897        -0.8984933445
H    8    1           2.7757271242         1.7879428051         1.6213026390
H    9    1          -1.8249476042        -4.0290055970        -0.2230058276
H   10    1          -4.2269223763        -0.0924329933         0.4525948838
H   11    1          -2.0084024621         3.8320668304        -0.8607172090
[GTO]
  1 0
 s    8  1.00
     6665.0000000000         0.0006920000
     1000.0000000000         0.0053290000
      228.0000000000         0.0270770000
       64.7100000000         0.1017180000
       21.0600000000         0.2747400000
        7.4950000000         0.4485640000
        2.7970000000         0.2850740000
        0.5215000000         0.0152040000
 s    8  1.00
     6665.0000000000        -0.0001460000
     1000.0000000000        -0.0011540000
      228.0000000000        -0.0057250000
       64.7100000000        -0.0233120000
       21.0600000000        -0.0639550000
        7.4950000000        -0.1499810000
        2.7970000000        -0.1272620000
        0.5215000000         0.5445290000
 s    1  1.00
        0.1596000000         1.0000000000
 p    3  1.00
        9.4390000000         0.0381090000
        2.0020000000         0.2094800000
        0.5456000000         0.5085570000
 p    1  1.00
        0.1517000000         1.0000000000
 d    1  1.00
        0.5500000000         1.0000000000

  2 0
 s    8  1.00
     6665.0000000000         0.0006920000
     1000.0000000000         0.0053290000
      228.0000000000         0.0270770000
       64.7100000000         0.1017180000
       21.0600000000         0.2747400000
        7.4950000000         0.4485640000
        2.7970000000         0.2850740000
        0.5215000000         0.0152040000
 s    8  1.00
     6665.0000000000        -0.0001460000
     1000.0000000000        -0.0011540000
      228.0000000000        -0.0057250000
       64.7100000000        -0.0233120000
       21.0600000000        -0.0639550000
        7.4950000000        -0.1499810000
        2.7970000000        -0.1272620000
        0.5215000000         0.5445290000
 s    1  1.00
        0.1596000000         1.0000000000
 p    3  1.00
        9.4390000000         0.0381090000
        2.0020000000         0.2094800000
        0.5456000000         0.5085570000
 p    1  1.00
        0.1517000000         1.0000000000
 d    1  1.00
        0.5500000000         1.0000000000

  3 0
 s    8  1.00
     6665.0000000000         0.0006920000
     1000.0000000000         0.0053290000
      228.0000000000         0.0270770000
       64.7100000000         0.1017180000
       21.0600000000         0.2747400000
        7.4950000000         0.4485640000
        2.7970000000         0.2850740000
        0.5215000000         0.0152040000
 s    8  1.00
     6665.0000000000        -0.0001460000
     1000.0000000000        -0.0011540000
      228.0000000000        -0.0057250000
       64.7100000000        -0.0233120000
       21.0600000000        -0.0639550000
        7.4950000000        -0.1499810000
        2.7970000000        -0.1272620000
        0.5215000000         0.5445290000
 s    1  1.00
        0.1596000000         1.0000000000
 p    3  1.00
        9.4390000000         0.0381090000
        2.0020000000         0.2094800000
        0.5456000000         0.5085570000
 p    1  1.00
        0.1517000000         1.0000000000
 d    1  1.00
        0.5500000000         1.0000000000

  4 0
 s    8  1.00
     6665.0000000000         0.0006920000
     1000.0000000000         0.0053290000
      228.0000000000         0.0270770000
       64.7100000000         0.1017180000
       21.0600000000         0.2747400000
        7.4950000000         0.4485640000
        2.7970000000         0.2850740000
        0.5215000000         0.0152040000
 s    8  1.00
     6665.0000000000        -0.0001460000
     1000.0000000000        -0.0011540000
      228.0000000000        -0.0057250000
       64.7100000000        -0.0233120000
       21.0600000000        -0.0639550000
        7.4950000000        -0.1499810000
        2.7970000000        -0.1272620000
        0.5215000000         0.5445290000
 s    1  1.00
        0.1596000000         1.0000000000
 p    3  1.00
        9.4390000000         0.0381090000
        2.0020000000         0.2094800000
        0.5456000000         0.5085570000
 p    1  1.00
        0.1517000000         1.0000000000
 d    1  1.00
        0.5500000000         1.0000000000

  5 0
 s    8  1.00
    11720.0000000000         0.0007100000
     1759.0000000000         0.0054700000
      400.8000000000         0.0278370000
      113.7000000000         0.1048000000
       37.0300000000         0.2830620000
       13.2700000000         0.4487190000
        5.0250000000         0.2709520000
        1.0130000000         0.0154580000
 s    8  1.00
    11720.0000000000        -0.0001600000
     1759.0000000000        -0.0012630000
      400.8000000000        -0.0062670000
      113.7000000000        -0.0257160000
       37.0300000000        -0.0709240000
       13.2700000000        -0.1654110000
        5.0250000000        -0.1169550000
        1.0130000000         0.5573680000
 s    1  1.00
        0.3023000000         1.0000000000
 p    3  1.00
       17.7000000000         0.0430180000
        3.8540000000         0.2289130000
        1.0460000000         0.5087280000
 p    1  1.00
        0.2753000000         1.0000000000
 d    1  1.00
        1.1850000000         1.0000000000

  6 0
 s    3  1.00
       13.0100000000         0.0196850000
        1.9620000000         0.1379770000
        0.4446000000         0.4781480000
 s    1  1.00
        0.1220000000         1.0000000000
 p    1  1.00
        0.7270000000         1.0000000000

  7 0
 s    3  1.00
       13.0100000000         0.0196850000
        1.9620000000         0.1379770000
        0.4446000000         0.4781480000
 s    1  1.00
        0.1220000000         1.0000000000
 p    1  1.00
        0.7270000000         1.0000000000

  8 0
 s    3  1.00
       13.0100000000         0.0196850000
        1.9620000000         0.1379770000
        0.4446000000         0.4781480000
 s    1  1.00
        0.1220000000         1.0000000000
 p    1  1.00
        0.7270000000         1.0000000000

  9 0
 s    3  1.00
       13.0100000000         0.0196850000
        1.9620000000         0.1379770000
        0.4446000000         0.4781480000
 s    1  1.00
        0.1220000000         1.0000000000
 p    1  1.00
        0.7270000000         1.0000000000

  10 0
 s    3  1.00
       13.0100000000         0.0196850000
        1.9620000000         0.1379770000
        0.4446000000         0.4781480000
 s    1  1.00
        0.1220000000         1.0000000000
 p    1  1.00
        0.7270000000         1.0000000000

  11 0
 s    3  1.00
       13.0100000000         0.0196850000
        1.9620000000         0.1379770000
        0.4446000000         0.4781480000
 s    1  1.00
        0.1220000000         1.0000000000
 p    1  1.00
        0.7270000000         1.0000000000

[5D7F]
[9G]

[MO]
 Sym= A
 Ene=        -1.9162293227e+01
 Spin= Alpha
 Occup=         2.0000000000e+00
  1        -7.5738683751e-05
  2        -1.0316601276e-04
  3         1.0740302679e-03
  4        -7.0017651244e-05
  5        -9.7215829674e-05
  6         9.9883476543e-08
  7         1.1194246669e-04
  8        -6.3619496522e-04
  9        -3.2307612574e-04
 10        -8.9353811288e-05
 11        -9.8555792520e-05
 12         1.6092159492e-04
 13        -2.1231180890e-04
 14         1.0219266358e-05
 15         1.2922476885e-04
 16         2.3602211372e-04
 17        -3.9105882831e-03
 18         8.1740300647e-05
 19         2.3993345535e-05
 20         6.4031615398e-05
 21         4.6816957836e-04
 22         1.9687472767e-03
 23        -6.5688323427e-04
 24         3.1981503986e-05
 25        -6.9811973206e-05
 26         7.5262181940e-05
 27         3.4109486121e-05
 28        -5.0371939309e-06
 29        -1.4947337688e-04
 30        -2.0614773739e-04
 31         4.6533799868e-03
 32         1.0552541298e-04
 33        -2.7735139825e-04
 34        -4.7659875736e-05
 35         4.3203835110e-03
 36         2.1795859763e-03
 37        -6.3697305411e-04
 38        -1.1334576386e-04
 39        -1.2659990479e-04
 40        -7.2548909266e-05
 41         4.1143151229e-04
 42        -3.7560554525e-04
 43        -2.5236753469e-04
 44        -4.1915256659e-04
 45        -6.3326031046e-03
 46        -3.1335299712e-04
 47         1.3468750092e-04
 48         1.3101097993e-04
 49        -5.1348163831e-03
 50        -2.5298520050e-03
 51         4.4659999000e-04
 52         3.0760202293e-04
 53        -3.1910441634e-05
 54        -2.0276307964e-04
 55         8.5513364224e-04
 56        -2.8537987959e-04
 57        -1.0041234361e+00
 58        -9.4041422689e-03
 59         1.4794849873e-02
 60         1.3229158341e-03
 61        -8.5985367751e-04
 62         2.6065459337e-05
 63        -3.2322916807e-03
 64         1.3698256158e-03
 65         2.4570727064e-04
 66        -8.4159431991e-05
 67        -1.0769953221e-05
 68         1.8571850608e-05
 69         4.0675763495e-05
 70        -1.0377295164e-04
 71        -9.6106396688e-04
 72        -1.1812960419e-03
 73         1.0100445926e-04
 74        -4.1729863077e-04
 75        -8.5234029666e-05
 76        -1.0624685549e-04
 77        -1.7809947601e-04
 78         4.5249895687e-05
 79         6.0518779288e-05
 80        -2.0453940671e-06
 81         7.1209268090e-05
 82         1.8367236854e-04
 83        -8.4037719454e-05
 84         2.8358103736e-06
 85        -3.8863306654e-05
 86         3.7363852855e-04
 87        -1.0008578393e-03
 88         6.6698147396e-04
 89         1.7770665058e-04
 90        -6.4700561516e-05
 91         1.5932114018e-04
 92         1.2095916641e-03
 93        -1.9549143114e-04
 94        -1.7824828077e-04
 95         5.2692731386e-05
 96         5.8148855167e-05
 97        -3.4536697106e-04
 98        -3.6696235893e-05
 99        -5.2954972109e-05
100         3.6334424616e-05
 Sym= A
 Ene=        -1.0259171170e+01
 Spin= Alpha
 Occup=         2.0000000000e+00
  1        -3.5809420228e-04
  2        -4.8232680839e-04
  3         1.3165480052e-03
  4         1.5622287674e-04
  5         1.0485150696e-04
  6         1.3685721360e-05
  7        -1.0679578431e-03
  8        -4.6114302082e-05
  9        -6.8185461606e-05
 10        -1.1567111654e-04
 11        -5.2803092691e-05
 12        -4.6242057264e-05
 13        -1.0039760400e-05
 14        -6.4083658307e-05
 15        -4.0534903924e-04
 16        -6.2327761911e-04
 17         4.1833201144e-03
 18        -9.5519114322e-05
 19         3.7379258156e-06
 20         4.1552947249e-06
 21        -2.0839397134e-03
 22        -3.0802057453e-03
 23         6.7596127193e-04
 24        -3.0064943259e-04
 25        -1.4384686330e-04
 26        -8.6928757544e-05
 27        -1.8335873745e-05
 28         8.0556523772e-05
 29         3.6238220125e-03
 30        -7.4622796289e-04
 31        -3.7281407189e-04
 32        -5.5415313529e-04
 33         1.1562353479e-03
 34         1.7548986580e-04
 35        -1.9948690046e-03
 36        -4.9148271473e-03
 37         4.3169137939e-04
 38         1.0609943359e-03
 39         2.6277578980e-04
 40        -1.3651664252e-04
 41         3.6518445925e-04
 42         9.8380118699e-04
 43         1.0059291337e+00
 44         1.5315075984e-02
 45        -1.1174826775e-02
 46         6.6301582971e-04
 47        -2.8096802590e-04
 48        -3.6730567771e-04
 49         4.5483821006e-03
 50        -1.2913904343e-03
 51        -6.1728965502e-04
 52        -1.5784698721e-03
 53        -2.3351560880e-04
 54         5.1962319187e-04
 55        -1.1390482957e-05
 56         3.2614577849e-04
 57         6.9944761154e-04
 58         1.2904383490e-03
 59        -5.0679105501e-03
 60         3.8640895940e-04
 61        -1.2130459142e-04
 62        -4.8983260068e-05
 63         3.2394954267e-03
 64        -1.3860517350e-04
 65        -3.6979138172e-04
 66         7.4350415758e-04
 67         3.0589419263e-04
 68         2.5999920696e-05
 69        -7.9866409534e-04
 70         5.0683993477e-06
 71         5.2561446477e-04
 72        -1.6128023944e-04
 73        -5.3494482213e-04
 74        -3.0700470075e-04
 75         7.2247977350e-05
 76        -1.6035360891e-05
 77         3.8838914656e-04
 78        -1.5424095322e-05
 79        -3.2870387617e-05
 80         2.1623709954e-05
 81        -9.1112931865e-05
 82         2.9012071917e-04
 83         6.0538759676e-05
 84         7.1119067230e-05
 85        -5.1896838472e-05
 86        -2.1868168193e-03
 87         2.4305270511e-03
 88        -1.3873901052e-03
 89        -1.7130560598e-03
 90        -2.6352406659e-04
 91        -1.2570492752e-04
 92        -3.9693615442e-04
 93         2.9256267547e-04
 94         2.7472490260e-04
 95        -2.4506094543e-05
 96        -1.1854064972e-04
 97         3.8285499685e-04
 98         1.3983899117e-04
 99         1.1872494536e-04
100        -4.9854983142e-05
 Sym= A
 Ene=        -1.0218086346e+01
 Spin= Alpha
 Occup=         2.0000000000e+00
  1         6.9910222661e-03
  2        -1.0144248457e-03
  3         5.2587391903e-03
  4         1.2003917110e-03
  5         6.8228094352e-05
  6         1.2562609308e-05
  7        -2.8101291769e-03
  8        -1.0408451495e-03
  9         2.4819252695e-04
 10         9.3214703762e-04
 11         5.1879268218e-06
 12         4.7694825071e-05
 13        -1.0909413014e-03
 14        -2.2308763443e-04
 15         1.0064574592e+00
 16         1.6314005240e-02
 17        -1.9707245827e-02
 18        -1.5248598217e-04
 19         9.2366449974e-05
 20        -4.1822875870e-04
 21        -2.7275246986e-03
 22         3.3876256006e-03
 23        -9.3446801041e-04
 24        -8.0626214480e-04
 25         4.8125886005e-04
 26        -7.3968928208e-04
 27         1.0652077131e-04
 28        -3.9166673571e-04
 29         5.2626849043e-03
 30        -5.8207559706e-04
 31         2.3098344624e-03
 32        -4.7483052962e-04
 33        -7.4303359096e-04
 34         1.6060430945e-04
 35         1.3483581580e-03
 36         2.5060190642e-03
 37         6.4741149010e-05
 38         8.1523895082e-04
 39         1.5889993605e-04
 40         4.9210706957e-04
 41         7.0559078591e-04
 42        -9.8221154642e-04
 43        -3.9491471209e-04
 44        -7.0402769649e-04
 45         2.5546379012e-03
 46         1.4006408957e-05
 47        -1.9806193101e-04
 48         7.1187892328e-05
 49        -6.0770307060e-04
 50         1.8440258085e-03
 51        -1.0118844134e-04
 52        -3.7195729553e-04
 53        -2.4033828117e-04
 54        -4.7580761958e-05
 55         1.4123209839e-04
 56         5.8981238873e-05
 57         5.3241650603e-05
 58         7.2100293781e-05
 59        -8.6314062164e-04
 60         1.4181213810e-04
 61        -2.3744731176e-05
 62         1.5784073709e-05
 63        -4.7944929698e-05
 64        -5.6915634034e-04
 65         5.8668003062e-05
 66         4.4067974411e-05
 67        -1.9061011720e-05
 68         2.6849485630e-05
 69         3.2509577808e-05
 70         2.2803307945e-05
 71         1.7458655876e-04
 72         6.4778367715e-04
 73        -3.8944703413e-04
 74        -1.7656134343e-04
 75        -3.2877268541e-05
 76        -3.6317737013e-05
 77         6.5635590691e-04
 78         1.6567013279e-04
 79        -1.5488236438e-04
 80         1.5099273068e-04
 81        -4.3652622001e-04
 82         5.9980336871e-04
 83         1.8994502129e-05
 84         6.9482924185e-05
 85        -1.3016874493e-04
 86        -9.5370050727e-05
 87         4.6140102704e-04
 88         9.1582397419e-05
 89        -1.1887534721e-04
 90        -2.3235861942e-05
 91        -2.1772549686e-05
 92         4.7088481059e-04
 93         5.8056940213e-05
 94        -3.0921087008e-04
 95         4.9775733409e-06
 96        -2.4165704405e-03
 97         1.1007370976e-03
 98        -1.1280380954e-03
 99         1.6429735610e-03
100        -8.9003978154e-04
 Sym= A
 Ene=        -1.0185560799e+01
 Spin= Alpha
 Occup=         2.0000000000e+00
  1         1.6234506836e-03
  2         5.5322776638e-04
  3        -1.9168361353e-03
  4        -7.4027272309e-05
  5        -1.6449934405e-04
  6         9.4797634522e-05
  7         1.5961982573e-03
  8         3.1915794590e-04
  9        -5.0741783101e-04
 10         2.8286556981e-04
 11        -1.8586138428e-04
 12         1.8968139604e-04
 13        -7.3406159099e-05
 14         2.6961167593e-04
 15         5.7723021714e-03
 16         7.9617313980e-04
 17        -3.8616409793e-03
 18        -3.4459111779e-04
 19        -7.7120444967e-04
 20         1.7144886274e-04
 21         1.9790028537e-03
 22         2.9355856964e-03
 23         1.1437909121e-05
 24        -8.2158613927e-04
 25        -4.3090718287e-04
 26        -5.1454526025e-04
 27        -5.9898410962e-04
 28         1.0156059138e-03
 29        -1.0066972961e+00
 30        -1.6842656069e-02
 31         2.1500087947e-02
 32         2.1908330327e-04
 33         1.1145409218e-04
 34         5.1639367261e-04
 35         4.7973954319e-03
 36         7.9085790240e-05
 37        -1.9663270542e-03
 38         1.1178684563e-03
 39         8.0901125489e-05
 40        -2.3000566694e-05
 41        -7.2768620128e-04
 42         5.0363432503e-05
 43         4.5432806388e-03
 44         1.2978351604e-03
 45        -6.5571190960e-03
 46        -6.2783590715e-04
 47         9.9413726072e-04
 48         1.9409472372e-04
 49         5.5300496080e-04
 50        -3.5536089043e-03
 51        -8.6888918133e-06
 52        -8.0010349042e-04
 53        -2.8030555286e-04
 54         4.0227197322e-04
 55        -6.5849439401e-04
 56        -1.0254127943e-03
 57        -3.1620394560e-05
 58        -4.2161012146e-05
 59         8.8996031191e-04
 60        -7.7960923512e-05
 61         1.7737477649e-05
 62         3.5377641149e-05
 63         1.0093394320e-04
 64         7.0851897208e-04
 65        -1.2513692683e-04
 66         6.3558984915e-05
 67         3.5355959844e-06
 68        -3.3672072480e-05
 69        -4.8381561159e-05
 70        -8.3750144865e-05
 71        -1.2742689743e-04
 72        -4.3077490892e-04
 73         1.4913161876e-04
 74         2.2937512943e-04
 75        -3.4096948931e-05
 76        -8.4067353440e-05
 77        -5.3669563994e-04
 78        -9.7260511932e-05
 79         1.0090468226e-04
 80         1.3086962131e-05
 81         4.1275633677e-04
 82        -2.1536398350e-04
 83        -3.9586662456e-05
 84        -9.9962473049e-05
 85        -5.0892599583e-05
 86        -2.4175131262e-06
 87        -8.6786633435e-04
 88        -3.1505970242e-04
 89         2.7108334405e-05
 90        -5.2590115578e-05
 91         2.4832382411e-03
 92        -1.0898360150e-03
 93         2.2313865683e-03
 94         1.0897891961e-04
 95         1.7765060014e-04
 96         2.2986354965e-04
 97        -4.4077311460e-04
 98        -2.6765300831e-04
 99        -1.4643694546e-04
100        -9.4865848182e-05
 Sym= A
 Ene=        -1.0181179982e+01
 Spin= Alpha
 Occup=         2.0000000000e+00
  1         1.0069185516e+00
  2         1.7323764954e-02
  3        -1.8617359601e-02
  4         1.1593152708e-04
  5         2.5479716589e-04
  6         4.3626191338e-04
  7         2.5928286504e-03
  8         2.8601888003e-03
  9        -4.4404540259e-04
 10        -7.5250637595e-05
 11         3.6970437289e-04
 12        -1.3735497447e-03
 13         4.5814564134e-04
 14         7.0176524444e-04
 15        -7.9221913827e-03
 16        -1.0362973626e-03
 17         2.6217822730e-03
 18        -1.1899519791e-03
 19        -5.1015201318e-05
 20        -6.5778174522e-05
 21         3.1809400414e-03
 22         1.1514528305e-03
 23         1.0138411216e-04
 24         8.9152504656e-04
 25         7.9519820698e-06
 26         1.9071272491e-04
 27        -1.4042070473e-03
 28        -3.8045890718e-04
 29         9.2223813775e-04
 30        -5.8029840629e-04
 31         2.7627344577e-03
 32        -1.8859701167e-04
 33        -4.7203787141e-05
 34        -2.6767379126e-05
 35         1.7069529698e-03
 36         1.6946858250e-03
 37        -4.0896982539e-04
 38        -3.9615321778e-04
 39         5.3650792786e-05
 40        -1.5473133757e-04
 41        -2.9753983071e-04
 42        -1.1068072921e-04
 43        -6.2870078742e-05
 44        -3.3573906418e-04
 45        -1.6302282436e-03
 46        -1.4612715980e-04
 47        -1.8356176093e-04
 48        -6.2535660128e-05
 49        -1.2927350976e-03
 50        -2.4153282674e-04
 51         2.5833259404e-04
 52         3.5947862338e-05
 53         5.0473900729e-05
 54        -6.0329827893e-05
 55        -1.5260369267e-04
 56         1.2681769477e-04
 57        -4.4310084676e-05
 58        -8.7327830945e-05
 59         1.4366329681e-04
 60         1.4511200655e-04
 61        -7.5094989138e-05
 62        -7.0185292261e-05
 63        -1.3474236900e-03
 64        -2.5606305344e-04
 65         4.5166396085e-04
 66        -5.3949145803e-05
 67        -6.3754970053e-06
 68         7.7690287466e-05
 69         7.9389748450e-05
 70        -5.1211918600e-05
 71         9.7916633895e-04
 72         3.6349933801e-03
 73         1.6798827028e-05
 74        -1.3714490527e-05
 75        -6.8735907061e-06
 76        -2.4117283667e-03
 77         1.1464617925e-03
 78         8.8236805473e-04
 79         1.8042266490e-03
 80        -1.0395616769e-03
 81        -1.2925628517e-03
 82         2.1092563370e-03
 83         8.0080755742e-04
 84        -8.7839952895e-04
 85         1.7718119177e-03
 86        -3.6176487947e-05
 87         4.5451273701e-05
 88         4.2540974789e-05
 89         6.0610237812e-06
 90        -3.7401487397e-05
 91         7.6314777965e-05
 92         5.8360834459e-04
 93        -9.7805681777e-06
 94        -1.1211328226e-04
 95         5.2370634493e-05
 96        -6.1704497566e-05
 97         4.1726476240e-04
 98        -1.6160482128e-04
 99        -2.6356276764e-04
100         3.3233731392e-05
 Sym= A
 Ene=        -1.0549630188e+00
 Spin= Alpha
 Occup=         2.0000000000e+00
  1         1.4104644117e-04
  2         2.2901376768e-02
  3        -5.9866817400e-03
  4        -4.9312880464e-03
  5        -1.3365716251e-02
  6        -2.3314108556e-04
  7         5.9254953812e-03
  8         8.3356708370e-03
  9        -6.5361534844e-03
 10        -7.2369347584e-04
 11        -7.4571905621e-04
 12         1.2079773109e-03
 13        -7.6502169675e-04
 14         7.6309854060e-05
 15        -1.0843003473e-03
 16         2.3264834802e-02
 17         1.1036812250e-02
 18         5.4366723260e-03
 19        -1.3815063057e-02
 20         8.7872572896e-04
 21         7.7511298954e-03
 22         5.2867089731e-04
 23         1.3433243775e-03
 24        -1.9136800403e-03
 25        -2.4675170364e-04
 26        -7.6502344625e-04
 27        -8.2462656510e-04
 28        -6.2410330272e-04
 29        -2.9568668792e-03
 30         4.2977916665e-02
 31         1.8559822057e-02
 32         2.7778463527e-02
 33        -1.8194405315e-02
 34        -6.9259991383e-03
 35         1.3966357150e-02
 36         5.8179651931e-03
 37        -3.0644786734e-03
 38        -3.1507082558e-03
 39        -2.2253258235e-03
 40         8.8031195619e-04
 41         2.1960037699e-03
 42        -7.8709362515e-03
 43        -1.3120395097e-02
 44         1.7669178152e-01
 45         7.8151279164e-02
 46         1.4024259532e-01
 47         1.4699664322e-02
 48        -2.0635331584e-02
 49         8.2735402453e-03
 50         9.0004533974e-03
 51        -5.7739429800e-05
 52        -1.2776625540e-02
 53        -8.3086749101e-03
 54        -2.0777221795e-03
 55         2.8786570454e-02
 56         1.9385453427e-03
 57        -6.8132008724e-03
 58         4.1433578490e-01
 59         3.8139145007e-01
 60        -1.0774484093e-01
 61         5.8044615513e-02
 62         5.3500216057e-03
 63        -3.2874030687e-02
 64         4.9535598552e-03
 65         3.3615563674e-03
 66        -6.5271548378e-03
 67        -2.4350645563e-03
 68        -1.4864953874e-03
 69         6.4264700731e-03
 70        -1.2580078168e-03
 71         1.2417529339e-01
 72         5.5531672130e-03
 73        -1.1291471418e-02
 74        -2.1425001538e-02
 75         6.6645342019e-03
 76         2.1622405570e-03
 77        -6.6329613004e-03
 78        -3.3232887848e-04
 79        -7.6807349479e-04
 80         2.4210698311e-04
 81         1.2565968214e-02
 82         6.9411729173e-03
 83        -1.6950848960e-03
 84        -1.2460513122e-03
 85        -1.5936822578e-03
 86         3.4716985820e-02
 87         7.6868402196e-04
 88         8.2800185597e-03
 89         5.5723743535e-03
 90         9.7056117215e-05
 91         6.4486206711e-03
 92         4.6655066935e-03
 93         9.1308618467e-04
 94        -1.8047176234e-03
 95        -1.5696323129e-04
 96         2.7195468711e-03
 97        -4.0460446864e-05
 98        -2.0132934560e-04
 99        -5.0963396464e-04
100        -6.8088416689e-05
 Sym= A
 Ene=        -8.0964207524e-01
 Spin= Alpha
 Occup=         2.0000000000e+00
  1         1.3685385795e-02
  2        -1.8682080168e-01
  3        -9.6240850424e-02
  4         8.6157000506e-02
  5         1.8339705031e-02
  6        -2.8456231623e-03
  7         6.0351295053e-03
  8        -1.9945610222e-03
  9         6.6629868724e-03
 10         6.9168081526e-03
 11         5.5334769589e-04
 12        -2.0574636259e-03
 13        -8.9769676938e-03
 14        -3.7371288771e-03
 15         1.9375197860e-02
 16        -2.8487080574e-01
 17        -1.9122822568e-01
 18        -3.1664196963e-02
 19         5.8199247948e-02
 20        -8.5185891855e-03
 21        -2.4753732954e-02
 22         2.5522906581e-02
 23        -9.7459039849e-03
 24         1.0852726110e-02
 25         1.8945217378e-03
 26         2.1280779239e-03
 27        -2.3559521276e-03
 28        -7.8875933158e-03
 29         1.7962700556e-02
 30        -2.3885712868e-01
 31        -1.3457494663e-01
 32        -6.2504568310e-02
 33        -3.0440778583e-02
 34         2.7336489808e-02
 35        -1.2281280743e-02
 36        -1.5680676250e-02
 37         8.4910579335e-03
 38         7.6195601218e-03
 39         3.4587899447e-03
 40         2.8302493881e-03
 41         7.8801386674e-03
 42        -7.0075913308e-03
 43         3.7915245421e-03
 44        -8.9043413232e-02
 45        -5.3201826903e-02
 46         8.4434014565e-02
 47        -8.6171846798e-02
 48        -1.3709477028e-02
 49         2.5747810695e-02
 50        -1.6827673938e-02
 51        -5.9115995589e-03
 52         2.5831423235e-03
 53        -1.4883501269e-03
 54        -1.5928159154e-03
 55         1.5096173504e-02
 56         4.7632949811e-03
 57         5.7631679693e-04
 58         1.1220242001e-01
 59         1.1409932131e-01
 60        -4.3271124139e-04
 61        -1.6186733926e-02
 62        -2.7319089552e-03
 63         6.6887248541e-03
 64        -9.4028504605e-03
 65        -1.3779476225e-03
 66         5.8228119843e-04
 67         1.0224821273e-04
 68        -4.3838172458e-04
 69         5.2551741319e-04
 70         2.1681221140e-03
 71        -8.6196043487e-03
 72         5.2799018826e-03
 73         1.9713978732e-03
 74        -1.1435635360e-02
 75        -1.5859616808e-03
 76        -5.7022534365e-02
 77         3.4108576618e-05
 78         6.1809159263e-03
 79         7.0190291996e-03
 80        -3.8749136305e-03
 81        -6.7362128965e-02
 82        -2.0298774440e-03
 83         6.6315176823e-03
 84        -3.0118247982e-03
 85         8.0013484466e-03
 86        -2.0631664887e-02
 87         4.0248542581e-04
 88         1.0133462598e-03
 89        -3.9200739355e-03
 90        -3.6640294994e-04
 91        -7.6494705075e-02
 92        -4.9736914778e-03
 93        -1.2848731150e-02
 94        -1.6997747338e-03
 95         7.2898461810e-04
 96        -9.4652121633e-02
 97        -1.2877277394e-02
 98        -7.7760790943e-03
 99         1.1547532014e-02
100        -5.0024492081e-03
 Sym= A
 Ene=        -7.3167965729e-01
 Spin= Alpha
 Occup=         2.0000000000e+00
  1         1.4726774538e-02
  2        -2.3553762163e-01
  3        -1.1870196623e-01
  4         4.3387059474e-02
  5         7.2482519925e-03
  6        -3.0167612272e-03
  7        -4.2579460835e-03
  8         7.9256956339e-04
  9         5.1862748419e-03
 10         4.3900975423e-03
 11         5.0744130168e-05
 12        -2.6671956707e-03
 13        -2.5759110430e-03
 14         2.5605178508e-03
 15         7.0609935926e-03
 16        -1.0438756052e-01
 17        -9.4109434841e-02
 18        -1.2331928603e-01
 19        -7.1174252258e-02
 20         9.4280706375e-03
 21        -5.9290319241e-02
 22        -9.6154496607e-03
 23        -3.2618783848e-03
 24         2.5034398605e-03
 25        -1.0295607476e-03
 26        -1.6315858442e-03
 27        -1.6669806650e-02
 28         5.2772870175e-03
 29        -1.3788055948e-02
 30         2.1094396166e-01
 31         1.3702141465e-01
 32         1.3707047361e-02
 33        -1.0283110880e-01
 34        -1.7036196490e-02
 35         2.0203497349e-02
 36        -3.0703303038e-02
 37        -1.7090969003e-03
 38        -3.2748587206e-03
 39        -6.1027685046e-04
 40         3.5914464545e-03
 41        -7.1268309523e-03
 42        -1.1732889575e-02
 43        -8.7079571892e-03
 44         2.4142861182e-01
 45         1.3658771919e-01
 46        -8.5523282024e-02
 47         5.2775568724e-02
 48         1.1915996063e-02
 49        -2.6350028637e-02
 50         1.1044068036e-02
 51         2.0999504573e-03