Generated by Psi4
        SP                           RHF                       CC-PVDZ
Number of atoms                            I               11
Charge                                     I                0
Multiplicity                               I                1
Number of electrons                        I               38
Number of alpha electrons                  I               19
Number of beta electrons                   I               19
Number of basis functions                  I              100
Number of independent functions            I              100
Atomic numbers                             I   N=          11
           6           6           6           6           8           1
           1           1           1           1           1
Nuclear charges                            R   N=          11
  6.00000000e+00  6.00000000e+00  6.00000000e+00  6.00000000e+00  8.00000000e+00
  1.00000000e+00  1.00000000e+00  1.00000000e+00  1.00000000e+00  1.00000000e+00
  1.00000000e+00
Current cartesian coordinates              R   N=          33
  1.81351823e+00  2.43951840e+00 -7.77735490e-02 -9.08926349e-01  2.30350207e+00
 -7.48732352e-02 -2.16733046e+00  7.13892233e-02  4.18582992e-01 -7.78628466e-01
 -2.21972883e+00  7.03406714e-02  1.56267034e+00 -2.33116815e+00 -2.15486093e-01
  2.20328044e+00  1.64682489e-01 -7.37838009e-01  2.65152804e+00  4.14033514e+00
 -9.31185602e-01  2.75234277e+00  1.90826449e+00  1.69710360e+00 -1.87327296e+00
 -3.97890530e+00 -2.26076100e-01 -4.22700376e+00 -2.84974478e-02  4.34923719e-01
 -2.00137906e+00  3.89703039e+00 -8.20998129e-01
Integer atomic weights                     I   N=          11
          12          12          12          12          16           1
           1           1           1           1           1
Real atomic weights                        R   N=          11
  1.20000000e+01  1.20000000e+01  1.20000000e+01  1.20000000e+01  1.59949146e+01
  1.00782503e+00  1.00782503e+00  1.00782503e+00  1.00782503e+00  1.00782503e+00
  1.00782503e+00
Number of primitive shells                 I              140
Number of contracted shells                I               48
Pure/Cartesian d shells                    I                0
Pure/Cartesian f shells                    I                0
Highest angular momentum                   I                2
Largest degree of contraction              I                8
Shell types                                I   N=          48
           0           0           0           1           1          -2
           0           0           0           1           1          -2
           0           0           0           1           1          -2
           0           0           0           1           1          -2
           0           0           0           1           1          -2
           0           0           1           0           0           1
           0           0           1           0           0           1
           0           0           1           0           0           1
Number of primitives per shell             I   N=          48
           8           8           1           3           1           1
           8           8           1           3           1           1
           8           8           1           3           1           1
           8           8           1           3           1           1
           8           8           1           3           1           1
           3           1           1           3           1           1
           3           1           1           3           1           1
           3           1           1           3           1           1
Shell to atom map                          I   N=          48
           1           1           1           1           1           1
           2           2           2           2           2           2
           3           3           3           3           3           3
           4           4           4           4           4           4
           5           5           5           5           5           5
           6           6           6           7           7           7
           8           8           8           9           9           9
          10          10          10          11          11          11
Primitive exponents                        R   N=         140
  6.66500000e+03  1.00000000e+03  2.28000000e+02  6.47100000e+01  2.10600000e+01
  7.49500000e+00  2.79700000e+00  5.21500000e-01  6.66500000e+03  1.00000000e+03
  2.28000000e+02  6.47100000e+01  2.10600000e+01  7.49500000e+00  2.79700000e+00
  5.21500000e-01  1.59600000e-01  9.43900000e+00  2.00200000e+00  5.45600000e-01
  1.51700000e-01  5.50000000e-01  6.66500000e+03  1.00000000e+03  2.28000000e+02
  6.47100000e+01  2.10600000e+01  7.49500000e+00  2.79700000e+00  5.21500000e-01
  6.66500000e+03  1.00000000e+03  2.28000000e+02  6.47100000e+01  2.10600000e+01
  7.49500000e+00  2.79700000e+00  5.21500000e-01  1.59600000e-01  9.43900000e+00
  2.00200000e+00  5.45600000e-01  1.51700000e-01  5.50000000e-01  6.66500000e+03
  1.00000000e+03  2.28000000e+02  6.47100000e+01  2.10600000e+01  7.49500000e+00
  2.79700000e+00  5.21500000e-01  6.66500000e+03  1.00000000e+03  2.28000000e+02
  6.47100000e+01  2.10600000e+01  7.49500000e+00  2.79700000e+00  5.21500000e-01
  1.59600000e-01  9.43900000e+00  2.00200000e+00  5.45600000e-01  1.51700000e-01
  5.50000000e-01  6.66500000e+03  1.00000000e+03  2.28000000e+02  6.47100000e+01
  2.10600000e+01  7.49500000e+00  2.79700000e+00  5.21500000e-01  6.66500000e+03
  1.00000000e+03  2.28000000e+02  6.47100000e+01  2.10600000e+01  7.49500000e+00
  2.79700000e+00  5.21500000e-01  1.59600000e-01  9.43900000e+00  2.00200000e+00
  5.45600000e-01  1.51700000e-01  5.50000000e-01  1.17200000e+04  1.75900000e+03
  4.00800000e+02  1.13700000e+02  3.70300000e+01  1.32700000e+01  5.02500000e+00
  1.01300000e+00  1.17200000e+04  1.75900000e+03  4.00800000e+02  1.13700000e+02
  3.70300000e+01  1.32700000e+01  5.02500000e+00  1.01300000e+00  3.02300000e-01
  1.77000000e+01  3.85400000e+00  1.04600000e+00  2.75300000e-01  1.18500000e+00
  1.30100000e+01  1.96200000e+00  4.44600000e-01  1.22000000e-01  7.27000000e-01
  1.30100000e+01  1.96200000e+00  4.44600000e-01  1.22000000e-01  7.27000000e-01
  1.30100000e+01  1.96200000e+00  4.44600000e-01  1.22000000e-01  7.27000000e-01
  1.30100000e+01  1.96200000e+00  4.44600000e-01  1.22000000e-01  7.27000000e-01
  1.30100000e+01  1.96200000e+00  4.44600000e-01  1.22000000e-01  7.27000000e-01
  1.30100000e+01  1.96200000e+00  4.44600000e-01  1.22000000e-01  7.27000000e-01
Contraction coefficients                   R   N=         140
  6.91583963e-04  5.32579615e-03  2.70607210e-02  1.01656846e-01  2.74574824e-01
  4.48294319e-01  2.84902611e-01  1.51948592e-02 -2.93269653e-04 -2.31803547e-03
 -1.14997860e-02 -4.68267270e-02 -1.28466169e-01 -3.01266272e-01 -2.55630702e-01
  1.09379336e+00  1.00000000e+00  5.69792516e-02  3.13207212e-01  7.60376742e-01
  1.00000000e+00  1.00000000e+00  6.91583963e-04  5.32579615e-03  2.70607210e-02
  1.01656846e-01  2.74574824e-01  4.48294319e-01  2.84902611e-01  1.51948592e-02
 -2.93269653e-04 -2.31803547e-03 -1.14997860e-02 -4.68267270e-02 -1.28466169e-01
 -3.01266272e-01 -2.55630702e-01  1.09379336e+00  1.00000000e+00  5.69792516e-02
  3.13207212e-01  7.60376742e-01  1.00000000e+00  1.00000000e+00  6.91583963e-04
  5.32579615e-03  2.70607210e-02  1.01656846e-01  2.74574824e-01  4.48294319e-01
  2.84902611e-01  1.51948592e-02 -2.93269653e-04 -2.31803547e-03 -1.14997860e-02
 -4.68267270e-02 -1.28466169e-01 -3.01266272e-01 -2.55630702e-01  1.09379336e+00
  1.00000000e+00  5.69792516e-02  3.13207212e-01  7.60376742e-01  1.00000000e+00
  1.00000000e+00  6.91583963e-04  5.32579615e-03  2.70607210e-02  1.01656846e-01
  2.74574824e-01  4.48294319e-01  2.84902611e-01  1.51948592e-02 -2.93269653e-04
 -2.31803547e-03 -1.14997860e-02 -4.68267270e-02 -1.28466169e-01 -3.01266272e-01
 -2.55630702e-01  1.09379336e+00  1.00000000e+00  5.69792516e-02  3.13207212e-01
  7.60376742e-01  1.00000000e+00  1.00000000e+00  7.09645947e-04  5.46727229e-03
  2.78231186e-02  1.04747740e-01  2.82920846e-01  4.48495239e-01  2.70816885e-01
  1.54502916e-02 -3.14443412e-04 -2.48213768e-03 -1.23163554e-02 -5.05389173e-02
 -1.39384903e-01 -3.25077495e-01 -2.29848308e-01  1.09537935e+00  1.00000000e+00
  6.26791663e-02  3.33536566e-01  7.41239642e-01  1.00000000e+00  1.00000000e+00
  3.34987264e-02  2.34800801e-01  8.13682958e-01  1.00000000e+00  1.00000000e+00
  3.34987264e-02  2.34800801e-01  8.13682958e-01  1.00000000e+00  1.00000000e+00
  3.34987264e-02  2.34800801e-01  8.13682958e-01  1.00000000e+00  1.00000000e+00
  3.34987264e-02  2.34800801e-01  8.13682958e-01  1.00000000e+00  1.00000000e+00
  3.34987264e-02  2.34800801e-01  8.13682958e-01  1.00000000e+00  1.00000000e+00
  3.34987264e-02  2.34800801e-01  8.13682958e-01  1.00000000e+00  1.00000000e+00
Coordinates of each shell                  R   N=         144
  1.81351823e+00  2.43951840e+00 -7.77735490e-02  1.81351823e+00  2.43951840e+00
 -7.77735490e-02  1.81351823e+00  2.43951840e+00 -7.77735490e-02  1.81351823e+00
  2.43951840e+00 -7.77735490e-02  1.81351823e+00  2.43951840e+00 -7.77735490e-02
  1.81351823e+00  2.43951840e+00 -7.77735490e-02 -9.08926349e-01  2.30350207e+00
 -7.48732352e-02 -9.08926349e-01  2.30350207e+00 -7.48732352e-02 -9.08926349e-01
  2.30350207e+00 -7.48732352e-02 -9.08926349e-01  2.30350207e+00 -7.48732352e-02
 -9.08926349e-01  2.30350207e+00 -7.48732352e-02 -9.08926349e-01  2.30350207e+00
 -7.48732352e-02 -2.16733046e+00  7.13892233e-02  4.18582992e-01 -2.16733046e+00
  7.13892233e-02  4.18582992e-01 -2.16733046e+00  7.13892233e-02  4.18582992e-01
 -2.16733046e+00  7.13892233e-02  4.18582992e-01 -2.16733046e+00  7.13892233e-02
  4.18582992e-01 -2.16733046e+00  7.13892233e-02  4.18582992e-01 -7.78628466e-01
 -2.21972883e+00  7.03406714e-02 -7.78628466e-01 -2.21972883e+00  7.03406714e-02
 -7.78628466e-01 -2.21972883e+00  7.03406714e-02 -7.78628466e-01 -2.21972883e+00
  7.03406714e-02 -7.78628466e-01 -2.21972883e+00  7.03406714e-02 -7.78628466e-01
 -2.21972883e+00  7.03406714e-02  1.56267034e+00 -2.33116815e+00 -2.15486093e-01
  1.56267034e+00 -2.33116815e+00 -2.15486093e-01  1.56267034e+00 -2.33116815e+00
 -2.15486093e-01  1.56267034e+00 -2.33116815e+00 -2.15486093e-01  1.56267034e+00
 -2.33116815e+00 -2.15486093e-01  1.56267034e+00 -2.33116815e+00 -2.15486093e-01
  2.20328044e+00  1.64682489e-01 -7.37838009e-01  2.20328044e+00  1.64682489e-01
 -7.37838009e-01  2.20328044e+00  1.64682489e-01 -7.37838009e-01  2.65152804e+00
  4.14033514e+00 -9.31185602e-01  2.65152804e+00  4.14033514e+00 -9.31185602e-01
  2.65152804e+00  4.14033514e+00 -9.31185602e-01  2.75234277e+00  1.90826449e+00
  1.69710360e+00  2.75234277e+00  1.90826449e+00  1.69710360e+00  2.75234277e+00
  1.90826449e+00  1.69710360e+00 -1.87327296e+00 -3.97890530e+00 -2.26076100e-01
 -1.87327296e+00 -3.97890530e+00 -2.26076100e-01 -1.87327296e+00 -3.97890530e+00
 -2.26076100e-01 -4.22700376e+00 -2.84974478e-02  4.34923719e-01 -4.22700376e+00
 -2.84974478e-02  4.34923719e-01 -4.22700376e+00 -2.84974478e-02  4.34923719e-01
 -2.00137906e+00  3.89703039e+00 -8.20998129e-01 -2.00137906e+00  3.89703039e+00
 -8.20998129e-01 -2.00137906e+00  3.89703039e+00 -8.20998129e-01
Total Energy                               R     -2.312022569084130e+02
Alpha Orbital Energies                     R   N=         100
 -1.91463742e+01 -1.02719819e+01 -1.02264536e+01 -1.01909367e+01 -1.01775226e+01
 -1.05134482e+00 -8.14976129e-01 -7.20275290e-01 -6.17631510e-01 -5.62935038e-01
 -5.04468660e-01 -4.55088912e-01 -4.41587720e-01 -4.12284663e-01 -3.96851940e-01
 -3.82492513e-01 -3.44146874e-01 -2.82297768e-01 -2.28596142e-01 -6.02517993e-02
  3.56642815e-02  6.45746321e-02  9.47669528e-02  1.11536724e-01  1.28926748e-01
  1.51701803e-01  1.85166331e-01  2.32114608e-01  2.74891461e-01  3.15296760e-01
  3.31210994e-01  4.19007058e-01  4.51746712e-01  4.56674869e-01  4.70120838e-01
  4.88315919e-01  5.14462327e-01  5.23052336e-01  5.55217603e-01  5.71603277e-01
  6.06287824e-01  6.22251905e-01  6.31385101e-01  6.46641082e-01  6.79551383e-01
  7.01981963e-01  7.04374398e-01  7.64671615e-01  7.89804367e-01  8.64225635e-01
  8.94889790e-01  9.36098556e-01  9.68159832e-01  1.02096494e+00  1.05756195e+00
  1.09680183e+00  1.10106374e+00  1.13914631e+00  1.19879377e+00  1.25342540e+00
  1.29954936e+00  1.32726281e+00  1.41611384e+00  1.47693186e+00  1.49525617e+00
  1.52272524e+00  1.54911405e+00  1.55960937e+00  1.58811047e+00  1.61323917e+00
  1.64534020e+00  1.65002519e+00  1.68843213e+00  1.71463796e+00  1.75596338e+00
  1.77334124e+00  1.79689976e+00  1.82843581e+00  1.86515620e+00  1.88113690e+00
  1.94396138e+00  1.97026620e+00  2.03618734e+00  2.03686242e+00  2.13156720e+00
  2.18849216e+00  2.23270644e+00  2.34653451e+00  2.36084016e+00  2.39509413e+00
  2.46407394e+00  2.48772690e+00  2.63090522e+00  2.67313067e+00  2.78889217e+00
  2.94935001e+00  3.03107301e+00  3.25012981e+00  3.41243709e+00  3.49035023e+00
Alpha MO coefficients                      R   N=       10000
 -4.79057456e-05 -9.16501420e-05 -1.88585706e-04  8.79548559e-05  1.12160299e-05
 -4.96449503e-05 -2.19454750e-04 -1.51546042e-04  4.35809564e-04  2.21207006e-05
  6.66376427e-05  1.73229733e-05  3.60643084e-05 -1.58881731e-04 -8.47778632e-05
 -1.55084230e-04  3.80705949e-03 -3.54761014e-05 -3.49868444e-05 -6.87200947e-05
 -7.81312462e-04 -1.63433449e-03  5.68819370e-04  7.76832743e-06  8.00084047e-05
 -7.11464199e-05 -3.17541516e-05 -1.90547695e-05  1.97190696e-04  2.95612484e-04
 -4.28894058e-03 -4.65965142e-05  2.80710505e-04  3.41692747e-05 -4.28919440e-03
 -2.45012010e-03  6.06688755e-04  1.17118228e-04  1.28759237e-04  7.54034052e-05
 -4.62759265e-04  4.24293454e-04  3.90048118e-04  5.55002630e-04  6.54255857e-03
  1.39166200e-04 -1.46792445e-04 -1.03791368e-04  5.57844227e-03  2.18472140e-03
 -5.02414853e-04 -1.46503837e-04  1.04850730e-04  1.81980567e-04 -1.11111641e-03
  3.94233956e-04  1.00428497e+00  9.70070185e-03 -1.54677352e-02 -1.66877611e-03
  4.50115522e-04  7.86382104e-05  3.40947138e-03 -1.42671349e-03 -2.34847380e-04
  1.15068869e-04  1.21349899e-05  4.35801862e-05  1.35378555e-04  3.35078213e-05
  6.32463445e-04  5.61308238e-04 -2.26939922e-04 -6.18168178e-04  1.82018711e-04
  2.00037353e-04  4.06850312e-04 -5.26091356e-05 -8.71710089e-05  2.15378249e-05
 -1.82920561e-04 -3.37291486e-04  8.02184669e-05  9.40042448e-05  6.11748714e-05
 -3.76929177e-04  9.49272454e-04 -7.26618195e-04 -1.30188536e-04  7.26156851e-05
 -1.88216529e-04 -1.27276438e-03  1.88550873e-04  2.05560260e-04 -4.79566590e-05
 -1.16107610e-04  2.02005391e-04  4.67110735e-05  5.92745028e-05 -3.49208456e-05
 -3.76081236e-04 -5.33323538e-04  1.28565601e-03  2.27190878e-04  4.38684829e-05
 -2.34547511e-05 -8.28799293e-04 -2.95580187e-04 -4.83455736e-05 -1.19501921e-04
 -1.15909070e-04  7.68435767e-06 -9.65956652e-05 -1.15192574e-04 -3.83609442e-04
 -6.05449708e-04  4.89619147e-03 -1.37843908e-04 -9.78288568e-06  2.58242046e-05
 -1.94311116e-03 -3.00193169e-03  7.29693229e-04 -3.02315070e-04 -2.03008487e-04
 -8.48788795e-05  1.00326659e-04  1.32822924e-04  2.14574942e-03 -4.06299463e-04
 -1.12799498e-03 -4.43906158e-04  9.52233893e-04  1.48900103e-04 -2.24641350e-03
 -4.83742433e-03  4.39284175e-04  1.03585030e-03  2.23569262e-04 -1.62107370e-04
  6.47390717e-04  1.00945521e-03  1.00598153e+00  1.54029262e-02 -1.01196358e-02
  8.73113559e-04 -3.21808760e-04 -3.91487734e-04  4.91009984e-03 -1.24016113e-03
 -5.58239306e-04 -1.61899899e-03 -2.26270453e-04  4.41208432e-04  5.13015739e-04
  3.03326284e-04  5.51778053e-04  1.15749129e-03 -5.78271508e-03  6.39327882e-04
 -5.82650904e-05 -8.89317255e-05  3.51945822e-03 -1.03337154e-04 -4.09548264e-04
  6.61985201e-04  2.59591810e-04 -1.76346513e-05 -7.90528507e-04  5.40989465e-05
  1.36456331e-04 -4.56869136e-04 -4.03989313e-04 -3.79861007e-04  3.24480896e-05
 -1.24817658e-05  4.42488972e-04 -2.82815899e-05 -2.04209777e-05  2.97371998e-05
 -7.96894141e-05  1.88786242e-04  6.18334664e-05  9.32241714e-05 -7.37740336e-05
 -1.97355740e-03  2.42978389e-03 -1.33549358e-03 -1.64071379e-03 -2.72082444e-04
 -3.35337757e-04 -4.98146559e-04  1.62738106e-04  2.69795326e-04 -2.66703154e-05
 -9.20207837e-05  3.88631545e-04  1.70531723e-04  1.09151716e-04 -4.94443838e-05
  3.17428317e-03 -6.01119291e-04  4.75767407e-03  9.01511694e-04 -3.70464637e-05
  1.90766904e-05 -2.59234020e-03 -6.83141761e-04  1.75641327e-04  8.75922771e-04
  9.81197194e-05  4.27291658e-05 -1.05506629e-03 -1.74655817e-04  1.00647684e+00
  1.63148057e-02 -1.99656531e-02 -3.64669931e-04  5.21373115e-05 -4.08550328e-04
 -2.47376999e-03  3.79533179e-03 -8.14138127e-04 -7.74726064e-04  4.15804441e-04
 -8.39916838e-04 -2.93259695e-04 -4.85244999e-04  7.27225337e-03 -8.87314121e-04
  3.58236434e-03 -5.70346720e-04 -9.45960788e-04  1.81620810e-04  1.80395687e-03
  2.60530765e-03 -1.18997375e-04  8.62689082e-04  1.62149485e-04  4.32646133e-04
  4.95947060e-04 -1.00904877e-03 -3.72289441e-04 -6.56122528e-04  1.87994583e-03
  3.70896187e-05 -1.92257077e-04  4.42145102e-05 -6.97651807e-04  1.49553545e-03
 -9.75587266e-05 -3.30725107e-04 -1.81974172e-04 -5.42394034e-05  4.80999842e-05
  1.53490608e-04  2.88040527e-05  4.11486096e-05 -4.71651125e-04  1.31479648e-04
  3.25840750e-05  2.53017058e-06 -2.06902492e-04 -5.79559273e-04  8.02137852e-05
  2.12227909e-05 -2.38416055e-05  4.75102614e-06  2.73435702e-05  2.87319882e-05
 -1.45914999e-04  8.44873862e-04 -3.95996895e-04 -1.93522972e-04 -2.33079058e-05
 -1.21328120e-04  3.82713348e-04  1.75347186e-04 -1.05863938e-04  9.63850631e-05
 -5.39118141e-04  7.08606470e-04 -1.02064313e-05  3.55294683e-05 -3.65123709e-05
 -1.63324301e-04  3.57447681e-04  5.53496486e-05 -1.35686691e-04 -2.83815071e-05
  1.27358828e-04  6.03937314e-04  1.58591574e-04 -2.87095317e-04  1.79371509e-05
 -2.53916446e-03  1.10625992e-03 -1.17663327e-03  1.68745798e-03 -8.92064387e-04
 -7.16729905e-04 -5.28067945e-04  1.28173757e-03  1.16675651e-04  1.09666707e-04
 -1.37599119e-04 -1.29272810e-03 -2.98776649e-04  5.41212192e-04 -2.85006261e-04
  2.14213454e-05 -1.37513714e-04  5.48289847e-06 -1.34686113e-04 -8.20111267e-03
 -1.18381093e-03  4.77094560e-03  5.06318981e-04  9.94270057e-04 -2.26638355e-04
 -1.60469995e-03 -2.89355973e-03  3.25014450e-05  8.55806025e-04  3.43008144e-04
  5.69664562e-04  6.64317740e-04 -8.72892071e-04  1.00666267e+00  1.67959621e-02
 -2.11798733e-02 -2.45058083e-04  6.74305885e-05 -5.32372936e-04 -4.73955969e-03
 -1.66473545e-04  1.89601985e-03 -1.10697596e-03 -6.77437680e-05 -4.85986242e-05
  7.17260039e-04  3.04893640e-04 -2.63109970e-03 -9.20037057e-04  5.97510685e-03
  4.50527528e-04 -7.72000574e-04 -1.47521582e-04 -6.03200950e-04  3.30306984e-03
 -1.40093233e-07  7.40512017e-04  2.91678613e-04 -3.51635828e-04  5.55641780e-04
  1.16033175e-03  2.17250771e-05  3.52562392e-05 -6.30773713e-04  6.95411294e-05
  4.41166898e-06 -5.12570407e-05 -1.55499754e-04 -7.47900311e-04  1.13681527e-04
 -1.05440675e-04  2.91408142e-06  1.01139486e-05  2.62149600e-05  1.67495881e-04
 -9.16126374e-05  4.65983161e-04 -1.18426550e-04 -1.62835209e-04 -1.07880154e-05
  2.51207191e-05  4.90010119e-04  7.30096220e-05 -4.48784101e-05 -3.93049532e-05
 -2.66186164e-04  1.68483308e-04  9.05302126e-06  1.25220144e-04 -5.01335936e-05
 -2.03580403e-04  7.83507085e-04  2.38289507e-04 -1.39170417e-04  3.07558457e-05
 -2.49650704e-03  1.09768094e-03 -2.24075693e-03 -5.51992894e-05 -1.84015168e-04
 -6.84275729e-05  4.82862945e-04  3.10966316e-04  3.98686462e-05  1.37681791e-04
  1.00684911e+00  1.71790541e-02 -1.89556867e-02  1.38276339e-04  1.63785434e-04
  5.37182126e-04  2.48951342e-03  2.16792452e-03 -3.93690194e-04 -7.85735339e-05
  3.71048588e-04 -9.53603871e-04 -2.91904462e-04  5.22404215e-04 -3.55399668e-03
 -4.68386992e-04  1.91121679e-03 -7.71453537e-04  3.67305850e-05 -1.84880695e-05
  3.18194101e-03  1.41677497e-03 -1.18723590e-04  7.99995678e-04  1.38483644e-04
  5.26496377e-05 -1.36508182e-03 -2.07132598e-04  3.89710435e-05 -5.98356470e-04
  2.58469507e-03 -2.18120751e-04 -4.25292205e-05 -2.42910822e-05  1.33951123e-03
  1.97048386e-03 -3.45657892e-04 -3.76788444e-04  3.80773639e-05 -1.37351873e-04
 -2.96323589e-04 -1.74708857e-04 -1.65644941e-04 -4.99654861e-04 -7.46622651e-04
 -1.62177410e-04 -2.09652361e-04 -7.80353767e-05 -9.64785071e-04  4.12558634e-04
  2.09209075e-04 -3.48877092e-05 -2.04292367e-05 -5.38784794e-05 -1.14370179e-04
  2.24521941e-04 -2.07986881e-05 -4.93995366e-05  1.97791156e-04  1.30103134e-04
 -4.48569260e-05 -9.80390031e-05 -1.15213591e-03 -3.97873470e-04  5.42460033e-04
 -3.36840494e-05  1.82723095e-06  1.23224715e-04  1.08363980e-04 -5.46777140e-05
  2.36920604e-04  3.87780827e-03  1.84544593e-04 -1.14767414e-03 -3.81540421e-04
 -2.02505233e-03  1.27512962e-03  8.73099791e-04  1.73832891e-03 -9.90196259e-04
 -1.19909400e-03  2.12840266e-03  6.70463346e-04 -5.33664434e-04  1.81202436e-03
 -5.33138484e-05  2.79046794e-04  2.71170246e-05 -2.78666744e-05 -3.90082005e-05
  5.62140386e-05  4.97636130e-04  8.40082505e-06 -1.39481839e-04  3.59969414e-05
 -2.03283106e-04  2.64198820e-04 -2.68213888e-04 -2.06484882e-04  3.97288064e-05
 -4.88668430e-04  2.00090388e-02 -2.96627643e-04 -5.05262595e-03 -1.15028018e-02
 -1.47160762e-04  2.99562749e-03  4.20102292e-03 -4.04561758e-03 -6.27993115e-04
 -5.49547698e-04  9.11826810e-04  8.85604847e-05 -6.94265888e-05 -8.74055690e-04
  2.26257288e-02  2.74481463e-03  3.66934103e-03 -1.38898529e-02  1.11817180e-03
  4.04661754e-03  3.44371331e-03  1.83593712e-04 -1.55805087e-03 -3.79974322e-04
 -6.73562602e-04 -1.09458566e-03 -2.80764867e-04 -4.09187906e-03  4.10313084e-02
  3.31916490e-02  2.67426878e-02 -1.81440761e-02 -6.30125117e-03  1.97213017e-02
  6.26003467e-04 -4.29397469e-03 -3.75236094e-03 -2.23539602e-03  9.21290966e-04
  1.49224826e-03 -8.65868421e-03 -1.46862539e-02  2.09876337e-01  8.29320450e-02
  1.69866982e-01  5.10231689e-03 -2.16515953e-02  1.28841019e-02 -1.97613508e-03
 -8.57910057e-04 -1.37257772e-02 -7.88532674e-03 -2.10620165e-03  3.12866618e-02
 -2.93312247e-03 -9.29954670e-03  4.02358538e-01  3.76092520e-01 -1.41230752e-01
  2.84458042e-02  1.27339785e-02 -3.32505760e-02  1.24049497e-02  1.97999008e-03
 -6.47681664e-03 -2.63749948e-03 -1.54434186e-03  9.71561714e-03 -1.84978724e-03
  4.98064052e-02  3.56238219e-03 -5.41233903e-03 -6.27226809e-03  3.14816528e-03
  2.41825256e-03 -4.03697798e-03 -4.31916141e-04 -7.15126124e-04  3.59369590e-04
  9.03710670e-03  3.79641895e-03 -1.12494133e-03 -1.12098707e-03 -1.13974572e-03
  3.91249806e-02 -2.81730068e-03  8.72951921e-03  6.88683564e-03  3.59240475e-04
  6.80925083e-03  6.11489979e-03  1.02463514e-03 -1.70998756e-03 -1.04184656e-04
  2.70626210e-03 -7.46522211e-04 -1.48646574e-04 -7.11313920e-04  3.64248752e-05
  1.14315356e-02 -1.77634449e-01 -8.27228798e-02  7.79493351e-02  1.74471942e-02
 -6.28719286e-03  4.20717268e-03 -7.29379768e-03  7.86900975e-03  6.30433019e-03
  8.31734473e-04 -7.62113056e-04 -1.05306564e-02 -3.05919325e-03  1.93264584e-02
 -2.88518538e-01 -1.99709516e-01 -1.61120022e-02  7.25004359e-02 -8.18534115e-03
 -2.62432107e-02  2.96249665e-02 -9.69375025e-03  1.04648850e-02  2.26675503e-03
  2.24429656e-03 -1.31547646e-03 -7.36241215e-03  1.78666884e-02 -2.46390216e-01
 -1.31903545e-01 -6.45723936e-02 -4.72714956e-02  2.90883720e-02 -7.17271491e-03
 -1.62760119e-02  7.79954255e-03  6.90862251e-03  3.48080572e-03  3.15577174e-03
  7.88728195e-03 -7.93365574e-03  2.74648429e-03 -6.52606143e-02 -4.62733292e-02
  9.02973447e-02 -8.58273918e-02 -1.22796358e-02  2.49354083e-02 -2.22366440e-02
 -5.40853035e-03  2.62754006e-03 -1.14673720e-03 -1.38065303e-03  1.55197174e-02
  3.83400167e-03 -2.97578299e-04  1.01262238e-01  1.02424774e-01 -1.60649806e-02
 -2.65745502e-02  1.31936126e-03  1.25155245e-03 -9.98991865e-03 -3.88481417e-04
  1.31340668e-04 -2.44892397e-04 -5.78529020e-04  1.73523459e-03  2.29750285e-03
 -5.32391637e-02  2.69819836e-03  3.45976180e-03 -9.42722420e-03 -3.66221737e-03
 -5.19686539e-02  2.02288559e-03  5.52943386e-03  6.60867683e-03 -3.72071939e-03
 -6.59612646e-02 -4.30608515e-03  5.59691804e-03 -1.29905112e-03  7.91708843e-03
 -1.50270083e-02 -8.24167114e-04  1.22373840e-03 -2.91547314e-03 -1.96516917e-04
 -7.75184324e-02 -3.32366432e-03 -1.32519908e-02 -2.25196495e-03  7.49295147e-04
 -9.52801382e-02 -1.35390860e-02 -6.96717784e-03  1.21998917e-02 -4.82357365e-03
  1.32952774e-02 -2.57414105e-01 -1.21857301e-01  3.37527268e-02  6.33757733e-03
 -8.43309478e-03 -8.39323905e-03 -5.10994183e-03  6.26314550e-03  2.83687231e-03
  3.07979859e-05 -1.52996415e-03 -3.14249091e-03  3.06680619e-03  5.97818225e-03
 -8.12774284e-02 -9.26827144e-02 -1.32554862e-01 -7.76219730e-02  1.37173114e-02
 -7.08291225e-02 -5.32927570e-03 -3.58792713e-03  2.96507067e-03 -6.59387663e-04
 -1.33646474e-03 -1.72007568e-02  6.66659921e-03 -1.34783572e-02  2.20710397e-01
  1.50378440e-01  3.14647628e-03 -8.57831139e-02 -1.64871466e-02  2.34151075e-02
 -2.92213041e-02 -1.68528556e-03 -3.29767479e-03 -4.68677359e-04  3.05488611e-03
 -8.32269557e-03 -9.47594259e-03 -5.43480836e-03  2.06068895e-01  1.14991223e-01
 -1.09340615e-01  5.46916748e-02  1.31421986e-02 -3.65033379e-02  1.39155880e-02
  2.14288886e-03 -3.04564754e-03  1.49949507e-04  1.21394198e-03 -7.09253853e-03
 -1.08990668e-02 -2.74464990e-04 -8.93120768e-02 -9.91712910e-02 -5.89480616e-02
 -2.56065514e-02  1.03651916e-02 -3.47741174e-02 -1.25176899e-02  4.27481983e-03
 -1.20963068e-03 -6.04976005e-04  8.18589104e-04  4.78416355e-03 -1.85647247e-03
 -1.12090149e-01 -1.94516795e-02  4.36682261e-03 -6.65654269e-03 -6.09409544e-03
 -1.08004670e-01 -8.16857505e-03  6.67707594e-03  1.23519971e-02 -6.95399198e-03
 -1.19874681e-01 -1.86332657e-02  7.72501612e-03 -2.74048019e-03  1.37721374e-02
  9.73146354e-02  9.18487417e-03  3.94467138e-03  1.18542639e-02  2.22044488e-03
  1.08957322e-01  1.76088894e-02  1.44520835e-02 -1.45163832e-03 -3.67523959e-04
 -3.85422340e-02 -1.47131659e-02 -4.91937145e-03  1.62040863e-03 -1.34039755e-03
  7.42181883e-03 -2.07096484e-01 -1.27581403e-01 -6.52499765e-02 -5.25407414e-03
 -2.34675664e-02 -3.82679562e-02  1.88768909e-04  1.88252909e-04 -4.88859566e-03
 -7.50997383e-04  4.20540810e-04  6.41424060e-03  7.44498737e-04 -4.62113846e-03
  1.94492854e-01  9.76350565e-02 -1.74765047e-01 -2.28461761e-02 -4.65847652e-03
 -6.12044677e-02 -6.21897167e-03 -2.88948161e-03  3.04995212e-03 -2.91468691e-03
 -1.61094592e-03 -7.70811465e-03  4.83258504e-03 -2.50894913e-03  4.12850010e-02
  4.35680112e-02 -1.68382162e-02  2.31118619e-01 -1.56185356e-02  3.46093405e-03
  6.54900549e-02 -5.10162383e-03  7.40216991e-04 -6.92677530e-04 -7.71167155e-03
 -6.82921926e-04  1.13348164e-02  3.12778102e-03 -2.15576210e-01 -1.48335920e-01
  1.32543252e-01  1.11281235e-02 -1.12820328e-02  3.99735701e-02 -1.42949554e-02
 -6.86894096e-03 -1.55088857e-03 -5.21009339e-04 -1.42404685e-03  5.00090569e-03
 -5.98680871e-05  1.23917071e-03  1.20224610e-01  1.47595086e-01  5.59242035e-02
 -7.94583247e-03 -7.01361379e-03  4.09565528e-02 -3.21229873e-03 -5.01207955e-03
  2.45304833e-03  4.96395946e-04 -5.78900617e-04 -2.43111709e-03  1.47928620e-04
 -5.89424643e-02  4.63042957e-03 -1.20767537e-05 -1.27555749e-02 -3.58798600e-03
 -1.19929823e-01 -1.96588344e-02  4.14502525e-03  1.11811217e-02 -7.18109401e-03
 -1.37661368e-01 -2.42584171e-02  5.71552174e-03 -3.48944235e-03  1.28766323e-02
 -1.56763929e-01 -3.30628732e-02 -6.01893922e-03 -1.38068848e-02 -2.76638713e-03
  2.63079740e-02  6.80309225e-03  2.55101193e-03  4.81166030e-03 -3.32853027e-04
  1.48801697e-01  2.56680591e-02  5.51005902e-03 -1.38884260e-02  6.29068548e-03
  1.67846215e-03  5.64636018e-03 -2.52270259e-03  9.49758874e-02 -1.21640820e-01
  3.12364335e-02  2.88018756e-02 -3.31726403e-02  8.02778853e-03  3.86045472e-03
 -1.24541025e-03  1.62629053e-03 -1.05060017e-02  3.68786779e-03  3.25825676e-03
 -1.51663489e-01 -1.06076732e-01 -3.51441456e-03 -1.79342186e-01  5.38545998e-02
 -1.92777582e-02 -5.64473808e-02  1.28881270e-02 -4.31265272e-03 -8.46943438e-04
 -3.15361327e-04 -4.48895272e-03 -1.73539147e-04 -3.39696334e-03  1.40434191e-01
  9.39673755e-02  1.60257075e-02 -3.20882751e-02  3.21480141e-03  2.11967698e-02
 -2.67513351e-02  8.66505006e-03  1.32858865e-03 -3.97044151e-04  2.25612950e-03
  8.61206663e-03 -1.33629259e-03 -1.23874570e-03 -1.44499595e-01 -1.08231653e-01
 -4.50893861e-02  2.37495006e-01  3.41677008e-02  5.15356194e-03  5.34229008e-02
  1.46091191e-03 -2.56838535e-03 -9.57297405e-04 -6.14465875e-04 -6.89213757e-03
  7.49244924e-03 -1.47998130e-03  6.14711834e-02  1.07171644e-01  1.81647852e-01
  1.80793749e-01 -1.95673772e-02  8.86989373e-02  9.59859913e-02 -6.04197748e-03
  2.42798839e-03  5.78371621e-04 -1.54357996e-04 -1.11714198e-02 -6.95417336e-03
  1.60314088e-01  5.49205288e-02 -6.17968736e-03 -6.54332599e-03  7.75334020e-03
 -4.28586350e-02 -1.06627901e-02  4.31151205e-03  3.83815740e-04 -9.23681956e-04
  7.15538294e-02  1.88770489e-02 -7.31314094e-04 -4.32861935e-03 -5.64768632e-03
 -1.90345548e-01 -4.63732728e-02 -1.01858779e-02 -1.24345724e-02 -2.82311282e-03
  7.54715525e-02  2.55124550e-02  8.21854306e-03  3.41124671e-04 -1.40497753e-04
 -1.90086317e-01 -4.84723676e-02 -1.02809185e-02  1.14318694e-02 -6.42205787e-03
 -6.58122662e-04  6.50619979e-02  4.35682116e-02  1.43722669e-01  8.48474873e-02
 -7.15125874e-04  3.26783284e-02  5.13906105e-02 -2.27528879e-03  4.97623190e-03
  1.37506109e-03 -1.41795706e-03 -6.39258859e-03 -4.92879102e-03 -5.06365082e-04
 -7.18053218e-02 -4.99148306e-02 -1.13641259e-01  1.10619053e-01 -1.73345901e-02
 -6.95165018e-02  3.18241579e-02 -1.80640864e-06 -5.59615470e-04 -4.98927050e-04
 -1.31571251e-03  1.07869838e-02  1.17537802e-02 -6.53086361e-03  8.17151251e-02