Generated by Psi4
        SP                           RHF                       CC-PVDZ
Number of atoms                            I               11
Charge                                     I                0
Multiplicity                               I                1
Number of electrons                        I               38
Number of alpha electrons                  I               19
Number of beta electrons                   I               19
Number of basis functions                  I              100
Number of independent functions            I              100
Atomic numbers                             I   N=          11
           6           6           6           6           8           1
           1           1           1           1           1
Nuclear charges                            R   N=          11
  6.00000000e+00  6.00000000e+00  6.00000000e+00  6.00000000e+00  8.00000000e+00
  1.00000000e+00  1.00000000e+00  1.00000000e+00  1.00000000e+00  1.00000000e+00
  1.00000000e+00
Current cartesian coordinates              R   N=          33
  1.95763265e+00  2.62387879e+00 -2.01231316e-01 -8.53232083e-01  2.39530326e+00
 -1.47569840e-01 -2.09882280e+00  1.91123969e-01  1.68606663e-01 -8.61672734e-01
 -2.29710335e+00  7.46190366e-02  1.40929645e+00 -2.70062138e+00  1.21549629e-01
  2.76284584e+00  9.83629583e-01 -1.19290524e+00  2.64722709e+00  4.42279358e+00
 -9.69893877e-01  2.66530806e+00  2.42276446e+00  1.74798363e+00 -2.19838580e+00
 -3.91278112e+00 -1.73911904e-01 -4.16024791e+00  1.43448523e-01  3.01617342e-01
 -1.98309998e+00  4.11396095e+00 -3.84901905e-01
Integer atomic weights                     I   N=          11
          12          12          12          12          16           1
           1           1           1           1           1
Real atomic weights                        R   N=          11
  1.20000000e+01  1.20000000e+01  1.20000000e+01  1.20000000e+01  1.59949146e+01
  1.00782503e+00  1.00782503e+00  1.00782503e+00  1.00782503e+00  1.00782503e+00
  1.00782503e+00
Number of primitive shells                 I              140
Number of contracted shells                I               48
Pure/Cartesian d shells                    I                0
Pure/Cartesian f shells                    I                0
Highest angular momentum                   I                2
Largest degree of contraction              I                8
Shell types                                I   N=          48
           0           0           0           1           1          -2
           0           0           0           1           1          -2
           0           0           0           1           1          -2
           0           0           0           1           1          -2
           0           0           0           1           1          -2
           0           0           1           0           0           1
           0           0           1           0           0           1
           0           0           1           0           0           1
Number of primitives per shell             I   N=          48
           8           8           1           3           1           1
           8           8           1           3           1           1
           8           8           1           3           1           1
           8           8           1           3           1           1
           8           8           1           3           1           1
           3           1           1           3           1           1
           3           1           1           3           1           1
           3           1           1           3           1           1
Shell to atom map                          I   N=          48
           1           1           1           1           1           1
           2           2           2           2           2           2
           3           3           3           3           3           3
           4           4           4           4           4           4
           5           5           5           5           5           5
           6           6           6           7           7           7
           8           8           8           9           9           9
          10          10          10          11          11          11
Primitive exponents                        R   N=         140
  6.66500000e+03  1.00000000e+03  2.28000000e+02  6.47100000e+01  2.10600000e+01
  7.49500000e+00  2.79700000e+00  5.21500000e-01  6.66500000e+03  1.00000000e+03
  2.28000000e+02  6.47100000e+01  2.10600000e+01  7.49500000e+00  2.79700000e+00
  5.21500000e-01  1.59600000e-01  9.43900000e+00  2.00200000e+00  5.45600000e-01
  1.51700000e-01  5.50000000e-01  6.66500000e+03  1.00000000e+03  2.28000000e+02
  6.47100000e+01  2.10600000e+01  7.49500000e+00  2.79700000e+00  5.21500000e-01
  6.66500000e+03  1.00000000e+03  2.28000000e+02  6.47100000e+01  2.10600000e+01
  7.49500000e+00  2.79700000e+00  5.21500000e-01  1.59600000e-01  9.43900000e+00
  2.00200000e+00  5.45600000e-01  1.51700000e-01  5.50000000e-01  6.66500000e+03
  1.00000000e+03  2.28000000e+02  6.47100000e+01  2.10600000e+01  7.49500000e+00
  2.79700000e+00  5.21500000e-01  6.66500000e+03  1.00000000e+03  2.28000000e+02
  6.47100000e+01  2.10600000e+01  7.49500000e+00  2.79700000e+00  5.21500000e-01
  1.59600000e-01  9.43900000e+00  2.00200000e+00  5.45600000e-01  1.51700000e-01
  5.50000000e-01  6.66500000e+03  1.00000000e+03  2.28000000e+02  6.47100000e+01
  2.10600000e+01  7.49500000e+00  2.79700000e+00  5.21500000e-01  6.66500000e+03
  1.00000000e+03  2.28000000e+02  6.47100000e+01  2.10600000e+01  7.49500000e+00
  2.79700000e+00  5.21500000e-01  1.59600000e-01  9.43900000e+00  2.00200000e+00
  5.45600000e-01  1.51700000e-01  5.50000000e-01  1.17200000e+04  1.75900000e+03
  4.00800000e+02  1.13700000e+02  3.70300000e+01  1.32700000e+01  5.02500000e+00
  1.01300000e+00  1.17200000e+04  1.75900000e+03  4.00800000e+02  1.13700000e+02
  3.70300000e+01  1.32700000e+01  5.02500000e+00  1.01300000e+00  3.02300000e-01
  1.77000000e+01  3.85400000e+00  1.04600000e+00  2.75300000e-01  1.18500000e+00
  1.30100000e+01  1.96200000e+00  4.44600000e-01  1.22000000e-01  7.27000000e-01
  1.30100000e+01  1.96200000e+00  4.44600000e-01  1.22000000e-01  7.27000000e-01
  1.30100000e+01  1.96200000e+00  4.44600000e-01  1.22000000e-01  7.27000000e-01
  1.30100000e+01  1.96200000e+00  4.44600000e-01  1.22000000e-01  7.27000000e-01
  1.30100000e+01  1.96200000e+00  4.44600000e-01  1.22000000e-01  7.27000000e-01
  1.30100000e+01  1.96200000e+00  4.44600000e-01  1.22000000e-01  7.27000000e-01
Contraction coefficients                   R   N=         140
  6.91583963e-04  5.32579615e-03  2.70607210e-02  1.01656846e-01  2.74574824e-01
  4.48294319e-01  2.84902611e-01  1.51948592e-02 -2.93269653e-04 -2.31803547e-03
 -1.14997860e-02 -4.68267270e-02 -1.28466169e-01 -3.01266272e-01 -2.55630702e-01
  1.09379336e+00  1.00000000e+00  5.69792516e-02  3.13207212e-01  7.60376742e-01
  1.00000000e+00  1.00000000e+00  6.91583963e-04  5.32579615e-03  2.70607210e-02
  1.01656846e-01  2.74574824e-01  4.48294319e-01  2.84902611e-01  1.51948592e-02
 -2.93269653e-04 -2.31803547e-03 -1.14997860e-02 -4.68267270e-02 -1.28466169e-01
 -3.01266272e-01 -2.55630702e-01  1.09379336e+00  1.00000000e+00  5.69792516e-02
  3.13207212e-01  7.60376742e-01  1.00000000e+00  1.00000000e+00  6.91583963e-04
  5.32579615e-03  2.70607210e-02  1.01656846e-01  2.74574824e-01  4.48294319e-01
  2.84902611e-01  1.51948592e-02 -2.93269653e-04 -2.31803547e-03 -1.14997860e-02
 -4.68267270e-02 -1.28466169e-01 -3.01266272e-01 -2.55630702e-01  1.09379336e+00
  1.00000000e+00  5.69792516e-02  3.13207212e-01  7.60376742e-01  1.00000000e+00
  1.00000000e+00  6.91583963e-04  5.32579615e-03  2.70607210e-02  1.01656846e-01
  2.74574824e-01  4.48294319e-01  2.84902611e-01  1.51948592e-02 -2.93269653e-04
 -2.31803547e-03 -1.14997860e-02 -4.68267270e-02 -1.28466169e-01 -3.01266272e-01
 -2.55630702e-01  1.09379336e+00  1.00000000e+00  5.69792516e-02  3.13207212e-01
  7.60376742e-01  1.00000000e+00  1.00000000e+00  7.09645947e-04  5.46727229e-03
  2.78231186e-02  1.04747740e-01  2.82920846e-01  4.48495239e-01  2.70816885e-01
  1.54502916e-02 -3.14443412e-04 -2.48213768e-03 -1.23163554e-02 -5.05389173e-02
 -1.39384903e-01 -3.25077495e-01 -2.29848308e-01  1.09537935e+00  1.00000000e+00
  6.26791663e-02  3.33536566e-01  7.41239642e-01  1.00000000e+00  1.00000000e+00
  3.34987264e-02  2.34800801e-01  8.13682958e-01  1.00000000e+00  1.00000000e+00
  3.34987264e-02  2.34800801e-01  8.13682958e-01  1.00000000e+00  1.00000000e+00
  3.34987264e-02  2.34800801e-01  8.13682958e-01  1.00000000e+00  1.00000000e+00
  3.34987264e-02  2.34800801e-01  8.13682958e-01  1.00000000e+00  1.00000000e+00
  3.34987264e-02  2.34800801e-01  8.13682958e-01  1.00000000e+00  1.00000000e+00
  3.34987264e-02  2.34800801e-01  8.13682958e-01  1.00000000e+00  1.00000000e+00
Coordinates of each shell                  R   N=         144
  1.95763265e+00  2.62387879e+00 -2.01231316e-01  1.95763265e+00  2.62387879e+00
 -2.01231316e-01  1.95763265e+00  2.62387879e+00 -2.01231316e-01  1.95763265e+00
  2.62387879e+00 -2.01231316e-01  1.95763265e+00  2.62387879e+00 -2.01231316e-01
  1.95763265e+00  2.62387879e+00 -2.01231316e-01 -8.53232083e-01  2.39530326e+00
 -1.47569840e-01 -8.53232083e-01  2.39530326e+00 -1.47569840e-01 -8.53232083e-01
  2.39530326e+00 -1.47569840e-01 -8.53232083e-01  2.39530326e+00 -1.47569840e-01
 -8.53232083e-01  2.39530326e+00 -1.47569840e-01 -8.53232083e-01  2.39530326e+00
 -1.47569840e-01 -2.09882280e+00  1.91123969e-01  1.68606663e-01 -2.09882280e+00
  1.91123969e-01  1.68606663e-01 -2.09882280e+00  1.91123969e-01  1.68606663e-01
 -2.09882280e+00  1.91123969e-01  1.68606663e-01 -2.09882280e+00  1.91123969e-01
  1.68606663e-01 -2.09882280e+00  1.91123969e-01  1.68606663e-01 -8.61672734e-01
 -2.29710335e+00  7.46190366e-02 -8.61672734e-01 -2.29710335e+00  7.46190366e-02
 -8.61672734e-01 -2.29710335e+00  7.46190366e-02 -8.61672734e-01 -2.29710335e+00
  7.46190366e-02 -8.61672734e-01 -2.29710335e+00  7.46190366e-02 -8.61672734e-01
 -2.29710335e+00  7.46190366e-02  1.40929645e+00 -2.70062138e+00  1.21549629e-01
  1.40929645e+00 -2.70062138e+00  1.21549629e-01  1.40929645e+00 -2.70062138e+00
  1.21549629e-01  1.40929645e+00 -2.70062138e+00  1.21549629e-01  1.40929645e+00
 -2.70062138e+00  1.21549629e-01  1.40929645e+00 -2.70062138e+00  1.21549629e-01
  2.76284584e+00  9.83629583e-01 -1.19290524e+00  2.76284584e+00  9.83629583e-01
 -1.19290524e+00  2.76284584e+00  9.83629583e-01 -1.19290524e+00  2.64722709e+00
  4.42279358e+00 -9.69893877e-01  2.64722709e+00  4.42279358e+00 -9.69893877e-01
  2.64722709e+00  4.42279358e+00 -9.69893877e-01  2.66530806e+00  2.42276446e+00
  1.74798363e+00  2.66530806e+00  2.42276446e+00  1.74798363e+00  2.66530806e+00
  2.42276446e+00  1.74798363e+00 -2.19838580e+00 -3.91278112e+00 -1.73911904e-01
 -2.19838580e+00 -3.91278112e+00 -1.73911904e-01 -2.19838580e+00 -3.91278112e+00
 -1.73911904e-01 -4.16024791e+00  1.43448523e-01  3.01617342e-01 -4.16024791e+00
  1.43448523e-01  3.01617342e-01 -4.16024791e+00  1.43448523e-01  3.01617342e-01
 -1.98309998e+00  4.11396095e+00 -3.84901905e-01 -1.98309998e+00  4.11396095e+00
 -3.84901905e-01 -1.98309998e+00  4.11396095e+00 -3.84901905e-01
Total Energy                               R     -2.312392034784683e+02
Alpha Orbital Energies                     R   N=         100
 -1.91347209e+01 -1.02721577e+01 -1.02232761e+01 -1.01968546e+01 -1.01890370e+01
 -1.03907444e+00 -8.12325723e-01 -7.17506735e-01 -6.28685960e-01 -5.35029188e-01
 -4.97894978e-01 -4.41035855e-01 -4.32707584e-01 -4.21193531e-01 -3.84904428e-01
 -3.80688752e-01 -3.75419681e-01 -2.73842077e-01 -2.48558188e-01 -6.46769861e-02
  5.00620661e-02  6.47703244e-02  9.04393231e-02  1.06148268e-01  1.30313215e-01
  1.45184046e-01  1.60640217e-01  2.17628798e-01  2.64697641e-01  3.22227447e-01
  3.38982682e-01  4.33925978e-01  4.36052395e-01  4.51524456e-01  4.71179576e-01
  4.84714700e-01  5.07670714e-01  5.26944391e-01  5.68120779e-01  5.96641505e-01
  6.18247785e-01  6.26877466e-01  6.38799735e-01  6.52167684e-01  6.73745236e-01
  6.83880463e-01  7.04221041e-01  7.71490114e-01  8.16790485e-01  8.49909520e-01
  9.13579819e-01  9.25540108e-01  9.56409335e-01  1.01931554e+00  1.02787505e+00
  1.05070321e+00  1.08357753e+00  1.14305884e+00  1.18168809e+00  1.19216289e+00
  1.29236050e+00  1.36587997e+00  1.39804952e+00  1.47508114e+00  1.49084886e+00
  1.49556208e+00  1.54804522e+00  1.56754559e+00  1.61927386e+00  1.63192629e+00
  1.65494778e+00  1.65850378e+00  1.67286742e+00  1.69383711e+00  1.73484877e+00
  1.75522320e+00  1.78797720e+00  1.80366690e+00  1.85378468e+00  1.92091075e+00
  1.96463287e+00  1.97496983e+00  2.01700477e+00  2.06852213e+00  2.10409680e+00
  2.24433011e+00  2.31836971e+00  2.34502026e+00  2.40382318e+00  2.41346906e+00
  2.42153816e+00  2.49048532e+00  2.57846566e+00  2.64984207e+00  2.69885197e+00
  2.79738673e+00  2.98659104e+00  3.06663648e+00  3.42005903e+00  3.47816168e+00
Alpha MO coefficients                      R   N=       10000
 -6.96927251e-05 -1.45255911e-04  7.93161264e-05  6.51649484e-05  4.25077599e-05
  9.17969368e-06 -4.64395667e-05 -1.52890431e-04  1.61922519e-04  7.59407338e-05
  3.28457644e-05  3.49586543e-05  7.76421027e-05 -1.00599532e-04 -2.03117211e-04
 -3.62512458e-04  5.34230700e-03 -2.26771840e-05 -1.92142065e-05 -6.01424522e-05
 -9.57787970e-04 -2.19483938e-03  5.01617697e-04 -3.04965862e-05  3.14422223e-05
 -2.10795204e-05 -5.00563077e-05 -5.23917614e-05  2.02779992e-04  3.11215001e-04
 -3.87182036e-03  2.38082309e-05  2.78159126e-04 -1.12887914e-05 -4.48372952e-03
 -3.57391585e-03  2.98846848e-04  1.26602995e-04  5.32653914e-05  8.97170883e-05
 -3.95777280e-04  4.96686845e-04  4.53325811e-04  5.95212540e-04  5.31461879e-03
 -9.48505403e-05 -1.81014609e-04 -3.28174206e-05  6.60302912e-03  5.38539204e-04
  1.22035347e-04 -1.45443793e-05  1.34210621e-05  9.22687729e-05 -1.15893856e-03
  5.16393923e-04  1.00416553e+00  9.46416788e-03 -1.50766502e-02 -1.83507799e-03
  3.58769899e-04 -5.70075890e-05  3.50209998e-03 -8.34357062e-04  9.29302742e-05
 -1.84496647e-05  1.86739153e-06 -3.52206084e-06  6.75056298e-05  9.39889282e-06
 -1.17087974e-04 -1.15582708e-04  3.18180343e-05 -2.22645615e-05  3.12544107e-05
  1.23346497e-04  3.59543214e-04 -7.48186000e-05 -6.91303749e-05  4.39746265e-05
 -1.08925133e-04 -2.44959943e-04  6.86762568e-05  6.35155962e-05  5.85019744e-05
 -1.68278129e-04  8.97098775e-04 -7.66920616e-04  1.06691388e-04 -3.38441507e-06
 -2.83603265e-04 -1.31070460e-03  1.83964653e-04  2.48917532e-04 -6.62087284e-07
 -1.81596177e-04  2.22390775e-04  4.18916458e-05  8.05696350e-05 -2.92747610e-05
 -3.71704595e-04 -4.92422041e-04  8.93232877e-04  2.89289943e-04  7.18028254e-05
  6.94260429e-07 -6.26166796e-04  5.67848455e-05  1.94062630e-05 -1.74095045e-05
 -7.02325155e-05  8.17706784e-07 -1.15070424e-04 -4.07100525e-05 -4.32335558e-04
 -6.34367850e-04  6.51234357e-03 -2.71737802e-04 -2.52727142e-05  5.07725469e-05
 -2.11600894e-03 -3.80973927e-03  6.17257325e-04 -3.97547384e-04 -1.96196958e-04
 -9.75892073e-05  2.91047103e-04  3.54988355e-04  1.66975056e-03 -2.63628533e-04
 -1.94383800e-03 -3.54068184e-04  7.73265971e-04  4.76792248e-05 -2.60563991e-03
 -5.96580775e-03  4.19574076e-04  1.04477453e-03  6.07550873e-06 -2.03406613e-05
  1.11995466e-03  8.62570619e-04  1.00594604e+00  1.52974332e-02 -1.07288962e-02
  7.20592268e-04 -4.88838075e-04 -1.00579216e-04  5.40230302e-03 -2.06141017e-03
  4.93353993e-06 -1.63877167e-03  2.16320018e-04  2.00976412e-04  8.27698537e-04
 -1.50006366e-06  3.67970411e-04  9.10066075e-04 -5.91748335e-03  7.41232714e-04
 -2.09064146e-04  5.81395331e-07  3.39972838e-03 -2.06270222e-04  9.53937266e-05
  5.69156916e-04 -2.67757060e-05 -1.91424904e-05 -7.26849674e-04  2.53594270e-04
 -1.12669197e-04 -6.09511734e-05  2.52398638e-05  1.95697786e-06 -1.32124977e-05
 -5.17209940e-05  3.59208150e-04 -5.26369519e-05 -2.61581675e-05  9.11473873e-06
 -6.49671782e-05 -7.34321051e-06  1.05715823e-04  5.28930622e-05 -4.49875959e-05
 -1.69512342e-03  2.47457668e-03 -1.43401538e-03 -1.45864629e-03 -2.32014431e-04
 -5.32491928e-04 -4.94110009e-04  5.05361380e-05  2.74359019e-04 -3.18795908e-05
 -3.02385574e-05  6.14408649e-04  2.24893098e-04  1.03603220e-04 -3.43298972e-05
  3.13886581e-03 -4.03994269e-04  4.35302171e-03  7.29934638e-04  4.32885152e-05
  5.95940344e-05 -2.41268560e-03 -8.31290597e-04 -3.38984510e-04  7.88533673e-04
  8.45506126e-05  3.38977799e-05 -9.86054206e-04 -6.16515561e-05  1.00635575e+00
  1.61959895e-02 -2.02654821e-02 -5.21881068e-04  1.90806166e-04 -1.78647832e-05
 -2.26933524e-03  3.91802877e-03 -4.80884908e-04 -1.04455806e-03  1.13411976e-04
 -3.31525781e-04 -5.41033891e-04 -4.26965892e-04  1.25695712e-02 -1.23691393e-03
  4.83156844e-03 -7.20027060e-04 -1.07882348e-03  1.66431887e-04  2.72425084e-03
  2.67830908e-03 -2.96010910e-04  8.73650912e-04  1.40890499e-04  3.05592865e-04
  5.05383317e-04 -9.68657850e-04 -2.81608048e-04 -5.60591375e-04  1.18631739e-03
 -2.13998326e-05 -2.07729356e-04  4.02415520e-05 -4.56313941e-04  1.06713699e-03
 -6.06810234e-05 -3.28886419e-04 -1.00795715e-04 -1.16778753e-05  1.63378733e-04
 -9.90466653e-06 -3.38919324e-05 -7.18222423e-05 -1.18845557e-04  1.21207475e-04
  1.40374304e-05  1.69356480e-05 -1.22364400e-04 -3.38506480e-04  3.02689652e-05
  1.12138304e-05 -2.66594880e-05  3.53605317e-06  3.63041299e-06  2.45996085e-05
 -4.24712961e-04  4.12830537e-04 -1.33693263e-04 -8.19809896e-06  5.24025175e-05
 -2.66740498e-04  2.06162686e-04  1.47212072e-04  1.46836421e-05  7.40063805e-05
 -4.68993386e-04  1.16457769e-03 -2.00918875e-04  3.54212721e-06  2.66852065e-05
 -8.66417198e-05  3.32254223e-04  4.63022594e-05 -7.30961351e-05 -1.56502640e-05
  1.76832937e-04  9.51915267e-04  1.62933078e-04 -2.64901941e-04  1.09472833e-08
 -2.47282630e-03  1.10093171e-03 -1.24941397e-03  1.80058176e-03 -2.45178985e-04
  1.22314583e-03  4.79915111e-04 -2.81220138e-04 -1.07785121e-04 -1.36898755e-04
  1.06611990e-04  8.98975629e-04  7.60532245e-05 -2.84180310e-04  3.03863483e-04
  2.60777286e-05  6.26096200e-05 -4.72562421e-05  1.22732845e-04  1.40350567e-02
  1.74386652e-03 -6.18479385e-03 -5.98236487e-04 -1.21949711e-03  1.80698767e-04
  7.22673076e-04  3.72990831e-03 -1.94926149e-04 -9.16088074e-04 -1.93615672e-04
 -3.29327859e-04 -6.11449929e-04  9.24046278e-04 -1.00651125e+00 -1.66052741e-02
  2.11740169e-02  3.29871510e-04 -2.40886864e-04  1.66400010e-04  5.28802308e-03
  2.88494364e-04 -9.44913580e-04  1.10159687e-03  1.86310354e-04  1.20041797e-04
 -4.41263085e-04 -5.22545091e-04  1.99295506e-03  7.82871255e-04 -5.68279051e-03
 -2.65812665e-04  7.14289865e-04  5.56961512e-05 -3.44450360e-04 -3.44252782e-03
  4.92634235e-05 -7.06090393e-04 -1.68065574e-04  7.39407479e-05 -5.57711114e-04
 -1.21794892e-03 -3.63753202e-05 -6.31590529e-05  7.32540761e-04 -1.51740338e-05
  6.26828937e-05  4.17112942e-05  1.40289393e-04  6.31658572e-04 -5.36808607e-05
  1.28772285e-04 -4.22711729e-05 -1.23349397e-05 -8.24958998e-05 -2.18926458e-04
  1.38450676e-04 -3.27600830e-04 -1.80351556e-05 -7.50935583e-05  5.38237610e-05
 -3.47719081e-05 -3.55256523e-04 -4.59996001e-05  4.78629988e-05  2.94440364e-05
  8.05796726e-05 -2.00029479e-04 -4.15044631e-05 -8.39664779e-05  1.35234816e-04
  2.86986083e-04 -9.66214373e-04 -7.39240256e-05  1.94663966e-04 -3.51639767e-05
  2.50996840e-03 -8.35461751e-04  2.19076707e-03 -9.11383875e-05 -7.21703923e-05
 -1.10043474e-04 -8.50163867e-04 -2.93155261e-04  4.05647725e-05 -4.25831711e-05
  1.00703729e+00  1.75394950e-02 -1.93391342e-02  4.03551355e-04  3.41395931e-06
  2.08059163e-04  2.89900965e-03  5.04713331e-04 -5.37917518e-04  1.71056105e-04
 -3.63744681e-06 -1.48253078e-04 -6.65979129e-04  8.12153077e-05 -3.32680195e-03
 -2.61132833e-04  1.56519890e-03 -4.94606138e-04  5.10784696e-05  1.31461902e-06
  4.17779759e-03  2.38110273e-03 -3.10286605e-04  6.47872742e-04  1.04647539e-04
 -1.23072618e-05 -1.33199713e-03 -3.92942940e-04  5.40880783e-04 -6.61246537e-04
  3.70417337e-03 -2.36684158e-04  3.74685584e-05 -4.21832686e-06  1.24236898e-03
  2.60551037e-03 -3.84913572e-04 -3.71902593e-04  2.69947514e-05 -1.11095300e-04
 -4.20627019e-04 -2.14421868e-04 -1.28031859e-04 -5.08656216e-04  3.58966976e-04
 -7.35641181e-05 -2.69732691e-04 -4.08942057e-05 -2.32326332e-04  4.77947234e-04
  1.32733602e-04 -3.67558835e-05 -2.91487298e-05 -3.01156674e-05  3.14729466e-05
  5.39375141e-05 -1.04200700e-04 -2.01935223e-04  3.59692541e-04  3.16478531e-05
 -1.11329362e-04 -2.31912180e-05 -2.56787832e-04  2.42748378e-04  6.67542005e-05
 -5.71099788e-05  6.27110616e-07  6.68419877e-06  1.97409979e-06 -1.43732568e-06
 -1.10549818e-03  2.10765373e-03  6.01046429e-04 -1.49352650e-03 -9.22516088e-04
 -1.53487226e-03  1.73795654e-03  6.19208581e-04  1.81222737e-03 -7.78396419e-04
 -1.05684678e-03  2.39320402e-03  4.74709062e-04 -2.16073660e-04  1.83179342e-03
  1.64075958e-05  3.75430874e-04  1.17695895e-05  5.91129438e-05 -1.61621405e-05
  4.09562033e-05  4.99700908e-04  6.21595527e-05 -1.91542544e-04  2.82984865e-05
 -3.79242664e-04  1.43599618e-04 -3.89802096e-04 -1.77619105e-04  2.79163703e-05
 -5.13916863e-04  8.19897025e-03  5.00519323e-03 -3.39745876e-03 -3.95586595e-03
 -2.66279997e-05 -2.75719530e-03 -1.32869168e-03  8.20306616e-04 -7.21295751e-04
 -1.18390680e-04 -1.64211495e-04  1.03494091e-04  9.01074608e-04  4.49687474e-04
  1.72142198e-02 -1.16984365e-02  4.10474308e-04 -1.08540640e-02  1.14224266e-03
 -1.83348212e-03  9.13403296e-03 -1.21457566e-03 -5.15724246e-04 -2.10943311e-04
 -4.80872416e-04 -1.52177571e-03  7.36951387e-04 -3.73252460e-03  3.66953059e-02
  3.17723851e-02  2.14373286e-02 -1.96408536e-02 -1.15477392e-03  1.98093806e-02
  1.89900522e-03 -1.95234148e-03 -3.72907790e-03 -4.92571292e-04 -6.87081703e-05
 -2.84129039e-04 -9.09975402e-03 -1.47913523e-02  2.24181778e-01  9.45498585e-02
  1.83869834e-01 -2.41485236e-02  3.78179547e-03  1.25340092e-02 -2.36638177e-03
  9.45008523e-04 -1.38400669e-02  4.22528982e-04 -1.49281736e-03  3.13214995e-02
 -1.35591606e-02 -9.23264750e-03  4.01906655e-01  3.60996655e-01 -1.54795795e-01
  3.11491871e-02 -3.83694767e-03 -3.17629546e-02  7.63959486e-03 -1.51925242e-03
 -5.39260399e-03  2.99217126e-04 -7.69923710e-04  1.20357668e-02 -4.95462654e-03
  7.85472703e-03  4.01254649e-03 -7.11242185e-04 -3.49904266e-04  7.07046666e-04
  1.12817926e-03 -4.49192545e-04  2.22446967e-05 -5.57602004e-05 -7.48411737e-05
  2.86034174e-03  7.70202337e-04 -3.30720263e-04 -3.63012163e-04 -5.64467364e-04
  4.03755926e-02 -3.27526969e-03  1.00611391e-02  6.13424072e-03  1.06197145e-03
  7.36086708e-03  6.06087215e-03  1.06572221e-03 -1.87844094e-03 -9.50239262e-05
  1.95301846e-03 -2.97039195e-03 -1.72483322e-04 -8.51463139e-04  1.42025076e-04
  1.13294836e-02 -1.80885541e-01 -7.39870903e-02  6.76925319e-02  1.44734192e-02
 -5.21361134e-03  1.87629478e-03 -9.25747520e-03  2.73163358e-03  5.74259206e-03
  6.40914408e-04 -9.02735758e-05 -1.01043564e-02 -3.23033187e-03  2.00776579e-02
 -2.89458434e-01 -2.03414052e-01 -4.88001164e-03  7.08563539e-02 -8.97170474e-03
 -3.31116229e-02  2.53147129e-02 -3.81051709e-03  1.00074725e-02  1.32256710e-03
  1.89745768e-03 -2.19589212e-03 -9.97370393e-03  1.74055552e-02 -2.53638167e-01
 -1.37884104e-01 -5.93190057e-02 -5.65857600e-02  1.52427112e-02 -2.14208344e-03
 -2.19166684e-02  3.92706340e-03  6.83017871e-03  1.62106969e-03  2.11870449e-03
  8.78005484e-03 -8.61874768e-03  2.61285072e-03 -6.42264516e-02 -5.15788423e-02
  7.28210167e-02 -8.11476658e-02  1.08971580e-03  2.37275986e-02 -2.31691635e-02
 -1.20280129e-03  2.71817487e-03  4.29507930e-04 -3.30284699e-04  1.34670917e-02
  3.14752243e-03 -3.71191894e-04  7.78925345e-02  7.51339703e-02 -1.26578772e-02
 -1.66933902e-02  1.08252849e-04  1.05629136e-03 -7.25053055e-03  5.99123285e-04
  1.66657837e-04  9.16584233e-06  2.87475899e-05  1.74304103e-03  1.59310511e-03
 -6.82265837e-02 -2.12167546e-03  4.63153080e-03 -7.93886735e-03 -5.20733939e-03
 -5.93429653e-02 -4.47081480e-04  4.87251525e-03  8.14809857e-03 -3.45973371e-03
 -6.93307825e-02 -3.54283755e-03  4.34552198e-03 -1.27018009e-04  9.29216726e-03
 -1.85320276e-02 -4.32915574e-05  9.13598419e-05 -3.49401505e-03 -1.29670874e-04
 -8.23809509e-02 -2.21270377e-03 -1.40623535e-02 -1.96934944e-03  1.17282627e-03
 -9.87654910e-02 -1.36864480e-02 -7.01436089e-03  1.36615475e-02 -1.79600308e-03
  1.44364655e-02 -2.83148018e-01 -1.20364888e-01  2.00501342e-02 -6.81087239e-03
 -5.39949969e-03 -1.59400017e-02 -8.00057826e-03  7.57439248e-04  1.45611658e-03
 -7.88046103e-05 -1.66462452e-04 -3.10067363e-03  2.32057836e-03  5.40643647e-03
 -5.28333564e-02 -8.78589053e-02 -1.37415060e-01 -8.94133714e-02  1.03382948e-02
 -8.92072085e-02 -6.20742854e-03  1.50867239e-03  3.81577648e-03 -4.16889717e-04
 -1.12492381e-03 -1.76943594e-02  4.30066632e-03 -1.38681568e-02  2.27590208e-01
  1.66064961e-01 -6.63983965e-03 -6.23034695e-02 -4.90238790e-03  3.43315484e-02
 -3.61206317e-02 -1.53761045e-03 -4.36221974e-03 -7.06079514e-05  4.73785694e-04
 -9.78640105e-03 -6.07579974e-03 -3.34300618e-03  1.59171567e-01  7.08815312e-02
 -1.11256669e-01  7.55190615e-02  3.28636250e-04 -3.92548455e-02  9.35764261e-03
 -1.31611591e-03 -1.71963452e-03 -3.85799792e-04  2.93982320e-04 -9.60733336e-03
 -6.14182377e-03 -2.24376932e-04 -8.44303285e-02 -8.46672115e-02 -2.15707986e-02
  6.72490547e-03  1.46235370e-03 -2.16638752e-02  1.37091981e-03  1.62148640e-04
 -9.52949089e-04  6.64934285e-05  3.09132718e-04  1.24740696e-03 -2.00926494e-03
 -1.21654550e-01 -1.68313031e-02  6.52640948e-03 -1.29727911e-02 -8.12908685e-03
 -1.30733728e-01 -1.49894422e-02  6.08152691e-03  1.53573495e-02 -6.93789312e-03
 -1.29486356e-01 -1.67000997e-02  5.76892065e-03 -1.95491335e-03  1.61665171e-02
  7.53443228e-02  3.21631569e-03  3.67135516e-03  9.12473529e-03  1.17476235e-03
  1.16769856e-01  2.26257470e-02  1.48767996e-02 -1.04862596e-03 -1.03824022e-03
 -2.93496186e-02 -1.61405770e-02 -4.10427291e-03  7.71936242e-04 -1.64324053e-04
  5.77755298e-03 -1.80701513e-01 -9.97715590e-02 -7.41749870e-02 -2.17198350e-03
 -5.30789022e-03 -3.90075588e-02 -6.18714906e-03  6.41237266e-03 -5.05310138e-03
 -7.88739804e-04 -2.48466727e-04  7.44973440e-03  8.36890603e-04 -5.43478461e-03
  2.11886779e-01  1.00412742e-01 -1.44292891e-01 -1.42912668e-02  6.34711078e-03
 -4.34984251e-02  7.60477815e-05 -9.41295618e-04  2.93882279e-03 -1.53284544e-03
 -9.38039619e-04 -5.72071201e-03  3.93117936e-03 -1.38776177e-03  4.61636036e-03
  1.44734725e-02  7.72770621e-03  2.47421108e-01 -1.25276586e-02  4.14339260e-03
  7.61772299e-02 -3.14084386e-03  8.50511797e-04 -4.90259502e-04 -3.92611190e-03
  1.23333727e-03  1.12019706e-02  2.65349675e-03 -2.29734302e-01 -1.49249808e-01
  1.54019989e-01 -2.54006934e-02  4.36284036e-03  4.66209610e-02 -1.85068122e-02
  5.21762025e-04 -1.17081656e-03  9.16749960e-04 -6.62866166e-04  5.61038721e-03
  1.35974019e-03  1.04715053e-03  1.21113520e-01  1.40852013e-01  5.04083142e-02
 -1.04381214e-02  2.52917555e-03  3.89040629e-02 -6.59564925e-03  1.92241072e-03
  2.51879113e-03 -1.87326242e-04 -3.54823257e-05 -2.20841654e-03  5.97692300e-04
 -1.01299076e-01 -7.29575205e-03  3.27811852e-03 -1.03611374e-02 -5.74301445e-03
 -1.05587223e-01 -1.57247536e-02  2.30645717e-03  1.08234391e-02 -5.20160405e-03
 -1.09128870e-01 -2.11088807e-02  3.11964022e-03 -1.10684050e-03  1.14333023e-02
 -1.56642529e-01 -2.84892416e-02 -7.75245261e-03 -1.39782497e-02 -1.97428438e-03
 -5.94859642e-03 -1.22042907e-03 -4.12536297e-04  4.99961893e-03 -2.30995182e-04
  1.50385773e-01  2.59005982e-02  6.95269257e-03 -1.51810026e-02  2.30459584e-03
  1.45605814e-03 -4.00364353e-02 -3.24202000e-02 -1.09913860e-01  9.44333043e-02
 -1.13345643e-02 -3.07255596e-02  3.84509702e-02 -6.78615434e-03 -5.00969707e-03
  7.42416081e-04 -1.48948147e-03  9.46522312e-03 -6.33837578e-03 -2.66745099e-03
  1.41192327e-01  1.01841247e-01 -2.36428327e-03  2.23837383e-01 -3.34882448e-02
  2.59963591e-02  6.79274211e-02 -9.77003422e-03  3.87360872e-03  1.52334020e-03
  1.30036511e-03  1.21686150e-03 -5.99315820e-03  3.00406999e-03 -1.51710605e-01
 -1.06466400e-01 -2.11052022e-02 -5.82438207e-04 -7.75823676e-03 -2.31189765e-02
  2.82010191e-02 -6.74224498e-03 -3.71160716e-03  2.50279471e-04 -7.33497720e-04
 -1.33120219e-02  9.89312259e-04  6.84101621e-04  1.58696995e-01  1.20633859e-01
 -5.94751442e-02 -2.38088318e-01 -2.22993596e-02 -4.68225158e-02 -5.32140930e-02
 -4.19592203e-03  5.23870613e-03  7.01981845e-04 -1.03388919e-04 -7.58563412e-05
  7.99516879e-04  4.62043456e-04 -8.58398222e-02 -1.20820984e-01 -1.42091178e-01
 -1.12050824e-01 -9.33018797e-03 -8.33575199e-02 -6.20724534e-02 -5.33563269e-03
 -3.47661306e-03  1.22138073e-03  4.89283925e-04  9.02967372e-03  6.74166672e-03
 -1.07235178e-01 -3.53451551e-02  1.74014171e-03 -4.41184855e-03 -5.82765299e-03
  8.57620841e-03 -2.95339447e-03 -3.25551020e-03  1.79265476e-03  1.11658828e-04
 -6.25570139e-02 -1.88122220e-02 -6.51807977e-04  2.54244921e-03  5.66349587e-03
  2.29458912e-01  5.98976927e-02  1.16957240e-02  1.28395571e-02  2.31906449e-03
 -8.00978544e-02 -2.94185981e-02 -8.35888160e-03 -1.02942250e-03  4.18996662e-04
  2.18250294e-01  6.51592031e-02  1.09402200e-02 -1.22680351e-02  1.67772671e-03
  2.53155029e-03 -5.20762734e-02 -4.89878713e-02 -1.48651094e-01 -1.00199427e-01
  4.96202010e-03 -3.45537129e-02 -4.26009286e-02 -2.41736985e-03 -5.28396077e-03
 -8.06241282e-04  2.12519761e-03  7.42273523e-03  4.35324584e-03  6.34054138e-04
  8.59098459e-02  6.05678898e-02  1.36442632e-01 -1.14713470e-01  3.29098233e-03
  8.08112812e-02 -3.38072818e-02 -1.50256422e-03  1.56654241e-03  1.79081859e-03
  7.24829021e-04 -9.85367558e-03 -1.09062055e-02  5.80440913e-03 -7.51124635e-02