[Molden Format]
[Atoms] (AU)
C    1    6           1.9623571116         2.6262877666        -0.1979891966
C    2    6          -0.8575751718         2.3996430669        -0.1456429326
C    3    6          -2.1022604052         0.1860143119         0.1524924875
C    4    6          -0.8601559329        -2.3052887401         0.0751960371
O    5    8           1.4099641247        -2.7006819577         0.1295849817
H    6    1           2.7866751306         1.0023750155        -1.2076779157
H    7    1           2.6357545914         4.4317789532        -0.9771521343
H    8    1           2.6789165030         2.4407126737         1.7523248932
H    9    1          -2.2105975347        -3.9145856312        -0.1645538566
H   10    1          -4.1656914978         0.1618914855         0.2854529941
H   11    1          -1.9836765004         4.1305501459        -0.3644810414
[GTO]
  1 0
 s    8  1.00
     6665.0000000000         0.0006920000
     1000.0000000000         0.0053290000
      228.0000000000         0.0270770000
       64.7100000000         0.1017180000
       21.0600000000         0.2747400000
        7.4950000000         0.4485640000
        2.7970000000         0.2850740000
        0.5215000000         0.0152040000
 s    8  1.00
     6665.0000000000        -0.0001460000
     1000.0000000000        -0.0011540000
      228.0000000000        -0.0057250000
       64.7100000000        -0.0233120000
       21.0600000000        -0.0639550000
        7.4950000000        -0.1499810000
        2.7970000000        -0.1272620000
        0.5215000000         0.5445290000
 s    1  1.00
        0.1596000000         1.0000000000
 p    3  1.00
        9.4390000000         0.0381090000
        2.0020000000         0.2094800000
        0.5456000000         0.5085570000
 p    1  1.00
        0.1517000000         1.0000000000
 d    1  1.00
        0.5500000000         1.0000000000

  2 0
 s    8  1.00
     6665.0000000000         0.0006920000
     1000.0000000000         0.0053290000
      228.0000000000         0.0270770000
       64.7100000000         0.1017180000
       21.0600000000         0.2747400000
        7.4950000000         0.4485640000
        2.7970000000         0.2850740000
        0.5215000000         0.0152040000
 s    8  1.00
     6665.0000000000        -0.0001460000
     1000.0000000000        -0.0011540000
      228.0000000000        -0.0057250000
       64.7100000000        -0.0233120000
       21.0600000000        -0.0639550000
        7.4950000000        -0.1499810000
        2.7970000000        -0.1272620000
        0.5215000000         0.5445290000
 s    1  1.00
        0.1596000000         1.0000000000
 p    3  1.00
        9.4390000000         0.0381090000
        2.0020000000         0.2094800000
        0.5456000000         0.5085570000
 p    1  1.00
        0.1517000000         1.0000000000
 d    1  1.00
        0.5500000000         1.0000000000

  3 0
 s    8  1.00
     6665.0000000000         0.0006920000
     1000.0000000000         0.0053290000
      228.0000000000         0.0270770000
       64.7100000000         0.1017180000
       21.0600000000         0.2747400000
        7.4950000000         0.4485640000
        2.7970000000         0.2850740000
        0.5215000000         0.0152040000
 s    8  1.00
     6665.0000000000        -0.0001460000
     1000.0000000000        -0.0011540000
      228.0000000000        -0.0057250000
       64.7100000000        -0.0233120000
       21.0600000000        -0.0639550000
        7.4950000000        -0.1499810000
        2.7970000000        -0.1272620000
        0.5215000000         0.5445290000
 s    1  1.00
        0.1596000000         1.0000000000
 p    3  1.00
        9.4390000000         0.0381090000
        2.0020000000         0.2094800000
        0.5456000000         0.5085570000
 p    1  1.00
        0.1517000000         1.0000000000
 d    1  1.00
        0.5500000000         1.0000000000

  4 0
 s    8  1.00
     6665.0000000000         0.0006920000
     1000.0000000000         0.0053290000
      228.0000000000         0.0270770000
       64.7100000000         0.1017180000
       21.0600000000         0.2747400000
        7.4950000000         0.4485640000
        2.7970000000         0.2850740000
        0.5215000000         0.0152040000
 s    8  1.00
     6665.0000000000        -0.0001460000
     1000.0000000000        -0.0011540000
      228.0000000000        -0.0057250000
       64.7100000000        -0.0233120000
       21.0600000000        -0.0639550000
        7.4950000000        -0.1499810000
        2.7970000000        -0.1272620000
        0.5215000000         0.5445290000
 s    1  1.00
        0.1596000000         1.0000000000
 p    3  1.00
        9.4390000000         0.0381090000
        2.0020000000         0.2094800000
        0.5456000000         0.5085570000
 p    1  1.00
        0.1517000000         1.0000000000
 d    1  1.00
        0.5500000000         1.0000000000

  5 0
 s    8  1.00
    11720.0000000000         0.0007100000
     1759.0000000000         0.0054700000
      400.8000000000         0.0278370000
      113.7000000000         0.1048000000
       37.0300000000         0.2830620000
       13.2700000000         0.4487190000
        5.0250000000         0.2709520000
        1.0130000000         0.0154580000
 s    8  1.00
    11720.0000000000        -0.0001600000
     1759.0000000000        -0.0012630000
      400.8000000000        -0.0062670000
      113.7000000000        -0.0257160000
       37.0300000000        -0.0709240000
       13.2700000000        -0.1654110000
        5.0250000000        -0.1169550000
        1.0130000000         0.5573680000
 s    1  1.00
        0.3023000000         1.0000000000
 p    3  1.00
       17.7000000000         0.0430180000
        3.8540000000         0.2289130000
        1.0460000000         0.5087280000
 p    1  1.00
        0.2753000000         1.0000000000
 d    1  1.00
        1.1850000000         1.0000000000

  6 0
 s    3  1.00
       13.0100000000         0.0196850000
        1.9620000000         0.1379770000
        0.4446000000         0.4781480000
 s    1  1.00
        0.1220000000         1.0000000000
 p    1  1.00
        0.7270000000         1.0000000000

  7 0
 s    3  1.00
       13.0100000000         0.0196850000
        1.9620000000         0.1379770000
        0.4446000000         0.4781480000
 s    1  1.00
        0.1220000000         1.0000000000
 p    1  1.00
        0.7270000000         1.0000000000

  8 0
 s    3  1.00
       13.0100000000         0.0196850000
        1.9620000000         0.1379770000
        0.4446000000         0.4781480000
 s    1  1.00
        0.1220000000         1.0000000000
 p    1  1.00
        0.7270000000         1.0000000000

  9 0
 s    3  1.00
       13.0100000000         0.0196850000
        1.9620000000         0.1379770000
        0.4446000000         0.4781480000
 s    1  1.00
        0.1220000000         1.0000000000
 p    1  1.00
        0.7270000000         1.0000000000

  10 0
 s    3  1.00
       13.0100000000         0.0196850000
        1.9620000000         0.1379770000
        0.4446000000         0.4781480000
 s    1  1.00
        0.1220000000         1.0000000000
 p    1  1.00
        0.7270000000         1.0000000000

  11 0
 s    3  1.00
       13.0100000000         0.0196850000
        1.9620000000         0.1379770000
        0.4446000000         0.4781480000
 s    1  1.00
        0.1220000000         1.0000000000
 p    1  1.00
        0.7270000000         1.0000000000

[5D7F]
[9G]

[MO]
 Sym= A
 Ene=        -1.9135358408e+01
 Spin= Alpha
 Occup=         2.0000000000e+00
  1        -6.8350992299e-05
  2        -1.4324411860e-04
  3         6.0786651972e-05
  4         6.4764569853e-05
  5         4.3561508483e-05
  6         1.0542073087e-05
  7        -2.8842641335e-05
  8        -1.4243663738e-04
  9         1.6790401202e-04
 10         7.3205443146e-05
 11         3.2791918130e-05
 12         3.7100977041e-05
 13         7.4693220196e-05
 14        -9.9790087844e-05
 15        -2.0415451169e-04
 16        -3.6442373650e-04
 17         5.3309372416e-03
 18        -2.2132222276e-05
 19        -1.7268661191e-05
 20        -5.5802577423e-05
 21        -9.3050351211e-04
 22        -2.2102472961e-03
 23         4.6560716404e-04
 24        -3.0520750484e-05
 25         2.7442878477e-05
 26        -1.8807340766e-05
 27        -5.0917646727e-05
 28        -5.2178894519e-05
 29         2.0573581961e-04
 30         3.1603343065e-04
 31        -3.8914423138e-03
 32         2.6668698150e-05
 33         2.7559301215e-04
 34        -1.3486410671e-05
 35        -4.5037674425e-03
 36        -3.5336532407e-03
 37         2.8275255182e-04
 38         1.3012520214e-04
 39         4.6112925205e-05
 40         8.4544090219e-05
 41        -3.9337958046e-04
 42         4.9849668077e-04
 43         4.5521136962e-04
 44         5.9671569391e-04
 45         5.3495008999e-03
 46        -1.0096934364e-04
 47        -1.7612929462e-04
 48        -3.1206524102e-05
 49         6.6356790093e-03
 50         6.0493109012e-04
 51         1.4376611334e-04
 52        -1.0220932767e-05
 53         6.2843410292e-06
 54         8.3928840703e-05
 55        -1.1613175525e-03
 56         5.0492141940e-04
 57         1.0041711471e+00
 58         9.4752047344e-03
 59        -1.5112835831e-02
 60        -1.8408857468e-03
 61         3.5060424152e-04
 62        -6.1816184728e-05
 63         3.5103072473e-03
 64        -8.2889152958e-04
 65         1.0193146129e-04
 66        -1.9719159843e-05
 67         2.3632685604e-06
 68        -3.2723150623e-06
 69         6.8367799271e-05
 70         1.0030632496e-05
 71        -1.1473134785e-04
 72        -1.1647958067e-04
 73         3.4846244789e-05
 74        -1.3172556877e-05
 75         2.5687271182e-05
 76         1.2134362021e-04
 77         3.5510060933e-04
 78        -7.3668387694e-05
 79        -6.9563539930e-05
 80         4.2515816276e-05
 81        -1.0375188919e-04
 82        -2.5154913316e-04
 83         6.7431814026e-05
 84         6.2878528797e-05
 85         5.7986841356e-05
 86        -1.3517164620e-04
 87         9.2514796330e-04
 88        -7.6656718827e-04
 89         1.1835208721e-04
 90        -4.3892696100e-06
 91        -2.7648203345e-04
 92        -1.3261487479e-03
 93         1.8598434470e-04
 94         2.5259906358e-04
 95         2.9984785169e-07
 96        -1.7889019569e-04
 97         2.3229677601e-04
 98         4.2405848846e-05
 99         8.2298549496e-05
100        -2.7248788532e-05
 Sym= A
 Ene=        -1.0272936310e+01
 Spin= Alpha
 Occup=         2.0000000000e+00
  1        -3.6809470151e-04
  2        -4.8680078943e-04
  3         8.9857668890e-04
  4         2.8644588331e-04
  5         7.0618646083e-05
  6         1.5619491637e-07
  7        -6.2173581500e-04
  8         5.6057574907e-05
  9         2.2886842291e-05
 10        -1.6352276927e-05
 11        -6.4722622801e-05
 12         4.7989639341e-06
 13        -1.1725612431e-04
 14        -3.7689132686e-05
 15        -4.2827186492e-04
 16        -6.2576483498e-04
 17         6.4429768821e-03
 18        -2.7069222041e-04
 19        -2.6871992064e-05
 20         4.7485865513e-05
 21        -2.1194105692e-03
 22        -3.7825502467e-03
 23         5.7725325086e-04
 24        -3.9602409578e-04
 25        -1.8309348071e-04
 26        -9.2779632320e-05
 27         2.9305204966e-04
 28         3.6356664244e-04
 29         1.6375167735e-03
 30        -2.5178610305e-04
 31        -1.8669190997e-03
 32        -3.4790311989e-04
 33         7.5821675874e-04
 34         4.0496194285e-05
 35        -2.5553947786e-03
 36        -5.9762308562e-03
 37         3.9785134430e-04
 38         1.0397068453e-03
 39        -3.0351344544e-06
 40        -1.0046472095e-05
 41         1.1213224388e-03
 42         8.6029693482e-04
 43         1.0059431334e+00
 44         1.5288546413e-02
 45        -1.0733540636e-02
 46         7.3086576108e-04
 47        -4.8470054052e-04
 48        -9.1089415329e-05
 49         5.4476253455e-03
 50        -2.0547550846e-03
 51         3.5192221500e-05
 52        -1.6378759797e-03
 53         2.2426798683e-04
 54         1.8311016642e-04
 55         8.7112524301e-04
 56         1.8269578750e-05
 57         3.6514980193e-04
 58         9.0836061363e-04
 59        -5.9632559165e-03
 60         7.4801027434e-04
 61        -2.1089404350e-04
 62         4.4717511738e-06
 63         3.4135100743e-03
 64        -2.0550684098e-04
 65         1.0030602439e-04
 66         5.6787178485e-04
 67        -3.1159164960e-05
 68        -1.6778953949e-05
 69        -7.2536492693e-04
 70         2.5583130038e-04
 71        -1.1141011977e-04
 72        -6.4093334052e-05
 73         3.2846417036e-05
 74         7.6584442173e-06
 75        -1.4593044592e-05
 76        -5.2084575980e-05
 77         3.5692968807e-04
 78        -5.3475564761e-05
 79        -2.6149018606e-05
 80         7.5772643967e-06
 81        -6.2105023054e-05
 82        -1.3076780993e-05
 83         1.0276307080e-04
 84         5.0891967604e-05
 85        -4.3295466502e-05
 86        -1.6757747565e-03
 87         2.4834609970e-03
 88        -1.4330884881e-03
 89        -1.4606496543e-03
 90        -2.2492395963e-04
 91        -5.2313835712e-04
 92        -4.9025492128e-04
 93         4.7217443499e-05
 94         2.9480580808e-04
 95        -2.9309948756e-05
 96        -2.5716761639e-05
 97         6.1008073876e-04
 98         2.2669466976e-04
 99         1.0115712188e-04
100        -3.1270022446e-05
 Sym= A
 Ene=        -1.0223873988e+01
 Spin= Alpha
 Occup=         2.0000000000e+00
  1         3.0369145572e-03
  2        -3.9940138203e-04
  3         4.3991553767e-03
  4         7.0634667812e-04
  5         4.5231999679e-05
  6         6.0681302514e-05
  7        -2.4329200954e-03
  8        -8.4685634486e-04
  9        -3.5520950173e-04
 10         7.8431025690e-04
 11         7.8366744947e-05
 12         3.0538223581e-05
 13        -9.7882637424e-04
 14        -4.3770363198e-05
 15         1.0063281447e+00
 16         1.6119248551e-02
 17        -2.0210658262e-02
 18        -5.1317840712e-04
 19         1.9559095058e-04
 20        -1.5125292496e-05
 21        -2.2935842043e-03
 22         3.9090025469e-03
 23        -4.3504091525e-04
 24        -1.0308235734e-03
 25         1.0423049261e-04
 26        -3.0473339169e-04
 27        -5.6451051925e-04
 28        -4.1881634954e-04
 29         1.2209096338e-02
 30        -1.2369762796e-03
 31         4.8946598312e-03
 32        -7.1779605986e-04
 33        -1.0702670703e-03
 34         1.5630949784e-04
 35         2.7265990107e-03
 36         2.6169175774e-03
 37        -2.9095385519e-04
 38         8.6559616269e-04
 39         1.3204772718e-04
 40         2.8759530315e-04
 41         5.1220807421e-04
 42        -9.6874602301e-04
 43        -2.7236238720e-04
 44        -5.4937721346e-04
 45         1.0901298785e-03
 46        -2.0000245232e-05
 47        -2.1155452459e-04
 48         3.7591591048e-05
 49        -4.3661313597e-04
 50         1.0146799209e-03
 51        -5.5246211339e-05
 52        -3.2468793838e-04
 53        -9.1676284006e-05
 54        -1.1411117629e-05
 55         1.6898112610e-04
 56        -1.1569265123e-05
 57        -3.4736195886e-05
 58        -7.3384038203e-05
 59        -1.1470954643e-04
 60         1.2135722984e-04
 61         1.3658448886e-05
 62         1.6948460802e-05
 63        -1.2158842778e-04
 64        -3.3015324727e-04
 65         2.6663653707e-05
 66         1.1562593680e-05
 67        -2.5110907104e-05
 68         3.5106828686e-06
 69         3.3196285341e-06
 70         2.3806066581e-05
 71        -4.3499887788e-04
 72         3.8967891140e-04
 73        -1.1180385858e-04
 74        -4.2435275415e-06
 75         5.6149527206e-05
 76        -2.8316627484e-04
 77         2.1190745451e-04
 78         1.3911180665e-04
 79         2.6368488306e-05
 80         7.1652117697e-05
 81        -4.7607914023e-04
 82         1.1611213318e-03
 83        -1.8407342200e-04
 84         5.9146589824e-06
 85         2.5476091763e-05
 86        -8.3808344007e-05
 87         3.3100969208e-04
 88         4.4990580594e-05
 89        -7.0569551791e-05
 90        -1.5014952500e-05
 91         1.5338596960e-04
 92         9.4783933086e-04
 93         1.5298700997e-04
 94        -2.5962826353e-04
 95        -1.1831986147e-06
 96        -2.4389852358e-03
 97         1.0900210723e-03
 98        -1.2396403570e-03
 99         1.7954381897e-03
100        -2.2321436315e-04
 Sym= A
 Ene=        -1.0197332938e+01
 Spin= Alpha
 Occup=         2.0000000000e+00
  1         1.2446182602e-03
  2         4.7372145552e-04
  3        -2.2487913237e-04
  4        -1.1083409340e-04
  5        -1.3460702628e-04
  6         1.0326976214e-04
  7         8.6383373685e-04
  8         6.4048748004e-05
  9        -2.7584398105e-04
 10         3.0047627493e-04
 11         2.6670331979e-05
 12         5.5055512722e-05
 13        -4.4483118602e-05
 14         1.2781502036e-04
 15         1.3653447582e-02
 16         1.7101030080e-03
 17        -6.2152857503e-03
 18        -5.8208392434e-04
 19        -1.1997319169e-03
 20         1.6596360294e-04
 21         6.6510299450e-04
 22         3.7542360202e-03
 23        -1.9129493631e-04
 24        -9.1059741756e-04
 25        -1.7932281002e-04
 26        -3.0169050617e-04
 27        -5.9824804909e-04
 28         9.3087845133e-04
 29        -1.0064937653e+00
 30        -1.6552207384e-02
 31         2.1134989284e-02
 32         3.3616164634e-04
 33        -2.4783775964e-04
 34         1.4367412182e-04
 35         5.2985264184e-03
 36         2.9265772040e-04
 37        -8.6221142891e-04
 38         1.0846447922e-03
 39         1.8174407210e-04
 40         1.1112230746e-04
 41        -4.3577642742e-04
 42        -4.5859483367e-04
 43         1.9560599297e-03
 44         7.8416957617e-04
 45        -5.7018030727e-03
 46        -2.6512584531e-04
 47         7.1736921602e-04
 48         4.9649372504e-05
 49        -3.7081643280e-04
 50        -3.4270572577e-03
 51         4.9134262313e-05
 52        -6.9892402482e-04
 53        -1.5323953543e-04
 54         5.7172753574e-05
 55        -5.6813500155e-04
 56        -1.2174321989e-03
 57        -3.8227499077e-05
 58        -6.6148060483e-05
 59         7.7398305257e-04
 60        -1.9855152184e-05
 61         6.5204720489e-05
 62         3.9173189727e-05
 63         1.2555854381e-04
 64         6.2791556482e-04
 65        -5.2068161797e-05
 66         1.2832070446e-04
 67        -4.0460593055e-05
 68        -1.2306216867e-05
 69        -7.7852098253e-05
 70        -2.2029989848e-04
 71         1.3608605356e-04
 72        -3.2916781908e-04
 73        -1.9761376117e-05
 74        -7.5361736850e-05
 75         5.3555253764e-05
 76        -3.7820153540e-05
 77        -3.4776803914e-04
 78        -4.4275868154e-05
 79         4.9694298586e-05
 80         2.8006300221e-05
 81         7.0406017984e-05
 82        -1.8497834035e-04
 83        -4.4100019477e-05
 84        -8.1888191532e-05
 85         1.3416735438e-04
 86         2.9338960632e-04
 87        -9.6306683597e-04
 88        -6.5395502355e-05
 89         1.9354475574e-04
 90        -3.3002312073e-05
 91         2.4899816427e-03
 92        -8.3355918256e-04
 93         2.1756057849e-03
 94        -9.8673764279e-05
 95        -8.0919620695e-05
 96        -1.0400740308e-04
 97        -8.6144178293e-04
 98        -2.8668885998e-04
 99         3.2678732753e-05
100        -3.7659415979e-05
 Sym= A
 Ene=        -1.0189700178e+01
 Spin= Alpha
 Occup=         2.0000000000e+00
  1         1.0070011172e+00
  2         1.7457968357e-02
  3        -1.9253876560e-02
  4         4.1674086597e-04
  5         2.3869268995e-05
  6         1.9414512305e-04
  7         2.8830606616e-03
  8         4.4518918040e-04
  9        -5.1458461242e-04
 10         2.0261246577e-04
 11        -3.2176611576e-06
 12        -1.3448019332e-04
 13        -6.4896951973e-04
 14         4.9572142035e-05
 15        -3.2228110460e-03
 16        -2.5446450116e-04
 17         1.6365206397e-03
 18        -4.8053538983e-04
 19         5.3043194259e-05
 20         1.2197909160e-06
 21         4.1400161211e-03
 22         2.3510585736e-03
 23        -2.8764144352e-04
 24         6.3009924651e-04
 25         9.9991687517e-05
 26        -1.2689250257e-05
 27        -1.3177649489e-03
 28        -4.0051615325e-04
 29         5.7152067053e-04
 30        -6.5845684417e-04
 31         3.6275999945e-03
 32        -2.3670823148e-04
 33         3.3890172213e-05
 34        -2.4595925302e-06
 35         1.1911217298e-03
 36         2.5642015011e-03
 37        -3.5950684045e-04
 38        -3.6849789049e-04
 39         2.5872399636e-05
 40        -1.0261540827e-04
 41        -4.1654806824e-04
 42        -2.1253323394e-04
 43        -1.2580394181e-04
 44        -5.0410960699e-04
 45         3.7909815697e-04
 46        -7.1246642409e-05
 47        -2.7009818378e-04
 48        -3.7344280963e-05
 49        -1.9501072057e-04
 50         4.8196196431e-04
 51         1.2386586165e-04
 52        -3.6954742521e-05
 53        -2.8820636274e-05
 54        -2.6979511283e-05
 55         3.1576077268e-05
 56         4.5705787338e-05
 57        -1.0246534430e-04
 58        -1.9918990264e-04
 59         3.3398942756e-04
 60         2.9341641186e-05
 61        -1.1438436617e-04
 62        -2.1550753428e-05
 63        -2.3663871544e-04
 64         2.5308125279e-04
 65         6.3108750074e-05
 66        -5.6755188787e-05
 67         5.0615383523e-07
 68         5.9202525495e-06
 69         3.4435329402e-07
 70        -2.3327432840e-06
 71        -1.1026095145e-03
 72         2.0624889221e-03
 73         6.0720892290e-04
 74        -1.4780918552e-03
 75        -9.3180177699e-04
 76        -1.4861507163e-03
 77         1.7574490342e-03
 78         5.9513366734e-04
 79         1.7987541842e-03
 80        -7.7387231795e-04
 81        -1.0667218525e-03
 82         2.3798738224e-03
 83         4.8261755306e-04
 84        -2.0093710992e-04
 85         1.8285861106e-03
 86         2.1382418799e-05
 87         3.8394496859e-04
 88         1.0603808997e-05
 89         6.2488122742e-05
 90        -1.4556004864e-05
 91         3.0317990023e-05
 92         4.8463169152e-04
 93         6.0446589878e-05
 94        -1.9049322386e-04
 95         2.6514713251e-05
 96        -3.9672853189e-04
 97         1.3449540149e-04
 98        -3.8909836416e-04
 99        -1.6352034592e-04
100         2.4861470478e-05
 Sym= A
 Ene=        -1.0399566105e+00
 Spin= Alpha
 Occup=         2.0000000000e+00
  1        -5.0190646761e-04
  2         7.9347005897e-03
  3         5.0997359873e-03
  4        -3.3066343715e-03
  5        -3.8521385514e-03
  6        -4.3685582926e-05
  7        -2.8068257733e-03
  8        -1.4529563152e-03
  9         8.1869452374e-04
 10        -7.1504346210e-04
 11        -1.2153144726e-04
 12        -1.6529227773e-04
 13         9.6682459204e-05
 14         8.8145014490e-04
 15         4.8824925520e-04
 16         1.6853864532e-02
 17        -1.1940248102e-02
 18         3.8852482289e-04
 19        -1.0658762847e-02
 20         1.0725681846e-03
 21        -1.9157128420e-03
 22         9.2748323028e-03
 23        -1.1706467014e-03
 24        -5.0336392561e-04
 25        -1.9692585566e-04
 26        -4.5000640771e-04
 27        -1.5168165061e-03
 28         7.1712748735e-04
 29        -3.6778488717e-03
 30         3.6313910799e-02
 31         3.1703953335e-02
 32         2.1252857325e-02
 33        -1.9567582588e-02
 34        -9.2220288055e-04
 35         1.9890440141e-02
 36         1.9284418442e-03
 37        -1.8050116223e-03
 38        -3.7441665433e-03
 39        -4.0333648451e-04
 40        -1.1051009158e-04
 41        -2.6655516082e-04
 42        -9.0794903822e-03
 43        -1.4749080708e-02
 44         2.2428598065e-01
 45         9.4469826749e-02
 46         1.8452215326e-01
 47        -2.3651803322e-02
 48         4.4016358796e-03
 49         1.2224101565e-02
 50        -2.6095662643e-03
 51         9.3971507283e-04
 52        -1.3831132033e-02
 53         6.5327370058e-04
 54        -1.4428093364e-03
 55         3.1407928221e-02
 56        -1.3358424661e-02
 57        -9.2342417671e-03
 58         4.0208379780e-01
 59         3.6080659926e-01
 60        -1.5523917966e-01
 61         3.0589730807e-02
 62        -4.3356394905e-03
 63        -3.1745162035e-02
 64         7.4925763415e-03
 65        -1.5862257061e-03
 66        -5.3966382395e-03
 67         3.8206006776e-04
 68        -7.3901521959e-04
 69         1.2125837694e-02
 70        -4.8890187565e-03
 71         7.4607307166e-03
 72         3.8820877918e-03
 73        -6.9410208410e-04
 74        -3.8209578954e-04
 75         6.8992557354e-04
 76         1.0931927533e-03
 77        -4.1425542123e-04
 78         2.9078324801e-05
 79        -4.6012844488e-05
 80        -7.2955319879e-05
 81         2.7142204265e-03
 82         8.0219477409e-04
 83        -3.2228634410e-04
 84        -3.4914669086e-04
 85        -5.5013357306e-04
 86         3.9680264323e-02
 87        -3.4830838458e-03
 88         1.0115637691e-02
 89         5.9644340027e-03
 90         1.0260317586e-03
 91         7.1490567403e-03
 92         6.1072601027e-03
 93         9.8599343178e-04
 94        -1.9133331286e-03
 95        -8.0248257712e-05
 96         1.8513548030e-03
 97        -3.0293310535e-03
 98        -1.8104988607e-04
 99        -8.3071912030e-04
100         1.3142197602e-04
 Sym= A
 Ene=        -8.1073463550e-01
 Spin= Alpha
 Occup=         2.0000000000e+00
  1         1.1142317752e-02
  2        -1.8003903329e-01
  3        -7.4997317110e-02
  4         6.7029269324e-02
  5         1.3829023578e-02
  6        -4.8438544155e-03
  7         2.4292907438e-03
  8        -8.9403297477e-03
  9         2.4511843211e-03
 10         5.7322907850e-03
 11         5.9638296874e-04
 12        -8.2601083335e-05
 13        -1.0027397428e-02
 14        -3.1542457017e-03
 15         1.9808598660e-02
 16        -2.8917555870e-01
 17        -2.0379109362e-01
 18        -4.2622812362e-03
 19         7.0903906631e-02
 20        -8.4871360728e-03
 21        -3.1590053114e-02
 22         2.5156512349e-02
 23        -3.5494752039e-03
 24         1.0024372472e-02
 25         1.2532190492e-03
 26         1.7994655176e-03
 27        -2.1779208877e-03
 28        -1.0003211016e-02
 29         1.7265826695e-02
 30        -2.5474143461e-01
 31        -1.3884351937e-01
 32        -5.8757823109e-02
 33        -5.6581039748e-02
 34         1.4064237463e-02
 35        -2.6102941311e-03
 36        -2.0936222356e-02
 37         3.6521524662e-03
 38         6.8701628133e-03
 39         1.5014576843e-03
 40         1.9989308277e-03
 41         8.8674171701e-03
 42        -8.5753452221e-03
 43         2.6025431878e-03
 44        -6.5042778685e-02
 45        -5.1377283780e-02
 46         7.3150283897e-02
 47        -8.0944399565e-02
 48         1.5174443483e-03
 49         2.3862318492e-02
 50        -2.2813984797e-02
 51        -9.2096161416e-04
 52         2.7127653970e-03
 53         4.3973400574e-04
 54        -2.4980435323e-04
 55         1.3461198349e-02
 56         3.2453045194e-03
 57        -3.5376981064e-04
 58         7.7507415270e-02
 59         7.4677216800e-02
 60        -1.2263002840e-02
 61        -1.6887279793e-02
 62         1.0816082706e-04
 63         1.2829053038e-03
 64        -7.3205939728e-03
 65         5.9519707106e-04
 66         1.7662486399e-04
 67         1.1205817937e-05
 68         4.2860954091e-05
 69         1.7078126872e-03
 70         1.6274758275e-03
 71        -6.7362877678e-02
 72        -2.2578233963e-03
 73         4.6515763733e-03
 74        -7.7604399763e-03
 75        -5.1685214837e-03
 76        -5.9401016195e-02
 77        -7.4869722794e-04
 78         4.7433151289e-03
 79         8.1476168222e-03
 80        -3.4684320536e-03
 81        -6.8585781185e-02
 82        -3.4877755225e-03
 83         4.3506395075e-03
 84        -7.9376984090e-05
 85         9.1926460521e-03
 86        -1.9254961123e-02
 87         8.3878790765e-05
 88         1.8225118246e-05
 89        -3.5721653448e-03
 90        -1.3325478436e-04
 91        -8.3357334468e-02
 92        -2.5712843236e-03
 93        -1.4175118202e-02
 94        -1.8789256084e-03
 95         1.1558161100e-03
 96        -9.8255107151e-02
 97        -1.3399531649e-02
 98        -6.9450976677e-03
 99         1.3634921041e-02
100        -1.6439340180e-03
 Sym= A
 Ene=        -7.1648929937e-01
 Spin= Alpha
 Occup=         2.0000000000e+00
  1         1.4280393922e-02
  2        -2.8380971379e-01
  3        -1.2217621828e-01
  4         1.9652022993e-02
  5        -7.6850645338e-03
  6        -4.8693479689e-03
  7        -1.5617971201e-02
  8        -7.5316318762e-03
  9         3.7206359244e-04
 10         1.5189499204e-03
 11        -6.9832630647e-05
 12        -1.5318119085e-04
 13        -3.0942146041e-03
 14         2.2759473408e-03
 15         5.4553957352e-03
 16        -5.3878732058e-02
 17        -8.7590195618e-02
 18        -1.3619046307e-01
 19        -8.9073000318e-02
 20         9.8234965034e-03
 21        -8.9172366879e-02
 22        -6.1862628456e-03
 23         1.6679611369e-03
 24         3.8464211484e-03
 25        -3.5737741607e-04
 26        -1.0551232548e-03
 27        -1.7575347404e-02
 28         4.1326953249e-03
 29        -1.3716641885e-02
 30         2.2643738461e-01
 31         1.6678107050e-01
 32        -6.7802793862e-03
 33        -6.2351745553e-02
 34        -4.0329541157e-03
 35         3.4737198536e-02
 36        -3.7586493084e-02
 37        -1.4313189182e-03
 38        -4.4387921294e-03
 39        -4.2828021256e-05
 40         3.9372717732e-04
 41        -9.7041133327e-03
 42        -6.1031919187e-03
 43        -3.2245656327e-03
 44         1.5936075997e-01
 45         6.9588073548e-02
 46        -1.1147710403e-01
 47         7.4812680807e-02
 48        -3.3846288334e-04
 49        -3.8921909373e-02
 50         8.4735369427e-03
 51        -1.3412947792e-03