Generated by Psi4
        SP                           RHF                       CC-PVDZ
Number of atoms                            I               11
Charge                                     I                0
Multiplicity                               I                1
Number of electrons                        I               38
Number of alpha electrons                  I               19
Number of beta electrons                   I               19
Number of basis functions                  I              100
Number of independent functions            I              100
Atomic numbers                             I   N=          11
           6           6           6           6           8           1
           1           1           1           1           1
Nuclear charges                            R   N=          11
  6.00000000e+00  6.00000000e+00  6.00000000e+00  6.00000000e+00  8.00000000e+00
  1.00000000e+00  1.00000000e+00  1.00000000e+00  1.00000000e+00  1.00000000e+00
  1.00000000e+00
Current cartesian coordinates              R   N=          33
  1.64152285e+00  3.00537034e+00  3.01819833e-01 -7.91639678e-01  2.41084988e+00
 -1.71224121e-01 -2.04408481e+00 -9.42895278e-03  2.92540787e-01 -8.88909872e-01
 -2.27943410e+00  1.03305219e-01  1.58102385e+00 -2.68192051e+00 -4.07272910e-01
  2.35432375e+00 -1.03378452e+00 -7.07130305e-01  2.42663746e+00  4.82775785e+00
 -2.63853714e-01  2.90223661e+00  1.75283312e+00  1.36084363e+00 -1.92056747e+00
 -4.06151352e+00  2.68914769e-01 -4.08358991e+00 -1.37751717e-02  6.19927013e-01
 -1.96778447e+00  3.85560100e+00 -1.08323611e+00
Integer atomic weights                     I   N=          11
          12          12          12          12          16           1
           1           1           1           1           1
Real atomic weights                        R   N=          11
  1.20000000e+01  1.20000000e+01  1.20000000e+01  1.20000000e+01  1.59949146e+01
  1.00782503e+00  1.00782503e+00  1.00782503e+00  1.00782503e+00  1.00782503e+00
  1.00782503e+00
Number of primitive shells                 I              140
Number of contracted shells                I               48
Pure/Cartesian d shells                    I                0
Pure/Cartesian f shells                    I                0
Highest angular momentum                   I                2
Largest degree of contraction              I                8
Shell types                                I   N=          48
           0           0           0           1           1          -2
           0           0           0           1           1          -2
           0           0           0           1           1          -2
           0           0           0           1           1          -2
           0           0           0           1           1          -2
           0           0           1           0           0           1
           0           0           1           0           0           1
           0           0           1           0           0           1
Number of primitives per shell             I   N=          48
           8           8           1           3           1           1
           8           8           1           3           1           1
           8           8           1           3           1           1
           8           8           1           3           1           1
           8           8           1           3           1           1
           3           1           1           3           1           1
           3           1           1           3           1           1
           3           1           1           3           1           1
Shell to atom map                          I   N=          48
           1           1           1           1           1           1
           2           2           2           2           2           2
           3           3           3           3           3           3
           4           4           4           4           4           4
           5           5           5           5           5           5
           6           6           6           7           7           7
           8           8           8           9           9           9
          10          10          10          11          11          11
Primitive exponents                        R   N=         140
  6.66500000e+03  1.00000000e+03  2.28000000e+02  6.47100000e+01  2.10600000e+01
  7.49500000e+00  2.79700000e+00  5.21500000e-01  6.66500000e+03  1.00000000e+03
  2.28000000e+02  6.47100000e+01  2.10600000e+01  7.49500000e+00  2.79700000e+00
  5.21500000e-01  1.59600000e-01  9.43900000e+00  2.00200000e+00  5.45600000e-01
  1.51700000e-01  5.50000000e-01  6.66500000e+03  1.00000000e+03  2.28000000e+02
  6.47100000e+01  2.10600000e+01  7.49500000e+00  2.79700000e+00  5.21500000e-01
  6.66500000e+03  1.00000000e+03  2.28000000e+02  6.47100000e+01  2.10600000e+01
  7.49500000e+00  2.79700000e+00  5.21500000e-01  1.59600000e-01  9.43900000e+00
  2.00200000e+00  5.45600000e-01  1.51700000e-01  5.50000000e-01  6.66500000e+03
  1.00000000e+03  2.28000000e+02  6.47100000e+01  2.10600000e+01  7.49500000e+00
  2.79700000e+00  5.21500000e-01  6.66500000e+03  1.00000000e+03  2.28000000e+02
  6.47100000e+01  2.10600000e+01  7.49500000e+00  2.79700000e+00  5.21500000e-01
  1.59600000e-01  9.43900000e+00  2.00200000e+00  5.45600000e-01  1.51700000e-01
  5.50000000e-01  6.66500000e+03  1.00000000e+03  2.28000000e+02  6.47100000e+01
  2.10600000e+01  7.49500000e+00  2.79700000e+00  5.21500000e-01  6.66500000e+03
  1.00000000e+03  2.28000000e+02  6.47100000e+01  2.10600000e+01  7.49500000e+00
  2.79700000e+00  5.21500000e-01  1.59600000e-01  9.43900000e+00  2.00200000e+00
  5.45600000e-01  1.51700000e-01  5.50000000e-01  1.17200000e+04  1.75900000e+03
  4.00800000e+02  1.13700000e+02  3.70300000e+01  1.32700000e+01  5.02500000e+00
  1.01300000e+00  1.17200000e+04  1.75900000e+03  4.00800000e+02  1.13700000e+02
  3.70300000e+01  1.32700000e+01  5.02500000e+00  1.01300000e+00  3.02300000e-01
  1.77000000e+01  3.85400000e+00  1.04600000e+00  2.75300000e-01  1.18500000e+00
  1.30100000e+01  1.96200000e+00  4.44600000e-01  1.22000000e-01  7.27000000e-01
  1.30100000e+01  1.96200000e+00  4.44600000e-01  1.22000000e-01  7.27000000e-01
  1.30100000e+01  1.96200000e+00  4.44600000e-01  1.22000000e-01  7.27000000e-01
  1.30100000e+01  1.96200000e+00  4.44600000e-01  1.22000000e-01  7.27000000e-01
  1.30100000e+01  1.96200000e+00  4.44600000e-01  1.22000000e-01  7.27000000e-01
  1.30100000e+01  1.96200000e+00  4.44600000e-01  1.22000000e-01  7.27000000e-01
Contraction coefficients                   R   N=         140
  6.91583963e-04  5.32579615e-03  2.70607210e-02  1.01656846e-01  2.74574824e-01
  4.48294319e-01  2.84902611e-01  1.51948592e-02 -2.93269653e-04 -2.31803547e-03
 -1.14997860e-02 -4.68267270e-02 -1.28466169e-01 -3.01266272e-01 -2.55630702e-01
  1.09379336e+00  1.00000000e+00  5.69792516e-02  3.13207212e-01  7.60376742e-01
  1.00000000e+00  1.00000000e+00  6.91583963e-04  5.32579615e-03  2.70607210e-02
  1.01656846e-01  2.74574824e-01  4.48294319e-01  2.84902611e-01  1.51948592e-02
 -2.93269653e-04 -2.31803547e-03 -1.14997860e-02 -4.68267270e-02 -1.28466169e-01
 -3.01266272e-01 -2.55630702e-01  1.09379336e+00  1.00000000e+00  5.69792516e-02
  3.13207212e-01  7.60376742e-01  1.00000000e+00  1.00000000e+00  6.91583963e-04
  5.32579615e-03  2.70607210e-02  1.01656846e-01  2.74574824e-01  4.48294319e-01
  2.84902611e-01  1.51948592e-02 -2.93269653e-04 -2.31803547e-03 -1.14997860e-02
 -4.68267270e-02 -1.28466169e-01 -3.01266272e-01 -2.55630702e-01  1.09379336e+00
  1.00000000e+00  5.69792516e-02  3.13207212e-01  7.60376742e-01  1.00000000e+00
  1.00000000e+00  6.91583963e-04  5.32579615e-03  2.70607210e-02  1.01656846e-01
  2.74574824e-01  4.48294319e-01  2.84902611e-01  1.51948592e-02 -2.93269653e-04
 -2.31803547e-03 -1.14997860e-02 -4.68267270e-02 -1.28466169e-01 -3.01266272e-01
 -2.55630702e-01  1.09379336e+00  1.00000000e+00  5.69792516e-02  3.13207212e-01
  7.60376742e-01  1.00000000e+00  1.00000000e+00  7.09645947e-04  5.46727229e-03
  2.78231186e-02  1.04747740e-01  2.82920846e-01  4.48495239e-01  2.70816885e-01
  1.54502916e-02 -3.14443412e-04 -2.48213768e-03 -1.23163554e-02 -5.05389173e-02
 -1.39384903e-01 -3.25077495e-01 -2.29848308e-01  1.09537935e+00  1.00000000e+00
  6.26791663e-02  3.33536566e-01  7.41239642e-01  1.00000000e+00  1.00000000e+00
  3.34987264e-02  2.34800801e-01  8.13682958e-01  1.00000000e+00  1.00000000e+00
  3.34987264e-02  2.34800801e-01  8.13682958e-01  1.00000000e+00  1.00000000e+00
  3.34987264e-02  2.34800801e-01  8.13682958e-01  1.00000000e+00  1.00000000e+00
  3.34987264e-02  2.34800801e-01  8.13682958e-01  1.00000000e+00  1.00000000e+00
  3.34987264e-02  2.34800801e-01  8.13682958e-01  1.00000000e+00  1.00000000e+00
  3.34987264e-02  2.34800801e-01  8.13682958e-01  1.00000000e+00  1.00000000e+00
Coordinates of each shell                  R   N=         144
  1.64152285e+00  3.00537034e+00  3.01819833e-01  1.64152285e+00  3.00537034e+00
  3.01819833e-01  1.64152285e+00  3.00537034e+00  3.01819833e-01  1.64152285e+00
  3.00537034e+00  3.01819833e-01  1.64152285e+00  3.00537034e+00  3.01819833e-01
  1.64152285e+00  3.00537034e+00  3.01819833e-01 -7.91639678e-01  2.41084988e+00
 -1.71224121e-01 -7.91639678e-01  2.41084988e+00 -1.71224121e-01 -7.91639678e-01
  2.41084988e+00 -1.71224121e-01 -7.91639678e-01  2.41084988e+00 -1.71224121e-01
 -7.91639678e-01  2.41084988e+00 -1.71224121e-01 -7.91639678e-01  2.41084988e+00
 -1.71224121e-01 -2.04408481e+00 -9.42895278e-03  2.92540787e-01 -2.04408481e+00
 -9.42895278e-03  2.92540787e-01 -2.04408481e+00 -9.42895278e-03  2.92540787e-01
 -2.04408481e+00 -9.42895278e-03  2.92540787e-01 -2.04408481e+00 -9.42895278e-03
  2.92540787e-01 -2.04408481e+00 -9.42895278e-03  2.92540787e-01 -8.88909872e-01
 -2.27943410e+00  1.03305219e-01 -8.88909872e-01 -2.27943410e+00  1.03305219e-01
 -8.88909872e-01 -2.27943410e+00  1.03305219e-01 -8.88909872e-01 -2.27943410e+00
  1.03305219e-01 -8.88909872e-01 -2.27943410e+00  1.03305219e-01 -8.88909872e-01
 -2.27943410e+00  1.03305219e-01  1.58102385e+00 -2.68192051e+00 -4.07272910e-01
  1.58102385e+00 -2.68192051e+00 -4.07272910e-01  1.58102385e+00 -2.68192051e+00
 -4.07272910e-01  1.58102385e+00 -2.68192051e+00 -4.07272910e-01  1.58102385e+00
 -2.68192051e+00 -4.07272910e-01  1.58102385e+00 -2.68192051e+00 -4.07272910e-01
  2.35432375e+00 -1.03378452e+00 -7.07130305e-01  2.35432375e+00 -1.03378452e+00
 -7.07130305e-01  2.35432375e+00 -1.03378452e+00 -7.07130305e-01  2.42663746e+00
  4.82775785e+00 -2.63853714e-01  2.42663746e+00  4.82775785e+00 -2.63853714e-01
  2.42663746e+00  4.82775785e+00 -2.63853714e-01  2.90223661e+00  1.75283312e+00
  1.36084363e+00  2.90223661e+00  1.75283312e+00  1.36084363e+00  2.90223661e+00
  1.75283312e+00  1.36084363e+00 -1.92056747e+00 -4.06151352e+00  2.68914769e-01
 -1.92056747e+00 -4.06151352e+00  2.68914769e-01 -1.92056747e+00 -4.06151352e+00
  2.68914769e-01 -4.08358991e+00 -1.37751717e-02  6.19927013e-01 -4.08358991e+00
 -1.37751717e-02  6.19927013e-01 -4.08358991e+00 -1.37751717e-02  6.19927013e-01
 -1.96778447e+00  3.85560100e+00 -1.08323611e+00 -1.96778447e+00  3.85560100e+00
 -1.08323611e+00 -1.96778447e+00  3.85560100e+00 -1.08323611e+00
Total Energy                               R     -2.312257276523819e+02
Alpha Orbital Energies                     R   N=         100
 -1.91746005e+01 -1.02505408e+01 -1.02060197e+01 -1.01903548e+01 -1.01826563e+01
 -1.06517561e+00 -8.02008936e-01 -7.31476462e-01 -6.28850430e-01 -5.78951606e-01
 -4.99266025e-01 -4.78497733e-01 -4.47355278e-01 -4.09496905e-01 -3.94325802e-01
 -3.76698910e-01 -3.47462489e-01 -3.00314515e-01 -2.18280938e-01 -2.57203473e-02
  5.65241835e-02  7.24930347e-02  8.06160826e-02  1.01035876e-01  1.25765870e-01
  1.41829311e-01  1.64167006e-01  2.20825270e-01  3.01104619e-01  3.21620097e-01
  3.49795168e-01  4.33722755e-01  4.44846003e-01  4.74990529e-01  4.78494188e-01
  4.94892192e-01  5.11404898e-01  5.35325952e-01  5.55203714e-01  5.66509486e-01
  5.81762203e-01  6.12542318e-01  6.27362776e-01  6.57744819e-01  6.74794044e-01
  7.20128513e-01  7.68778710e-01  7.95230300e-01  8.80492967e-01  9.04094351e-01
  9.41137427e-01  9.54059005e-01  9.63420242e-01  1.00176864e+00  1.03961989e+00
  1.05096366e+00  1.09421705e+00  1.10412229e+00  1.16314625e+00  1.19031750e+00
  1.21914430e+00  1.31972599e+00  1.36626403e+00  1.43567053e+00  1.45348065e+00
  1.48350830e+00  1.50510420e+00  1.52922390e+00  1.55589448e+00  1.58835426e+00
  1.60404828e+00  1.64617068e+00  1.68408694e+00  1.71727441e+00  1.73252598e+00
  1.75248945e+00  1.75976705e+00  1.82341991e+00  1.89606318e+00  1.92286355e+00
  1.97923029e+00  1.98754926e+00  2.03649450e+00  2.07883346e+00  2.09959762e+00
  2.17318935e+00  2.21681616e+00  2.26826736e+00  2.38853988e+00  2.40149687e+00
  2.42270266e+00  2.57319649e+00  2.73525168e+00  2.78108915e+00  2.87837716e+00
  2.95523589e+00  3.02549495e+00  3.17767065e+00  3.43507295e+00  3.69611771e+00
Alpha MO coefficients                      R   N=       10000
 -7.86844810e-05 -1.35418698e-04  1.21665975e-03 -1.02543342e-04  7.49289399e-05
  2.32602396e-05 -2.43339137e-04 -1.34640141e-03  1.59666544e-04 -7.07891789e-05
  1.22149274e-05  4.24846692e-05 -5.03558934e-05  7.57244119e-05  2.11307199e-04
  3.63757657e-04 -5.58551515e-03 -5.67509166e-06  5.82222462e-06  6.51968665e-05
  2.29813878e-04  2.95958410e-03 -9.00528152e-04  6.67537906e-05 -1.26621279e-04
  1.03477136e-04 -6.42504013e-06  2.23301432e-05 -1.92490000e-04 -2.81080292e-04
  4.76582782e-03  5.15078143e-05 -2.66717945e-04  6.45890338e-06  4.65316245e-03
  3.13950538e-03 -1.06871018e-03 -1.59104061e-04 -1.42313988e-04  6.56060174e-05
  3.91170604e-04 -3.97542320e-04 -1.98598809e-04 -3.62026168e-04 -5.67774436e-03
 -3.29478828e-04  2.19119434e-04  9.92620832e-05 -5.87590250e-03 -1.45618340e-03
  1.20846632e-03  4.02748795e-04  4.84342135e-06  7.06761283e-05  7.07983381e-04
 -4.02313605e-04 -1.00408247e+00 -9.35600197e-03  1.40518551e-02  8.94162186e-04
 -1.45266873e-03 -5.56700811e-05 -3.23511963e-03  1.42138677e-03  6.05632479e-04
  2.01662636e-05  1.75675785e-06  8.41588617e-05  1.49967039e-04 -2.62441308e-04
 -2.57954208e-04 -3.28396026e-04 -2.27984287e-04 -9.79234174e-04  6.21742245e-05
  5.42560369e-05  2.97170812e-04  3.72377048e-05  6.23900753e-05  7.29868910e-06
 -2.31908108e-04 -2.00069364e-04  3.25343518e-06 -2.50694125e-05 -1.28520633e-05
  4.02197245e-04 -8.96665532e-04  6.35173254e-04  1.43789623e-04 -1.26445182e-04
  1.68284596e-04  1.25346153e-03 -2.25648692e-04 -2.07899475e-04  6.34154780e-05
  9.00153255e-05 -6.10981130e-04 -3.48589810e-05 -1.08412635e-04  2.90399191e-05
 -2.80287222e-04 -3.43933910e-04  1.11485292e-03  1.45035335e-04  8.01385042e-05
  7.25926006e-05 -1.27626134e-03  4.90083436e-04 -6.37996835e-04 -7.57928873e-05
 -1.62252909e-05 -2.94944220e-05  5.47459009e-05 -3.77271966e-05 -4.92715801e-04
 -7.05490362e-04  4.86702784e-03 -1.18627613e-04  1.27709772e-05  2.29517903e-06
 -2.39887369e-03 -4.14845746e-03  7.62745353e-04 -3.52094061e-04 -9.79431444e-05
 -1.04993645e-04  6.30039171e-06  1.85617857e-04  4.62069089e-03 -1.00883670e-03
  1.50642888e-04 -5.76608747e-04  1.35434127e-03  9.65032137e-05 -1.95681801e-03
 -6.48150723e-03  7.73007963e-04  1.07482642e-03  2.40435672e-04 -5.36442390e-05
  5.71380487e-04  9.02291836e-04  1.00591544e+00  1.53009645e-02 -1.25756117e-02
  5.64665971e-04 -4.66449597e-04 -1.78027469e-04  5.06800613e-03 -2.37905706e-03
 -1.01503008e-03 -1.63262747e-03 -5.08227316e-04  3.71132644e-05 -3.11470736e-04
 -1.94228297e-05  7.21976771e-04  1.30307151e-03 -4.94137682e-03  2.64716942e-04
 -2.08191398e-04 -3.45954438e-05  3.26174474e-03 -2.67302228e-04 -6.93573352e-04
  6.96432350e-04  4.30821661e-04 -1.70511126e-05 -7.65743932e-04  1.99841834e-04
  5.23725368e-04 -4.37683261e-04 -6.24432470e-04 -2.68143540e-05  1.18650406e-04
 -5.42281595e-05  1.70605792e-04 -2.58685729e-05 -5.47883650e-05  3.07723783e-05
  5.84821294e-06  9.37551102e-04  1.06895530e-05  6.36750062e-05 -2.93785289e-05
 -2.16001727e-03  2.32540963e-03 -1.53560815e-03 -1.59162287e-03  2.63588703e-04
 -1.42864306e-04 -2.68342874e-04  3.01459520e-04  2.92818251e-04 -7.42270774e-05
 -5.50109066e-05  5.50191442e-04  1.71657990e-04  1.30871996e-04 -3.20357817e-05
  2.18888842e-02 -1.13370628e-03  4.79432653e-03  1.33083169e-03  3.38837083e-04
  1.66262215e-04 -2.08161315e-03 -1.81181364e-03  3.83790880e-04  7.61163035e-04
 -5.46576794e-04 -2.92715157e-05 -1.06512681e-03 -4.01735352e-04  1.00619549e+00
  1.62763389e-02 -1.92249722e-02 -1.24876047e-04  2.12481157e-04 -2.43544354e-04
 -1.71334578e-03  3.19714076e-03 -1.76178877e-03 -7.62897454e-04  6.96776980e-04
 -6.46436887e-04  2.27874125e-04 -3.27097687e-05  5.65503425e-03 -4.38861348e-04
  1.07155312e-03 -4.64402713e-04 -6.28443395e-04  1.45140420e-04  7.50869216e-04
  3.88780008e-03  2.81342005e-04  7.99087367e-04  4.12843850e-05  5.86596008e-04
  1.09654699e-03 -9.56763783e-04 -3.58743532e-04 -7.04270899e-04  4.15337842e-03
 -1.05518598e-04 -1.61779819e-04  1.29209151e-04 -6.20086547e-04  2.80677909e-03
 -2.68242602e-04 -4.30708344e-04 -3.17758326e-04  6.12377376e-05  4.07478682e-04
 -3.10514811e-04  9.03425070e-05  1.32775143e-04 -1.23215350e-03  1.63793117e-04
 -3.99169100e-05 -2.64935848e-05  1.33852089e-04 -6.96168720e-04  8.97611671e-05
  8.37076164e-05  2.46628792e-05  1.94616635e-05 -1.45011354e-05  1.78841767e-05
  2.93420681e-04  6.10210599e-04 -2.77062532e-04 -8.10869385e-05 -1.78709559e-05
 -4.97280154e-05  9.00690729e-04  1.44350554e-04 -1.15375652e-04  7.69545435e-05
 -2.59302025e-04 -2.12702731e-04  3.83616514e-05  2.45948245e-04 -1.14571015e-04
  9.85105171e-05  8.03288767e-04  1.79930076e-04 -5.71109686e-05  2.06586833e-06
 -2.95501255e-04  4.04091367e-04 -6.99902652e-05 -3.84746079e-04 -5.79522712e-05
 -2.29637472e-03  1.19676276e-03 -1.15762788e-03  1.51608964e-03 -9.31874319e-04
  1.00619338e+00  1.63740274e-02 -1.52256796e-02  2.80018596e-04 -4.58021101e-05
  3.47589510e-05  2.18735293e-03  7.19841384e-04  7.36971635e-04 -1.04349749e-03
  7.43623493e-04 -1.17973221e-03  6.21853117e-05  3.34723457e-04 -2.31178828e-02
 -1.45159351e-03  9.51457846e-04 -1.34478230e-03 -3.34506094e-04 -2.76502005e-04
  2.89532206e-03  2.50519162e-03 -4.99815412e-05  1.00506157e-03 -5.85764526e-04
  1.85179015e-04 -9.97513240e-04 -7.76077729e-04 -1.09352163e-03 -5.21053567e-04
  3.53337667e-03 -8.43686086e-05  5.42295707e-05 -6.70835950e-05  1.95022967e-03
  2.47350607e-03 -5.06860404e-04 -3.74873841e-04  7.52637985e-05 -2.46868732e-04
 -3.37472126e-04  3.27031167e-05  1.09995269e-05 -2.05997497e-04 -6.47436510e-04
  3.95455388e-07 -1.34320042e-04 -5.21339109e-05 -1.31731181e-03 -1.61551499e-04
  3.02912576e-04  5.95350817e-05  9.87922858e-05 -9.00059997e-05 -4.62897040e-05
  1.05762846e-04  1.04651024e-05  3.42033901e-05  4.10045049e-04  1.19666530e-04
  6.68490717e-05 -3.85826384e-05 -6.64746916e-04 -1.69335818e-04  1.03818862e-04
 -3.07797948e-05 -3.38920000e-05 -2.78557261e-05  7.88701030e-05  5.46335472e-05
  1.65792476e-04  1.28205155e-03 -1.20488423e-04  4.22583061e-04  8.89892118e-05
 -2.31483699e-03  1.89856433e-03  7.45634424e-04  2.02235596e-03 -6.97808241e-04
 -2.13913920e-03  1.49274999e-03  1.21971181e-03 -1.48586907e-03  1.22511539e-03
 -8.12865934e-05 -3.50936363e-05  3.97799129e-05  2.02531750e-05 -1.97068910e-05
  1.09400081e-04  5.81762037e-04  1.14276747e-05 -1.31665974e-04  4.46213157e-05
  7.89627987e-05  2.44825374e-04  1.87474382e-05 -3.17008314e-04  1.05946094e-04
  3.72617693e-04 -4.52729138e-04  2.84011083e-03  7.30520914e-05  1.05124821e-04
 -8.60781017e-05 -2.11098312e-03 -4.33808546e-04 -4.79868747e-05 -2.54063165e-04
  5.24333664e-04 -3.06358596e-04  2.74724817e-04 -4.80186554e-04 -6.04052080e-03
 -6.91325965e-04  2.99797241e-03  2.13264861e-04  7.02031724e-04 -1.78475607e-04
 -2.11737569e-03 -3.86812815e-03 -4.78752926e-05  9.05091053e-04  4.95895671e-04
  3.63282119e-04  5.59021618e-04 -1.31189393e-03  1.00664329e+00  1.67408791e-02
 -2.18810232e-02 -2.19544279e-04 -1.56640015e-04 -1.20765582e-04 -5.14527104e-03
 -2.57463159e-04  1.58969443e-03 -1.07796736e-03 -3.81181774e-04 -6.60888425e-06
  2.82923354e-04 -2.10676303e-04 -5.87483769e-03 -1.59671722e-03  6.74948742e-03
  6.39292001e-04 -1.23571930e-03 -9.29420980e-05  3.09083566e-04  4.20395471e-03
 -3.46240786e-04  8.41513861e-04  1.61287512e-04 -2.08100577e-04  6.99848522e-04
  1.01753605e-03  3.47540751e-05  4.93895784e-05 -9.63533386e-04  2.78391777e-05
 -5.83981953e-05 -2.63805046e-06 -1.05853580e-04 -7.08515771e-04  7.16538609e-05
 -5.75015559e-05 -4.15451661e-05 -1.00479556e-05  9.71665549e-05  8.18236677e-05
  2.72048228e-04  3.62553915e-05 -1.37094892e-04 -1.62818377e-04  2.42934681e-05
  1.11186119e-04  5.14223024e-04  1.41347959e-04 -1.45717316e-04  5.09743315e-05
 -7.06119082e-04  5.07699600e-04  1.92657388e-04 -1.21279804e-04  1.21324855e-04
  1.45385106e-04  1.21389432e-03  2.84993716e-04 -2.21064724e-05 -1.74485403e-05
 -2.37131182e-03  8.31820294e-04 -2.11525637e-03 -5.63196263e-05  2.64399181e-04
 -3.33092803e-04  6.95720734e-04  2.06020157e-04  2.88177117e-04  7.32436994e-05
  1.41076245e-04  8.39607282e-03 -4.37192241e-03 -1.89026677e-03 -5.07207238e-03
 -6.71517896e-04  2.60662468e-03  5.17782564e-03 -1.91899978e-03 -2.56617335e-04
 -5.64327257e-04  7.02540895e-04 -8.14595301e-04  9.76209201e-04 -8.87459152e-05
  1.31083678e-02  1.94895001e-03  1.53290641e-03 -8.62925531e-03  9.72835273e-04
  5.92502611e-03  3.22936527e-03  1.41111446e-04 -1.38114141e-03 -1.59290831e-04
 -4.28904773e-04 -1.32063045e-03  4.29948770e-04 -1.32008647e-03  3.50861691e-02
 -4.34598754e-03  2.11680037e-02 -1.80586214e-02 -4.30045413e-03  5.40208576e-03
  1.50563137e-02 -2.04772273e-03 -2.22520995e-03 -1.11078690e-03  1.54335548e-03
  2.20230424e-03 -8.05834612e-03 -1.26989537e-02  1.54035646e-01  8.51673691e-02
  1.25924443e-01 -5.81850457e-03 -2.71055027e-02  5.00155081e-03  2.39757572e-02
 -1.26091169e-03 -1.10830839e-02 -1.07748314e-02  9.32948889e-04  2.83445202e-02
 -4.94650000e-03 -6.68377542e-03  4.24023960e-01  3.72850513e-01 -7.30898384e-02
  9.04211784e-02  8.89927288e-03 -3.10965865e-02 -1.62013431e-03  6.75758941e-03
 -6.34659067e-03 -3.34859748e-03 -3.79822885e-04  3.94519026e-03 -1.84455809e-03
  1.71386574e-01  4.92706254e-03 -1.87718457e-02 -2.97824265e-02  6.99850295e-03
  1.45619808e-05 -3.92908120e-03  5.72081788e-05  1.10595169e-04 -1.62103504e-04
  7.44881328e-03  4.62532100e-03 -1.14162222e-03 -6.50666279e-04 -9.22334760e-04
  3.43294107e-02  5.34002268e-03  8.27975889e-03  4.49567967e-03 -1.51889935e-03
  5.05409770e-03  1.99724368e-03  4.19162213e-04 -2.28765052e-03  8.34230829e-06
  1.62795141e-03 -1.17036972e-03 -3.02026365e-04 -4.47104983e-04 -8.59510700e-05
  1.47994004e-02 -1.92226941e-01 -1.04076846e-01  8.30801939e-02  2.91641907e-02
  1.39074876e-02  8.65210691e-03 -2.91294379e-03  8.26870525e-03  4.81431921e-03
 -2.29887826e-03 -3.33359725e-03 -7.81451071e-03 -5.99950341e-03  1.94291850e-02
 -2.78004771e-01 -1.78222917e-01 -3.80008672e-02  4.01615700e-02 -1.91962662e-02
 -1.88358104e-02  2.08658775e-02 -1.37927338e-02  1.04467249e-02 -8.64914347e-04
  1.31030501e-03 -1.53053252e-03 -1.09941142e-02  1.81530876e-02 -2.41000268e-01
 -1.42161149e-01 -5.46512258e-02 -1.57193133e-02  1.54879530e-02 -1.90285014e-02
 -1.18293542e-02  9.52410842e-03  8.65321754e-03  1.74452444e-03  2.61463652e-03
  9.48937243e-03 -5.31537860e-03  5.48618258e-03 -1.24175233e-01 -6.67470299e-02
  6.07319754e-02 -8.55128790e-02 -1.00375216e-02  2.32160448e-02 -1.26954926e-02
 -6.64956514e-03  3.36357272e-03 -1.65840307e-03 -5.09867798e-04  1.20962688e-02
  4.08146035e-03  1.09931933e-03  8.79996400e-02  8.11651802e-02  2.65483050e-02
  2.27793487e-03 -7.36074759e-03  1.62365534e-02 -7.85583074e-03 -3.30572709e-03
  7.92719610e-04  3.95711451e-04 -6.97625440e-04 -1.05338320e-03  2.90549882e-03
  3.36258440e-02  3.72294123e-03 -1.94606740e-03 -9.11909971e-03  2.98485694e-04
 -5.98715083e-02 -5.60620129e-04  5.86397419e-03  8.84737632e-03 -2.14403401e-03
 -6.93213010e-02 -4.68039552e-03  8.17737778e-03 -5.54135068e-03  5.84526160e-03
 -3.30849335e-02  1.01789553e-03 -5.08468344e-04 -5.84052615e-03  2.23671939e-04
 -8.10561938e-02 -8.44537945e-03 -1.30453428e-02 -9.31383591e-04  2.01693666e-03
 -9.55043614e-02 -1.22889633e-02 -8.51783701e-03  1.08195799e-02 -6.32205501e-03
  1.63453381e-02 -2.27101472e-01 -1.26691559e-01  5.43222658e-02  8.91707187e-03
  1.38130242e-02  2.77715418e-03  1.14232669e-03  2.83636286e-03  3.09274400e-03
 -2.58580623e-03 -2.24885426e-03 -5.47594601e-03  5.12016098e-05  8.86835292e-03
 -1.34333795e-01 -1.00870501e-01 -1.09566476e-01 -7.69238341e-02 -6.79872675e-03
 -4.77026362e-02 -1.28182368e-02 -6.54011004e-03  2.34813630e-03 -4.17381744e-03
 -2.60856757e-03 -1.45202498e-02  3.38315677e-04 -1.33344718e-02  1.98826737e-01
  1.29674798e-01  1.01003971e-02 -1.19839771e-01 -4.65145061e-03  1.84728210e-02
 -3.36848415e-02 -1.33739941e-04 -3.37788942e-03  1.79728796e-04  1.98910761e-03
 -6.84842707e-03 -1.21085453e-02 -1.00319443e-02  2.51681790e-01  1.40153576e-01
 -7.33043201e-02  5.94831540e-02  1.14108835e-02 -2.23864202e-02  1.00725767e-02
  2.57131081e-03 -5.32741680e-03 -2.73152417e-04  1.30767982e-03 -5.36812457e-03
 -1.09285643e-02 -1.97540102e-03 -8.78226848e-02 -7.77553241e-02 -1.08567984e-01
 -4.44651825e-02  2.57107811e-02 -5.00215943e-02 -3.11026528e-03  1.01995688e-02
 -1.53103009e-03 -1.41737051e-03  1.34685642e-03  5.94215844e-03 -5.03232112e-03
 -1.07689680e-01 -2.03165604e-02  4.84930087e-03  1.15296408e-02 -3.28331039e-03
 -9.62202243e-02 -9.77262021e-03  6.07370757e-03  1.26448284e-02 -3.48761546e-03
 -9.54132284e-02 -1.23489242e-02  9.12653412e-03 -6.71327581e-03  7.87277070e-03
  1.08803925e-01  9.71910587e-03  5.27095714e-03  1.39715101e-02 -8.19448320e-04
  8.96872609e-02  1.36568170e-02  1.22707683e-02 -3.05980671e-03 -2.17013434e-03
 -5.78595085e-02 -1.17824520e-02 -6.80082288e-03  3.49654286e-03 -3.58398583e-03
  1.05296681e-02 -1.90013014e-01 -1.23078686e-01 -2.34137869e-02 -3.05546878e-02
 -1.65433283e-04 -2.17304306e-02  4.53342451e-03 -8.50952635e-03 -1.58693644e-03
 -2.89088726e-04  4.85687124e-04  5.87882814e-04  2.32467158e-03 -2.73975714e-03
  8.57014027e-02  4.19951535e-02 -1.47796159e-01 -9.48724150e-02 -8.91351510e-03
 -4.94945156e-02 -4.04770651e-02 -1.08219473e-03 -9.44928967e-04 -4.68644732e-03
 -2.64140894e-03 -9.55097694e-03  1.44894814e-03 -5.94755027e-03  1.57910425e-01
  9.24235375e-02 -1.73176426e-02  1.19948991e-01 -1.38467869e-02  5.17878743e-03
  4.42100132e-02 -5.27145097e-03 -7.91423195e-04 -1.12507295e-03 -4.10992334e-03
 -2.18093644e-03  7.47467633e-03  3.19993432e-03 -2.08009365e-01 -1.26592900e-01
 -4.69475143e-02  1.43485672e-01  3.58629083e-03 -1.92689492e-02  3.45943997e-02
  6.84373151e-04  1.95526453e-03  2.16985441e-03 -2.91002484e-03 -8.71835335e-03
  9.47169154e-03  5.49875610e-04  5.41007387e-02  5.28697342e-02  2.34959698e-01
  1.39536542e-01 -6.22674215e-02  1.02682322e-01  4.28041473e-02 -2.58697102e-02
  1.28979616e-03  2.79773262e-03 -1.70830009e-03 -1.18855826e-02  3.81389356e-03
  1.88439241e-01  3.80040174e-02 -8.13353244e-03 -2.32866919e-02  3.09275233e-03
 -1.23748114e-01 -2.67214356e-02  5.08365740e-03  1.27333300e-02 -4.30219753e-03
 -9.35442134e-02 -6.37613056e-03  6.52337656e-03 -9.43209176e-03  5.93018795e-03
 -1.63968482e-01 -3.09729053e-02 -9.46990308e-03 -1.41250107e-02  1.29201606e-03
  9.33605535e-02  2.00661745e-02  1.04944388e-02  2.67671621e-03 -2.06018661e-03
  5.75828552e-02  1.13872049e-02  5.46112362e-04 -6.44521713e-03  2.38183261e-03
  6.74572659e-03 -1.37891329e-01 -8.38786514e-02 -1.40548800e-01  2.21510356e-02
 -4.28834114e-02 -5.58434574e-02  1.30561352e-02 -1.44988064e-02 -3.09991112e-03
  3.42911806e-03 -4.08298127e-05  1.08848353e-02  2.88521515e-03 -4.30594722e-03
  2.11364207e-01  1.21247427e-01 -1.04625207e-01  5.20202139e-02 -4.05352540e-02
 -4.41672093e-02  7.80242075e-03 -1.19838694e-02  4.20371162e-03 -2.61182191e-03
 -6.21556474e-04 -2.09505735e-03 -2.63461509e-04  1.91882328e-03 -7.81121853e-02
 -2.15096892e-02 -5.39129569e-03  1.84625632e-01 -2.02362685e-02  1.44502843e-03
  4.19648138e-02 -8.99659722e-03 -1.40951044e-03 -1.33396393e-03 -4.83491261e-03
 -3.69538588e-03  6.09842621e-03  2.62615825e-03 -1.27460588e-02 -1.57902364e-02
  1.57700978e-01 -1.76495357e-01 -3.48758172e-02  4.72269631e-02 -6.30528074e-02
 -1.02536916e-02 -2.30136299e-03 -2.54386083e-03  1.15135156e-03  1.01419937e-02
 -1.00397080e-02  1.25523300e-03  3.82163501e-02  5.95370148e-02 -1.98444337e-01
 -1.76443625e-01  4.73307258e-02 -7.69529119e-02 -7.14878831e-02  1.58040464e-02
  9.87313605e-04 -1.35300079e-03  1.03191506e-03  1.07688495e-02 -1.71847826e-03
 -1.88941091e-01 -4.78246614e-02  6.00818646e-03  1.27468242e-02 -5.59764735e-03
 -9.53117010e-02 -2.31716977e-02  2.75504391e-04  1.02158640e-02 -4.06097564e-03
 -1.67911350e-01 -3.62499563e-02  7.29129101e-03 -7.05832939e-03  1.01361928e-02
  3.13275195e-02  4.09310067e-03  3.62053177e-03  4.33504695e-04 -7.66550256e-04
 -4.24522973e-02 -9.81052275e-03 -5.32581395e-03  3.87335794e-03  4.57179414e-04
  1.86840968e-01  3.97001771e-02  9.35100745e-03 -1.30154628e-02  8.41579123e-03
 -7.59018717e-04  3.62232866e-02  4.16740468e-02  6.61688499e-02  1.43258443e-01
 -2.76186166e-02  1.20605673e-02  5.79724885e-02 -1.16748683e-02  2.16560700e-03
 -1.42186204e-03 -2.35107910e-03 -5.65773615e-04 -3.96346084e-03 -3.50202399e-04
 -3.05171919e-02 -1.59129157e-02 -9.15788818e-02  1.49409423e-01 -4.93089212e-02
 -5.38592241e-02  4.59557018e-02 -1.16259273e-02  9.07492947e-04 -1.75707075e-03
 -8.22199998e-04  6.94157731e-03  8.49403930e-03 -4.17933266e-03  3.12161160e-02