[Molden Format]
[Atoms] (AU)
C    1    6           1.9574392320         2.6156310505        -0.2097134434
C    2    6          -0.8513659849         2.3977401669        -0.1464447136
C    3    6          -2.0986842494         0.1935943033         0.1744756824
C    4    6          -0.8607349636        -2.2925310692         0.0756558940
O    5    8           1.4072655773        -2.7006419168         0.1208006764
H    6    1           2.7533259435         0.9858005086        -1.1831807992
H    7    1           2.6505699689         4.4224892649        -0.9663989014
H    8    1           2.6630862865         2.4183850280         1.7516923561
H    9    1          -2.1946613228        -3.9127392768        -0.1750337187
H   10    1          -4.1576847279         0.1384618838         0.3068435898
H   11    1          -1.9814891798         4.1070778930        -0.3886765924
[GTO]
  1 0
 s    8  1.00
     6665.0000000000         0.0006920000
     1000.0000000000         0.0053290000
      228.0000000000         0.0270770000
       64.7100000000         0.1017180000
       21.0600000000         0.2747400000
        7.4950000000         0.4485640000
        2.7970000000         0.2850740000
        0.5215000000         0.0152040000
 s    8  1.00
     6665.0000000000        -0.0001460000
     1000.0000000000        -0.0011540000
      228.0000000000        -0.0057250000
       64.7100000000        -0.0233120000
       21.0600000000        -0.0639550000
        7.4950000000        -0.1499810000
        2.7970000000        -0.1272620000
        0.5215000000         0.5445290000
 s    1  1.00
        0.1596000000         1.0000000000
 p    3  1.00
        9.4390000000         0.0381090000
        2.0020000000         0.2094800000
        0.5456000000         0.5085570000
 p    1  1.00
        0.1517000000         1.0000000000
 d    1  1.00
        0.5500000000         1.0000000000

  2 0
 s    8  1.00
     6665.0000000000         0.0006920000
     1000.0000000000         0.0053290000
      228.0000000000         0.0270770000
       64.7100000000         0.1017180000
       21.0600000000         0.2747400000
        7.4950000000         0.4485640000
        2.7970000000         0.2850740000
        0.5215000000         0.0152040000
 s    8  1.00
     6665.0000000000        -0.0001460000
     1000.0000000000        -0.0011540000
      228.0000000000        -0.0057250000
       64.7100000000        -0.0233120000
       21.0600000000        -0.0639550000
        7.4950000000        -0.1499810000
        2.7970000000        -0.1272620000
        0.5215000000         0.5445290000
 s    1  1.00
        0.1596000000         1.0000000000
 p    3  1.00
        9.4390000000         0.0381090000
        2.0020000000         0.2094800000
        0.5456000000         0.5085570000
 p    1  1.00
        0.1517000000         1.0000000000
 d    1  1.00
        0.5500000000         1.0000000000

  3 0
 s    8  1.00
     6665.0000000000         0.0006920000
     1000.0000000000         0.0053290000
      228.0000000000         0.0270770000
       64.7100000000         0.1017180000
       21.0600000000         0.2747400000
        7.4950000000         0.4485640000
        2.7970000000         0.2850740000
        0.5215000000         0.0152040000
 s    8  1.00
     6665.0000000000        -0.0001460000
     1000.0000000000        -0.0011540000
      228.0000000000        -0.0057250000
       64.7100000000        -0.0233120000
       21.0600000000        -0.0639550000
        7.4950000000        -0.1499810000
        2.7970000000        -0.1272620000
        0.5215000000         0.5445290000
 s    1  1.00
        0.1596000000         1.0000000000
 p    3  1.00
        9.4390000000         0.0381090000
        2.0020000000         0.2094800000
        0.5456000000         0.5085570000
 p    1  1.00
        0.1517000000         1.0000000000
 d    1  1.00
        0.5500000000         1.0000000000

  4 0
 s    8  1.00
     6665.0000000000         0.0006920000
     1000.0000000000         0.0053290000
      228.0000000000         0.0270770000
       64.7100000000         0.1017180000
       21.0600000000         0.2747400000
        7.4950000000         0.4485640000
        2.7970000000         0.2850740000
        0.5215000000         0.0152040000
 s    8  1.00
     6665.0000000000        -0.0001460000
     1000.0000000000        -0.0011540000
      228.0000000000        -0.0057250000
       64.7100000000        -0.0233120000
       21.0600000000        -0.0639550000
        7.4950000000        -0.1499810000
        2.7970000000        -0.1272620000
        0.5215000000         0.5445290000
 s    1  1.00
        0.1596000000         1.0000000000
 p    3  1.00
        9.4390000000         0.0381090000
        2.0020000000         0.2094800000
        0.5456000000         0.5085570000
 p    1  1.00
        0.1517000000         1.0000000000
 d    1  1.00
        0.5500000000         1.0000000000

  5 0
 s    8  1.00
    11720.0000000000         0.0007100000
     1759.0000000000         0.0054700000
      400.8000000000         0.0278370000
      113.7000000000         0.1048000000
       37.0300000000         0.2830620000
       13.2700000000         0.4487190000
        5.0250000000         0.2709520000
        1.0130000000         0.0154580000
 s    8  1.00
    11720.0000000000        -0.0001600000
     1759.0000000000        -0.0012630000
      400.8000000000        -0.0062670000
      113.7000000000        -0.0257160000
       37.0300000000        -0.0709240000
       13.2700000000        -0.1654110000
        5.0250000000        -0.1169550000
        1.0130000000         0.5573680000
 s    1  1.00
        0.3023000000         1.0000000000
 p    3  1.00
       17.7000000000         0.0430180000
        3.8540000000         0.2289130000
        1.0460000000         0.5087280000
 p    1  1.00
        0.2753000000         1.0000000000
 d    1  1.00
        1.1850000000         1.0000000000

  6 0
 s    3  1.00
       13.0100000000         0.0196850000
        1.9620000000         0.1379770000
        0.4446000000         0.4781480000
 s    1  1.00
        0.1220000000         1.0000000000
 p    1  1.00
        0.7270000000         1.0000000000

  7 0
 s    3  1.00
       13.0100000000         0.0196850000
        1.9620000000         0.1379770000
        0.4446000000         0.4781480000
 s    1  1.00
        0.1220000000         1.0000000000
 p    1  1.00
        0.7270000000         1.0000000000

  8 0
 s    3  1.00
       13.0100000000         0.0196850000
        1.9620000000         0.1379770000
        0.4446000000         0.4781480000
 s    1  1.00
        0.1220000000         1.0000000000
 p    1  1.00
        0.7270000000         1.0000000000

  9 0
 s    3  1.00
       13.0100000000         0.0196850000
        1.9620000000         0.1379770000
        0.4446000000         0.4781480000
 s    1  1.00
        0.1220000000         1.0000000000
 p    1  1.00
        0.7270000000         1.0000000000

  10 0
 s    3  1.00
       13.0100000000         0.0196850000
        1.9620000000         0.1379770000
        0.4446000000         0.4781480000
 s    1  1.00
        0.1220000000         1.0000000000
 p    1  1.00
        0.7270000000         1.0000000000

  11 0
 s    3  1.00
       13.0100000000         0.0196850000
        1.9620000000         0.1379770000
        0.4446000000         0.4781480000
 s    1  1.00
        0.1220000000         1.0000000000
 p    1  1.00
        0.7270000000         1.0000000000

[5D7F]
[9G]

[MO]
 Sym= A
 Ene=        -1.9134479196e+01
 Spin= Alpha
 Occup=         2.0000000000e+00
  1        -7.0246056678e-05
  2        -1.4625549922e-04
  3         8.3641353801e-05
  4         6.4785381631e-05
  5         4.3216266676e-05
  6         7.3351066323e-06
  7        -5.0102889311e-05
  8        -1.6158570729e-04
  9         1.6339378359e-04
 10         7.7019969387e-05
 11         3.2174982932e-05
 12         3.5002214348e-05
 13         7.9283124500e-05
 14        -1.0066423167e-04
 15        -2.0277717975e-04
 16        -3.6206755121e-04
 17         5.3208173996e-03
 18        -2.2439443278e-05
 19        -1.9240917269e-05
 20        -6.1473675372e-05
 21        -9.6254172274e-04
 22        -2.1751534768e-03
 23         5.0749841707e-04
 24        -3.0473849097e-05
 25         3.2004330066e-05
 26        -2.1496709610e-05
 27        -5.1171577085e-05
 28        -5.4130450387e-05
 29         2.0105553835e-04
 30         3.0856958152e-04
 31        -3.8194258327e-03
 32         2.4595626133e-05
 33         2.7690181191e-04
 34        -1.0929240644e-05
 35        -4.4650067021e-03
 36        -3.5814753525e-03
 37         3.0068727436e-04
 38         1.2501133034e-04
 39         5.5406286567e-05
 40         9.1148016915e-05
 41        -4.0129331957e-04
 42         4.9645033196e-04
 43         4.5417757887e-04
 44         5.9466126877e-04
 45         5.3042729981e-03
 46        -9.9443840857e-05
 47        -1.8059150922e-04
 48        -3.3053654178e-05
 49         6.5894936945e-03
 50         4.9921613720e-04
 51         1.1541262634e-04
 52        -1.1006492921e-05
 53         1.5404453580e-05
 54         9.4592781685e-05
 55        -1.1632965857e-03
 56         5.2582099446e-04
 57         1.0041677457e+00
 58         9.4698263769e-03
 59        -1.5072165504e-02
 60        -1.8377810807e-03
 61         3.6467616472e-04
 62        -5.5435756531e-05
 63         3.4949987558e-03
 64        -8.3931651459e-04
 65         9.0734627327e-05
 66        -1.9168773232e-05
 67         1.9014028830e-06
 68        -3.6780025504e-06
 69         6.9855244010e-05
 70         8.2303041420e-06
 71        -1.1838908466e-04
 72        -1.1755165024e-04
 73         3.0007231960e-05
 74        -2.2824828335e-05
 75         3.2521960954e-05
 76         1.2485675182e-04
 77         3.6387633333e-04
 78        -7.5434553255e-05
 79        -6.9974897129e-05
 80         4.3609202305e-05
 81        -1.0966698600e-04
 82        -2.4510748262e-04
 83         6.9245562341e-05
 84         6.4415539096e-05
 85         5.9074302584e-05
 86        -1.8051974081e-04
 87         8.7843878721e-04
 88        -7.6580844860e-04
 89         1.0205252977e-04
 90        -3.5143490372e-06
 91        -2.8403903690e-04
 92        -1.3065659518e-03
 93         1.8465724426e-04
 94         2.4877234724e-04
 95        -9.4073646504e-07
 96        -1.8486578900e-04
 97         2.1643784828e-04
 98         4.0651185713e-05
 99         7.9493515363e-05
100        -2.9737422645e-05
 Sym= A
 Ene=        -1.0271844501e+01
 Spin= Alpha
 Occup=         2.0000000000e+00
  1        -3.7415666809e-04
  2        -4.9602490351e-04
  3         8.9930674397e-04
  4         2.9044008550e-04
  5         7.2181119474e-05
  6        -2.7095531197e-08
  7        -6.3203744547e-04
  8         4.5642984843e-05
  9         2.3878269725e-05
 10        -1.8742177960e-05
 11        -6.9524284673e-05
 12         4.3231990254e-07
 13        -1.1442300308e-04
 14        -3.6462968759e-05
 15        -4.3297246003e-04
 16        -6.3539785510e-04
 17         6.4690280740e-03
 18        -2.7104906690e-04
 19        -2.5332210515e-05
 20         5.1200334269e-05
 21        -2.1096211759e-03
 22        -3.7821655245e-03
 23         6.2474359818e-04
 24        -3.9608676605e-04
 25        -1.9956185885e-04
 26        -9.7742442589e-05
 27         2.9076513876e-04
 28         3.5295474774e-04
 29         1.6778654048e-03
 30        -2.7088545841e-04
 31        -1.8984283410e-03
 32        -3.5681852932e-04
 33         7.8138658848e-04
 34         5.0000970774e-05
 35        -2.5962080379e-03
 36        -5.9408647789e-03
 37         4.2024106217e-04
 38         1.0451031777e-03
 39         8.8409363721e-06
 40        -2.4105475195e-05
 41         1.1214202778e-03
 42         8.6424930698e-04
 43         1.0059471768e+00
 44         1.5301822053e-02
 45        -1.0710344757e-02
 46         7.3662275170e-04
 47        -4.8569671962e-04
 48        -1.0015851083e-04
 49         5.3896215739e-03
 50        -2.0793248762e-03
 51        -4.3869537841e-06
 52        -1.6390182087e-03
 53         2.1287623414e-04
 54         2.0449376742e-04
 55         8.2009110334e-04
 56        -2.2706606690e-05
 57         3.6419597702e-04
 58         9.0687793302e-04
 59        -5.9261415253e-03
 60         7.4312134245e-04
 61        -2.0929582230e-04
 62        -2.2729333916e-07
 63         3.4029754253e-03
 64        -2.0867844422e-04
 65         9.5477404496e-05
 66         5.6761692688e-04
 67        -2.6063306701e-05
 68        -1.9701675649e-05
 69        -7.2390776623e-04
 70         2.5125794068e-04
 71        -1.1327872227e-04
 72        -6.1373974631e-05
 73         2.3652691766e-05
 74         3.4543519959e-06
 75        -1.2286878748e-05
 76        -5.1704537349e-05
 77         3.6588431573e-04
 78        -5.2685579207e-05
 79        -2.5143938595e-05
 80         8.7604932858e-06
 81        -6.8108889321e-05
 82        -8.6101608444e-06
 83         1.0612278438e-04
 84         5.3210421599e-05
 85        -4.4409052384e-05
 86        -1.6838572135e-03
 87         2.4566498570e-03
 88        -1.4292076436e-03
 89        -1.4514841177e-03
 90        -2.3230986751e-04
 91        -5.3734736485e-04
 92        -4.8986969585e-04
 93         5.1124215619e-05
 94         2.6752823694e-04
 95        -3.2401698405e-05
 96        -3.1811890790e-05
 97         6.0894371784e-04
 98         2.2460385024e-04
 99         1.0328873453e-04
100        -3.5421709486e-05
 Sym= A
 Ene=        -1.0223071708e+01
 Spin= Alpha
 Occup=         2.0000000000e+00
  1         3.1763241342e-03
  2        -4.0414459980e-04
  3         4.3376934046e-03
  4         7.3563669351e-04
  5         4.2399563636e-05
  6         5.8022752060e-05
  7        -2.4006476794e-03
  8        -8.1127596034e-04
  9        -3.4511255527e-04
 10         7.8638280382e-04
 11         9.9301818921e-05
 12         4.1495209212e-05
 13        -9.9044643192e-04
 14        -6.3307961076e-05
 15         1.0063748070e+00
 16         1.6235294677e-02
 17        -2.0269636435e-02
 18        -5.3122889445e-04
 19         2.1143733907e-04
 20        -2.3788467735e-05
 21        -2.2571677148e-03
 22         3.9346717377e-03
 23        -4.7387282971e-04
 24        -1.0508298859e-03
 25         1.2067174650e-04
 26        -3.4173252601e-04
 27        -5.3046050388e-04
 28        -4.5323464149e-04
 29         1.2512026106e-02
 30        -1.2256567191e-03
 31         4.8164825869e-03
 32        -7.1464401343e-04
 33        -1.0705825340e-03
 34         1.6692083044e-04
 35         2.7249292762e-03
 36         2.6906132021e-03
 37        -3.0465054504e-04
 38         8.7589328954e-04
 39         1.4252648312e-04
 40         3.0794236223e-04
 41         5.0092306226e-04
 42        -9.7146155847e-04
 43        -2.8302040855e-04
 44        -5.6310486855e-04
 45         1.2029468679e-03
 46        -2.0482924384e-05
 47        -2.0807246348e-04
 48         4.0299343339e-05
 49        -4.6171724400e-04
 50         1.0748495526e-03
 51        -5.8941357339e-05
 52        -3.2931966353e-04
 53        -1.0319839748e-04
 54        -1.1305045172e-05
 55         1.6362491336e-04
 56        -8.3577623384e-06
 57        -3.4330749055e-05
 58        -7.2621442142e-05
 59        -1.1734728199e-04
 60         1.2096467835e-04
 61         1.3540656318e-05
 62         1.7086960323e-05
 63        -1.2213013886e-04
 64        -3.3987519397e-04
 65         3.0679831959e-05
 66         1.1206250955e-05
 67        -2.7094350008e-05
 68         3.7467636613e-06
 69         4.0506922046e-06
 70         2.5147479150e-05
 71        -4.2288261419e-04
 72         4.1484109114e-04
 73        -1.3185660970e-04
 74        -2.8219298476e-06
 75         5.7661740811e-05
 76        -2.6064162411e-04
 77         1.9343351591e-04
 78         1.4697564619e-04
 79         1.0414327154e-05
 80         7.1102962839e-05
 81        -4.6112851370e-04
 82         1.1727763678e-03
 83        -2.1395381552e-04
 84         4.9383776678e-07
 85         3.1418539754e-05
 86        -8.7224961334e-05
 87         3.3105416406e-04
 88         4.6556477177e-05
 89        -7.3779034532e-05
 90        -1.5947946907e-05
 91         1.8453342910e-04
 92         9.5331280519e-04
 93         1.6591167557e-04
 94        -2.6857333166e-04
 95         1.2005253236e-06
 96        -2.5199882858e-03
 97         1.1125451839e-03
 98        -1.2587889586e-03
 99         1.8112106425e-03
100        -2.5525322780e-04
 Sym= A
 Ene=        -1.0196675755e+01
 Spin= Alpha
 Occup=         2.0000000000e+00
  1         1.2182619311e-03
  2         4.8134959135e-04
  3        -2.8581968731e-04
  4        -1.1091205151e-04
  5        -1.3644600438e-04
  6         1.0760918800e-04
  7         9.0163202891e-04
  8         7.7023585118e-05
  9        -2.8696494587e-04
 10         3.0628428670e-04
 11         2.9753488255e-05
 12         6.4211806682e-05
 13        -4.2495701566e-05
 14         1.1972569399e-04
 15         1.3967311888e-02
 16         1.7397023003e-03
 17        -6.1426472035e-03
 18        -5.9830920936e-04
 19        -1.2161671498e-03
 20         1.8318179241e-04
 21         7.2366132476e-04
 22         3.7037661995e-03
 23        -1.9557231019e-04
 24        -9.1662044535e-04
 25        -1.9643201890e-04
 26        -3.3686316900e-04
 27        -6.1876342570e-04
 28         9.2049283899e-04
 29        -1.0065177824e+00
 30        -1.6617953802e-02
 31         2.1153020490e-02
 32         3.3872704764e-04
 33        -2.2902037501e-04
 34         1.7041131277e-04
 35         5.2780488076e-03
 36         2.7066652439e-04
 37        -9.6331819386e-04
 38         1.1057645508e-03
 39         1.8707266473e-04
 40         1.2119812210e-04
 41        -4.5209063481e-04
 42        -5.3647016992e-04
 43         2.0050190875e-03
 44         7.8366064438e-04
 45        -5.6829428546e-03
 46        -2.6612367302e-04
 47         7.1239508741e-04
 48         5.7279291206e-05
 49        -3.2354956294e-04
 50        -3.4483188233e-03
 51         4.7734913828e-05
 52        -7.0908145026e-04
 53        -1.7193683766e-04
 54         7.8405906905e-05
 55        -5.5531404231e-04
 56        -1.2191244882e-03
 57        -3.5654846479e-05
 58        -6.1992127190e-05
 59         7.1308922087e-04
 60        -1.2763914449e-05
 61         6.2046239620e-05
 62         4.2559710707e-05
 63         1.4749049114e-04
 64         6.3682601364e-04
 65        -5.3889304356e-05
 66         1.2908158169e-04
 67        -4.2980763731e-05
 68        -1.2405526061e-05
 69        -8.5093969300e-05
 70        -2.1933448551e-04
 71         1.4065024519e-04
 72        -3.3383344450e-04
 73        -1.6485365168e-05
 74        -7.6045806514e-05
 75         5.6092241191e-05
 76        -2.9829711709e-05
 77        -3.5379754998e-04
 78        -4.6881230951e-05
 79         4.5009975951e-05
 80         3.1107723847e-05
 81         8.3188154208e-05
 82        -2.0204729368e-04
 83        -4.1961799011e-05
 84        -8.2394904953e-05
 85         1.3692121957e-04
 86         2.8501486002e-04
 87        -9.6299107601e-04
 88        -7.6840475656e-05
 89         1.9542754719e-04
 90        -3.5408868339e-05
 91         2.5291028795e-03
 92        -8.4065363476e-04
 93         2.1994669761e-03
 94        -8.6766530147e-05
 95        -6.9533177877e-05
 96        -1.1193818022e-04
 97        -8.4913141839e-04
 98        -2.9584744937e-04
 99         4.2635623861e-05
100        -4.4001785956e-05
 Sym= A
 Ene=        -1.0188857650e+01
 Spin= Alpha
 Occup=         2.0000000000e+00
  1         1.0070563270e+00
  2         1.7580934617e-02
  3        -1.9371415917e-02
  4         4.0449705800e-04
  5        -5.1721284650e-05
  6         1.6972586255e-04
  7         2.9100450643e-03
  8         4.9519127007e-04
  9        -5.8257989336e-04
 10         1.2886171198e-04
 11        -2.7953336245e-05
 12        -1.0022984669e-04
 13        -6.9218380909e-04
 14         5.8267691611e-05
 15        -3.3632110467e-03
 16        -2.6174740518e-04
 17         1.5807632433e-03
 18        -4.9746271570e-04
 19         5.0466724485e-05
 20         3.6829352220e-06
 21         4.1848069891e-03
 22         2.3588228000e-03
 23        -3.2077321549e-04
 24         6.5600921190e-04
 25         1.1150215651e-04
 26        -1.7700466362e-05
 27        -1.3342977490e-03
 28        -3.8298221254e-04
 29         5.3502448982e-04
 30        -6.6037370795e-04
 31         3.6795028373e-03
 32        -2.3617287675e-04
 33         3.6877439537e-05
 34        -5.1091636933e-06
 35         1.2398846359e-03
 36         2.6064125544e-03
 37        -3.8671408481e-04
 38        -3.7152148578e-04
 39         2.4789895125e-05
 40        -1.1293703176e-04
 41        -4.1760720644e-04
 42        -2.1450003799e-04
 43        -1.3006710552e-04
 44        -5.1251371417e-04
 45         3.6862522840e-04
 46        -7.5595013046e-05
 47        -2.6965847736e-04
 48        -4.1487332892e-05
 49        -2.3504774447e-04
 50         4.8736031307e-04
 51         1.3480146962e-04
 52        -3.9235699256e-05
 53        -2.8790176464e-05
 54        -3.0882904423e-05
 55         3.0846363368e-05
 56         5.5931494956e-05
 57        -1.0490522023e-04
 58        -2.0320007379e-04
 59         3.6198500913e-04
 60         3.1842453823e-05
 61        -1.1139927454e-04
 62        -2.3099078717e-05
 63        -2.6006678463e-04
 64         2.4201315369e-04
 65         6.6383968023e-05
 66        -5.7651933402e-05
 67         7.4827336807e-07
 68         6.6120404483e-06
 69         2.1520731457e-06
 70        -1.2499534352e-06
 71        -1.2270818819e-03
 72         2.1514524084e-03
 73         6.2301136655e-04
 74        -1.5364359078e-03
 75        -9.3985971157e-04
 76        -1.5171961410e-03
 77         1.7213000555e-03
 78         6.2243267007e-04
 79         1.8102295985e-03
 80        -7.6893072265e-04
 81        -9.8092930659e-04
 82         2.3778720663e-03
 83         4.5808661708e-04
 84        -2.1176115174e-04
 85         1.8067465721e-03
 86         1.4924684898e-05
 87         3.7633362230e-04
 88         1.1696810339e-05
 89         5.7489361201e-05
 90        -1.6536664479e-05
 91         4.2493588953e-05
 92         5.0020388298e-04
 93         6.1952413709e-05
 94        -1.9163012148e-04
 95         2.7839894266e-05
 96        -3.6886803159e-04
 97         1.5013739533e-04
 98        -3.9189733557e-04
 99        -1.8593092334e-04
100         3.2465619518e-05
 Sym= A
 Ene=        -1.0395709701e+00
 Spin= Alpha
 Occup=         2.0000000000e+00
  1        -5.2747276478e-04
  2         8.2791216930e-03
  3         4.9886052523e-03
  4        -3.4148445895e-03
  5        -4.0019813589e-03
  6        -1.6101256907e-05
  7        -2.7513200995e-03
  8        -1.2564055916e-03
  9         8.3421660325e-04
 10        -7.2027328136e-04
 11        -1.2562077210e-04
 12        -1.6753854845e-04
 13         1.0392556934e-04
 14         8.9655707745e-04
 15         4.4410776093e-04
 16         1.7195399267e-02
 17        -1.1665640577e-02
 18         4.3095205681e-04
 19        -1.0832022171e-02
 20         1.1462320780e-03
 21        -1.8173555401e-03
 22         9.0733334000e-03
 23        -1.2212017567e-03
 24        -5.1488909056e-04
 25        -2.1572306893e-04
 26        -4.8778126418e-04
 27        -1.5095725906e-03
 28         7.5162943166e-04
 29        -3.7355736041e-03
 30         3.6582502296e-02
 31         3.1570259719e-02
 32         2.1415636012e-02
 33        -1.9596559785e-02
 34        -1.2061269745e-03
 35         1.9785583821e-02
 36         1.9428719616e-03
 37        -1.9821306162e-03
 38        -3.7232484814e-03
 39        -5.1815917589e-04
 40        -5.7496655708e-05
 41        -2.5140727865e-04
 42        -9.1126322346e-03
 43        -1.4837939280e-02
 44         2.2433713341e-01
 45         9.4547352507e-02
 46         1.8413252297e-01
 47        -2.4639131450e-02
 48         3.6563689362e-03
 49         1.2543446309e-02
 50        -2.2898605391e-03
 51         9.4275122895e-04
 52        -1.3866553585e-02
 53         3.7151671013e-04
 54        -1.5039792367e-03
 55         3.1321407286e-02
 56        -1.3694674424e-02
 57        -9.2748811058e-03
 58         4.0178475382e-01
 59         3.6051878077e-01
 60        -1.5495992657e-01
 61         3.1551920557e-02
 62        -3.7094283483e-03
 63        -3.1660103187e-02
 64         7.6975970388e-03
 65        -1.4912664585e-03
 66        -5.4165558252e-03
 67         2.8026292971e-04
 68        -7.7278211675e-04
 69         1.2031984260e-02
 70        -5.0189177647e-03
 71         7.9810229095e-03
 72         4.0449013075e-03
 73        -7.1575043384e-04
 74        -3.3464531287e-04
 75         7.0959570578e-04
 76         1.1271720909e-03
 77        -4.7086014779e-04
 78         2.1827106855e-05
 79        -5.9792260550e-05
 80        -7.3917078823e-05
 81         2.8746880636e-03
 82         7.5252768478e-04
 83        -3.3139307167e-04
 84        -3.6765883208e-04
 85        -5.6686625082e-04
 86         4.0426462253e-02
 87        -3.2363734593e-03
 88         1.0021028863e-02
 89         6.1889851454e-03
 90         1.0717079305e-03
 91         7.3793588312e-03
 92         6.0617438042e-03
 93         1.0708434904e-03
 94        -1.8740267221e-03
 95        -9.8283167798e-05
 96         1.9889142121e-03
 97        -2.9533924420e-03
 98        -1.6647522321e-04
 99        -8.5853958687e-04
100         1.4575201881e-04
 Sym= A
 Ene=        -8.1276283146e-01
 Spin= Alpha
 Occup=         2.0000000000e+00
  1         1.1444736008e-02
  2        -1.8185513433e-01
  3        -7.3572297776e-02
  4         6.7996215254e-02
  5         1.4679441176e-02
  6        -5.2902996284e-03
  7         1.5902795716e-03
  8        -9.6814889348e-03
  9         2.6930353726e-03
 10         5.7324371653e-03
 11         7.0689830515e-04
 12        -6.5790855882e-05
 13        -1.0163017999e-02
 14        -3.1514898667e-03
 15         2.0196013817e-02
 16        -2.8938150533e-01
 17        -2.0352491929e-01
 18        -5.4489715816e-03
 19         7.0401934826e-02
 20        -8.7524119258e-03
 21        -3.4028768284e-02
 22         2.5880922653e-02
 23        -3.7553305606e-03
 24         1.0015556500e-02
 25         1.3941214800e-03
 26         1.9070886795e-03
 27        -2.2624339715e-03
 28        -9.8551401597e-03
 29         1.7379127388e-02
 30        -2.5267915462e-01
 31        -1.3698915001e-01
 32        -5.9301618490e-02
 33        -5.6267198224e-02
 34         1.5522274846e-02
 35        -1.8479116860e-03
 36        -2.2333229090e-02
 37         3.9571848338e-03
 38         6.8154352469e-03
 39         1.6529415014e-03
 40         2.1497244534e-03
 41         8.7286677059e-03
 42        -8.5954235652e-03
 43         2.6186227334e-03
 44        -6.3819207105e-02
 45        -5.1764259247e-02
 46         7.2621411675e-02
 47        -8.1186673450e-02
 48         9.7107031789e-04
 49         2.3682523495e-02
 50        -2.3306412075e-02
 51        -1.2793521908e-03
 52         2.7189021254e-03
 53         4.3063861911e-04
 54        -3.5232547757e-04
 55         1.3415203341e-02
 56         3.1101381418e-03
 57        -3.6893837346e-04
 58         7.7658484468e-02
 59         7.4801029941e-02
 60        -1.2824917612e-02
 61        -1.6664989615e-02
 62         1.1701228585e-04
 63         9.6093558841e-04
 64        -7.2944768317e-03
 65         6.0582018669e-04
 66         1.5873062791e-04
 67         1.0311675431e-05
 68         2.8603477882e-05
 69         1.7697332917e-03
 70         1.5800781228e-03
 71        -6.9963294168e-02
 72        -2.2798096272e-03
 73         4.7404131532e-03
 74        -8.0722816421e-03
 75        -5.2698923618e-03
 76        -5.9373194831e-02
 77        -3.0809932087e-04
 78         4.8985406255e-03
 79         8.2064479483e-03
 80        -3.4337088545e-03
 81        -6.9186603968e-02
 82        -3.5324324666e-03
 83         4.3036608335e-03
 84        -9.6282970009e-05
 85         9.3286361710e-03
 86        -1.8167627150e-02
 87        -9.1192640566e-05
 88         1.1060884332e-04
 89        -3.4500518494e-03
 90        -1.2560265746e-04
 91        -8.2028101149e-02
 92        -2.0743619025e-03
 93        -1.4005366409e-02
 94        -1.9870296931e-03
 95         1.1744210741e-03
 96        -9.9544717254e-02
 97        -1.4114846522e-02
 98        -7.0827138956e-03
 99         1.3685708215e-02
100        -1.8467300410e-03
 Sym= A
 Ene=        -7.1779977268e-01
 Spin= Alpha
 Occup=         2.0000000000e+00
  1         1.4499817775e-02
  2        -2.8261930708e-01
  3        -1.1947885093e-01
  4         1.9773086269e-02
  5        -6.0200960938e-03
  6        -5.0322466416e-03
  7        -1.6192725188e-02
  8        -8.2939268522e-03
  9         8.9983460240e-04
 10         1.4312846073e-03
 11        -3.7972368097e-05
 12        -1.9009908248e-04
 13        -3.0500820307e-03
 14         2.3902811174e-03
 15         5.3847765013e-03
 16        -5.1824082978e-02
 17        -8.8047410486e-02
 18        -1.3776612590e-01
 19        -8.9058163332e-02
 20         1.0872894274e-02
 21        -8.9166025067e-02
 22        -5.4664284132e-03
 23         1.6721452578e-03
 24         3.7971007703e-03
 25        -3.3060774142e-04
 26        -1.1442553766e-03
 27        -1.7726983506e-02
 28         4.4842477763e-03
 29        -1.3968821059e-02
 30         2.2860395258e-01
 31         1.6700558526e-01
 32        -6.5999737592e-03
 33        -6.2228799972e-02
 34        -5.0695268184e-03
 35         3.4646205618e-02
 36        -3.5259015945e-02
 37        -1.6758399227e-03
 38        -4.3587791761e-03
 39        -7.3996024344e-05
 40         4.9945694859e-04
 41        -9.8026152365e-03
 42        -6.0677727437e-03
 43        -3.3598718724e-03
 44         1.5909657688e-01
 45         7.1155193248e-02
 46        -1.1128227304e-01
 47         7.6062738687e-02
 48         5.8325607425e-04
 49        -3.9616119286e-02
 50         9.5222966564e-03
 51        -1.2657071526e-03