[Molden Format]
[Atoms] (AU)
C    1    6           1.9294203927         2.5867369917        -0.1500231700
C    2    6          -0.9139202872         2.4372648708        -0.1419443262
C    3    6          -2.1130394806         0.1984339157         0.2082593414
C    4    6          -0.8136849427        -2.2922991005         0.0714504643
O    5    8           1.4521979143        -2.7144628397         0.0646069912
H    6    1           2.7356198121         1.0447285424        -1.2915315113
H    7    1           2.7093571732         4.2909101341        -1.0369798275
H    8    1           2.6314914429         2.4226322301         1.8408437055
H    9    1          -2.1720367491        -3.8878250282        -0.2254208991
H   10    1          -4.1757402696         0.1434369328         0.3300157752
H   11    1          -2.0195056152         4.1779768505        -0.4963368553
[GTO]
  1 0
 s    8  1.00
     6665.0000000000         0.0006920000
     1000.0000000000         0.0053290000
      228.0000000000         0.0270770000
       64.7100000000         0.1017180000
       21.0600000000         0.2747400000
        7.4950000000         0.4485640000
        2.7970000000         0.2850740000
        0.5215000000         0.0152040000
 s    8  1.00
     6665.0000000000        -0.0001460000
     1000.0000000000        -0.0011540000
      228.0000000000        -0.0057250000
       64.7100000000        -0.0233120000
       21.0600000000        -0.0639550000
        7.4950000000        -0.1499810000
        2.7970000000        -0.1272620000
        0.5215000000         0.5445290000
 s    1  1.00
        0.1596000000         1.0000000000
 p    3  1.00
        9.4390000000         0.0381090000
        2.0020000000         0.2094800000
        0.5456000000         0.5085570000
 p    1  1.00
        0.1517000000         1.0000000000
 d    1  1.00
        0.5500000000         1.0000000000

  2 0
 s    8  1.00
     6665.0000000000         0.0006920000
     1000.0000000000         0.0053290000
      228.0000000000         0.0270770000
       64.7100000000         0.1017180000
       21.0600000000         0.2747400000
        7.4950000000         0.4485640000
        2.7970000000         0.2850740000
        0.5215000000         0.0152040000
 s    8  1.00
     6665.0000000000        -0.0001460000
     1000.0000000000        -0.0011540000
      228.0000000000        -0.0057250000
       64.7100000000        -0.0233120000
       21.0600000000        -0.0639550000
        7.4950000000        -0.1499810000
        2.7970000000        -0.1272620000
        0.5215000000         0.5445290000
 s    1  1.00
        0.1596000000         1.0000000000
 p    3  1.00
        9.4390000000         0.0381090000
        2.0020000000         0.2094800000
        0.5456000000         0.5085570000
 p    1  1.00
        0.1517000000         1.0000000000
 d    1  1.00
        0.5500000000         1.0000000000

  3 0
 s    8  1.00
     6665.0000000000         0.0006920000
     1000.0000000000         0.0053290000
      228.0000000000         0.0270770000
       64.7100000000         0.1017180000
       21.0600000000         0.2747400000
        7.4950000000         0.4485640000
        2.7970000000         0.2850740000
        0.5215000000         0.0152040000
 s    8  1.00
     6665.0000000000        -0.0001460000
     1000.0000000000        -0.0011540000
      228.0000000000        -0.0057250000
       64.7100000000        -0.0233120000
       21.0600000000        -0.0639550000
        7.4950000000        -0.1499810000
        2.7970000000        -0.1272620000
        0.5215000000         0.5445290000
 s    1  1.00
        0.1596000000         1.0000000000
 p    3  1.00
        9.4390000000         0.0381090000
        2.0020000000         0.2094800000
        0.5456000000         0.5085570000
 p    1  1.00
        0.1517000000         1.0000000000
 d    1  1.00
        0.5500000000         1.0000000000

  4 0
 s    8  1.00
     6665.0000000000         0.0006920000
     1000.0000000000         0.0053290000
      228.0000000000         0.0270770000
       64.7100000000         0.1017180000
       21.0600000000         0.2747400000
        7.4950000000         0.4485640000
        2.7970000000         0.2850740000
        0.5215000000         0.0152040000
 s    8  1.00
     6665.0000000000        -0.0001460000
     1000.0000000000        -0.0011540000
      228.0000000000        -0.0057250000
       64.7100000000        -0.0233120000
       21.0600000000        -0.0639550000
        7.4950000000        -0.1499810000
        2.7970000000        -0.1272620000
        0.5215000000         0.5445290000
 s    1  1.00
        0.1596000000         1.0000000000
 p    3  1.00
        9.4390000000         0.0381090000
        2.0020000000         0.2094800000
        0.5456000000         0.5085570000
 p    1  1.00
        0.1517000000         1.0000000000
 d    1  1.00
        0.5500000000         1.0000000000

  5 0
 s    8  1.00
    11720.0000000000         0.0007100000
     1759.0000000000         0.0054700000
      400.8000000000         0.0278370000
      113.7000000000         0.1048000000
       37.0300000000         0.2830620000
       13.2700000000         0.4487190000
        5.0250000000         0.2709520000
        1.0130000000         0.0154580000
 s    8  1.00
    11720.0000000000        -0.0001600000
     1759.0000000000        -0.0012630000
      400.8000000000        -0.0062670000
      113.7000000000        -0.0257160000
       37.0300000000        -0.0709240000
       13.2700000000        -0.1654110000
        5.0250000000        -0.1169550000
        1.0130000000         0.5573680000
 s    1  1.00
        0.3023000000         1.0000000000
 p    3  1.00
       17.7000000000         0.0430180000
        3.8540000000         0.2289130000
        1.0460000000         0.5087280000
 p    1  1.00
        0.2753000000         1.0000000000
 d    1  1.00
        1.1850000000         1.0000000000

  6 0
 s    3  1.00
       13.0100000000         0.0196850000
        1.9620000000         0.1379770000
        0.4446000000         0.4781480000
 s    1  1.00
        0.1220000000         1.0000000000
 p    1  1.00
        0.7270000000         1.0000000000

  7 0
 s    3  1.00
       13.0100000000         0.0196850000
        1.9620000000         0.1379770000
        0.4446000000         0.4781480000
 s    1  1.00
        0.1220000000         1.0000000000
 p    1  1.00
        0.7270000000         1.0000000000

  8 0
 s    3  1.00
       13.0100000000         0.0196850000
        1.9620000000         0.1379770000
        0.4446000000         0.4781480000
 s    1  1.00
        0.1220000000         1.0000000000
 p    1  1.00
        0.7270000000         1.0000000000

  9 0
 s    3  1.00
       13.0100000000         0.0196850000
        1.9620000000         0.1379770000
        0.4446000000         0.4781480000
 s    1  1.00
        0.1220000000         1.0000000000
 p    1  1.00
        0.7270000000         1.0000000000

  10 0
 s    3  1.00
       13.0100000000         0.0196850000
        1.9620000000         0.1379770000
        0.4446000000         0.4781480000
 s    1  1.00
        0.1220000000         1.0000000000
 p    1  1.00
        0.7270000000         1.0000000000

  11 0
 s    3  1.00
       13.0100000000         0.0196850000
        1.9620000000         0.1379770000
        0.4446000000         0.4781480000
 s    1  1.00
        0.1220000000         1.0000000000
 p    1  1.00
        0.7270000000         1.0000000000

[5D7F]
[9G]

[MO]
 Sym= A
 Ene=        -1.9136551174e+01
 Spin= Alpha
 Occup=         2.0000000000e+00
  1        -7.8072271891e-05
  2        -1.6140511091e-04
  3         4.1014858204e-05
  4         6.1201087225e-05
  5         5.4966001376e-05
  6         1.2338706517e-05
  7        -1.0768707335e-05
  8        -1.6719161721e-04
  9         1.4183428683e-04
 10         6.8689642150e-05
 11         4.3027608173e-05
 12         3.6092241150e-05
 13         6.0687478708e-05
 14        -9.0031248700e-05
 15        -1.9539527450e-04
 16        -3.4723894343e-04
 17         5.1148657585e-03
 18        -1.9150056770e-05
 19        -1.8025853069e-05
 20        -6.5602650077e-05
 21        -7.6120448917e-04
 22        -2.1067772741e-03
 23         5.3448453691e-04
 24        -2.9584054439e-05
 25         4.7887326306e-05
 26        -2.7800661062e-05
 27        -5.9075374039e-05
 28        -6.9904453326e-05
 29         2.1250716895e-04
 30         3.3395712855e-04
 31        -3.3923440775e-03
 32         6.3013664846e-05
 33         2.3905110567e-04
 34        -8.4640528548e-06
 35        -4.3047414286e-03
 36        -3.5596919855e-03
 37         3.2925939697e-04
 38         1.3283059000e-04
 39         6.5451675487e-05
 40         8.8720643228e-05
 41        -4.4177121456e-04
 42         4.7188557118e-04
 43         4.7006873699e-04
 44         6.1896904205e-04
 45         5.1832594362e-03
 46        -1.0025248104e-04
 47        -1.8088015387e-04
 48        -3.9697319858e-05
 49         6.6114733205e-03
 50         3.2595619658e-04
 51        -6.5184707014e-06
 52         2.1910525316e-05
 53         4.0723759340e-05
 54         1.0055796041e-04
 55        -1.1298262744e-03
 56         5.2074331825e-04
 57         1.0041713507e+00
 58         9.4743227962e-03
 59        -1.5097572869e-02
 60        -1.8447472210e-03
 61         3.7044983793e-04
 62        -5.1519236880e-06
 63         3.5129488689e-03
 64        -8.4492550947e-04
 65        -3.7925547404e-06
 66        -1.8755596657e-05
 67        -1.8107420498e-06
 68        -5.2772685806e-06
 69         6.6953185206e-05
 70         5.4924303204e-06
 71        -1.1577295774e-04
 72        -1.6980497549e-04
 73         4.7327235605e-05
 74        -2.2365523447e-06
 75         1.9522357460e-05
 76         1.0907010477e-04
 77         3.4407103085e-04
 78        -6.9639740923e-05
 79        -5.6180763005e-05
 80         4.6510819528e-05
 81        -9.8460094929e-05
 82        -2.3836390819e-04
 83         6.1993393120e-05
 84         6.3305329871e-05
 85         6.0083897866e-05
 86        -1.4617825087e-04
 87         8.2856622439e-04
 88        -7.5712975855e-04
 89         1.2267161405e-04
 90         1.6572093824e-05
 91        -2.7496947898e-04
 92        -1.3171427005e-03
 93         1.8775190259e-04
 94         2.5621243338e-04
 95        -7.3222629687e-06
 96        -1.7540649433e-04
 97         2.5632788390e-04
 98         3.3092290608e-05
 99         8.6389027514e-05
100        -3.3012824743e-05
 Sym= A
 Ene=        -1.0275129734e+01
 Spin= Alpha
 Occup=         2.0000000000e+00
  1        -3.8054195611e-04
  2        -5.1073483556e-04
  3         9.7037606650e-04
  4         2.7129212821e-04
  5         7.5181617795e-05
  6        -1.5846304594e-06
  7        -7.1892328431e-04
  8        -5.5080158237e-05
  9        -1.8468974772e-06
 10        -3.7078246846e-05
 11        -8.0416914061e-05
 12         4.5023209691e-06
 13        -1.1120677144e-04
 14         6.5225789471e-06
 15        -4.1549308994e-04
 16        -5.9313757604e-04
 17         5.8161321206e-03
 18        -2.6902827670e-04
 19        -2.7277211940e-05
 20         5.7587401200e-05
 21        -2.0036537879e-03
 22        -3.4785319192e-03
 23         6.4613558594e-04
 24        -3.5206788099e-04
 25        -2.1098818624e-04
 26        -9.3099943476e-05
 27         2.7950665977e-04
 28         3.7393065111e-04
 29         1.4752830408e-03
 30        -2.3099333325e-04
 31        -1.2529498445e-03
 32        -3.3473523881e-04
 33         7.1282509508e-04
 34         6.0687396693e-05
 35        -2.2020318112e-03
 36        -5.8061228048e-03
 37         3.7862039778e-04
 38         9.9255032293e-04
 39         1.6030758890e-05
 40        -4.2707620120e-05
 41         1.1184537386e-03
 42         8.9565000802e-04
 43         1.0059134974e+00
 44         1.5209245729e-02
 45        -1.0775562017e-02
 46         7.4424715579e-04
 47        -5.1060278920e-04
 48        -1.6351741534e-04
 49         5.4144001661e-03
 50        -2.2005787452e-03
 51        -6.9305910420e-05
 52        -1.5927095293e-03
 53         1.7069709130e-04
 54         2.4801446055e-04
 55         9.3652399349e-04
 56        -4.0382509957e-05
 57         3.5897637489e-04
 58         8.9715378201e-04
 59        -5.9539072367e-03
 60         7.5572480329e-04
 61        -2.1730755088e-04
 62        -1.4392997421e-05
 63         3.3947565962e-03
 64        -2.3531639966e-04
 65        -9.3557719619e-06
 66         5.6337078735e-04
 67         1.8293435200e-05
 68        -3.2236455173e-05
 69        -7.2320575311e-04
 70         2.6612496292e-04
 71        -1.2328466326e-04
 72        -6.6843706248e-05
 73         2.5886283057e-05
 74         7.1059905936e-06
 75        -4.6927382037e-06
 76        -5.7512757060e-05
 77         3.8583880568e-04
 78        -4.1732226915e-05
 79        -1.4302374120e-05
 80         8.5398927483e-06
 81        -6.6827666404e-05
 82         3.0624116520e-05
 83         1.0519756423e-04
 84         5.2969852380e-05
 85        -5.4983805855e-05
 86        -1.6329374192e-03
 87         2.4289948015e-03
 88        -1.4093675531e-03
 89        -1.4231387885e-03
 90        -2.7544678814e-04
 91        -5.6577153142e-04
 92        -4.6666334375e-04
 93         8.1380748540e-06
 94         2.9753166428e-04
 95        -2.8062625657e-05
 96         1.2151113338e-05
 97         5.6219792870e-04
 98         2.2817280360e-04
 99         8.1871664855e-05
100        -3.0380333970e-05
 Sym= A
 Ene=        -1.0226005959e+01
 Spin= Alpha
 Occup=         2.0000000000e+00
  1         2.7378503568e-03
  2        -3.3433160870e-04
  3         4.5055211811e-03
  4         6.2731957380e-04
  5         1.5636492891e-05
  6         5.6990965994e-05
  7        -2.5901964763e-03
  8        -6.6460007943e-04
  9        -3.4463825580e-04
 10         8.1502616633e-04
 11         3.0389162027e-05
 12         4.8465002405e-05
 13        -9.1873327171e-04
 14        -2.2065996726e-05
 15         1.0063010694e+00
 16         1.6038092949e-02
 17        -2.0412886713e-02
 18        -4.6011882195e-04
 19         1.4732970511e-04
 20        -6.7204283653e-05
 21        -2.4438984275e-03
 22         4.0961262884e-03
 23        -6.0999975103e-04
 24        -9.4752001469e-04
 25         1.8346191620e-04
 26        -4.5793992476e-04
 27        -6.8235435525e-04
 28        -4.9662109720e-04
 29         1.2210266178e-02
 30        -1.1960129574e-03
 31         5.0647546208e-03
 32        -6.8458521589e-04
 33        -1.0623931843e-03
 34         1.6516602677e-04
 35         2.7036613980e-03
 36         2.7693231983e-03
 37        -3.0596969857e-04
 38         8.4960553245e-04
 39         1.2994008882e-04
 40         3.1980560806e-04
 41         4.7786058354e-04
 42        -9.8712709124e-04
 43        -2.5820822369e-04
 44        -5.5190519377e-04
 45         1.0509291846e-03
 46         8.7946953904e-06
 47        -2.2358046730e-04
 48         3.8980975424e-05
 49        -6.0054257562e-04
 50         9.5141108360e-04
 51        -7.8355460672e-05
 52        -2.9571904775e-04
 53        -1.1210202400e-04
 54        -1.4180065230e-05
 55         1.6022986690e-04
 56         4.3984358923e-05
 57        -3.2334921927e-05
 58        -6.6824269551e-05
 59        -2.2919544082e-05
 60         1.1536281951e-04
 61         2.5963110985e-05
 62         1.0011771037e-05
 63        -1.5505912654e-04
 64        -3.8257094531e-04
 65         5.0330716906e-05
 66         1.6448897538e-05
 67        -2.5813729338e-05
 68         4.2888079988e-06
 69         1.3857086185e-05
 70         3.4850051862e-05
 71        -4.7135951606e-04
 72         5.7610295048e-04
 73        -1.0072640995e-04
 74        -2.7561585136e-05
 75         8.0675764233e-05
 76        -2.7846403825e-04
 77         1.5928981061e-04
 78         1.6965190432e-04
 79         1.7102043061e-05
 80         1.0166621166e-04
 81        -4.8985091372e-04
 82         1.1275918368e-03
 83        -1.4888528957e-04
 84        -2.9860764249e-07
 85         3.5136415008e-05
 86        -1.2164768348e-04
 87         2.6188676225e-04
 88         3.9902220239e-05
 89        -8.0491699088e-05
 90        -1.8945596239e-05
 91         1.6586876275e-04
 92         9.4608737760e-04
 93         1.6797537036e-04
 94        -2.7424349538e-04
 95        -1.3934017978e-06
 96        -2.4420618489e-03
 97         9.8615723913e-04
 98        -1.2324665776e-03
 99         1.7888954911e-03
100        -3.8307537065e-04
 Sym= A
 Ene=        -1.0200100446e+01
 Spin= Alpha
 Occup=         2.0000000000e+00
  1         1.0721275570e-03
  2         5.1713690440e-04
  3        -3.0617393536e-04
  4        -1.2753856011e-04
  5        -1.4309823291e-04
  6         9.9347451669e-05
  7         9.9765265007e-04
  8         1.8156319650e-04
  9        -4.3195197915e-04
 10         2.8538023025e-04
 11        -3.1821165391e-06
 12         9.0162937398e-05
 13        -2.3103824877e-05
 14         4.5143708862e-05
 15         1.3588250185e-02
 16         1.6325833709e-03
 17        -5.8534169341e-03
 18        -5.4670783208e-04
 19        -1.1745573625e-03
 20         1.8772399311e-04
 21         7.1100812519e-04
 22         3.5115041427e-03
 23        -1.3858247897e-04
 24        -8.8681915084e-04
 25        -2.0249190147e-04
 26        -3.8498036548e-04
 27        -6.5591670282e-04
 28         8.5364714366e-04
 29        -1.0064608664e+00
 30        -1.6462217293e-02
 31         2.0850648267e-02
 32         3.7113900980e-04
 33        -2.5311740311e-04
 34         1.9888360921e-04
 35         5.0796251163e-03
 36         2.6095047943e-04
 37        -1.0872632056e-03
 38         1.0562714752e-03
 39         1.6543447475e-04
 40         1.1061158378e-04
 41        -4.8324042061e-04
 42        -4.8558917321e-04
 43         1.7543406988e-03
 44         7.2068644345e-04
 45        -5.6145510835e-03
 46        -2.3820469533e-04
 47         6.5057149819e-04
 48         6.4356071049e-05
 49        -1.6340826530e-04
 50        -3.3838930324e-03
 51         4.2287541733e-05
 52        -6.7089704255e-04
 53        -1.9358425529e-04
 54         1.0842030971e-04
 55        -5.2542567032e-04
 56        -1.2305473104e-03
 57        -4.7017827351e-05
 58        -8.2874198715e-05
 59         6.9595705519e-04
 60        -5.3845517974e-06
 61         5.6912305092e-05
 62         4.0918546584e-05
 63         1.3353687994e-04
 64         6.9496738302e-04
 65        -4.6305394037e-05
 66         1.2158836206e-04
 67        -3.7759832732e-05
 68        -5.6052104776e-06
 69        -9.7025771299e-05
 70        -2.3305969331e-04
 71         6.3117643495e-05
 72        -3.5468447313e-04
 73        -2.1406265123e-05
 74        -1.2655893175e-04
 75         3.0774392623e-05
 76        -5.1667638477e-05
 77        -4.2956604796e-04
 78        -4.9534939399e-05
 79         4.7014471471e-05
 80         3.9815379997e-05
 81         1.2887333858e-04
 82        -1.7944912256e-04
 83        -4.6048946389e-05
 84        -7.6065305179e-05
 85         1.3123877878e-04
 86         3.4431796435e-04
 87        -9.2449489838e-04
 88        -4.7198029032e-05
 89         1.9999287648e-04
 90        -2.8240328174e-05
 91         2.4853208419e-03
 92        -8.9506749778e-04
 93         2.1838763931e-03
 94        -6.0183415933e-05
 95        -4.2065372888e-05
 96        -1.1272040284e-04
 97        -7.6090246764e-04
 98        -3.0983332344e-04
 99         2.4850783016e-05
100        -7.1477064109e-05
 Sym= A
 Ene=        -1.0189970729e+01
 Spin= Alpha
 Occup=         2.0000000000e+00
  1         1.0069222259e+00
  2         1.7286768165e-02
  3        -1.8702359981e-02
  4         4.5516728888e-04
  5         4.2478632664e-05
  6        -8.4098665490e-05
  7         2.7318727070e-03
  8         3.3558604077e-04
  9        -1.5850395231e-04
 10         4.3521283080e-04
 11        -1.9528797998e-04
 12        -1.1479478732e-04
 13        -4.5284648755e-04
 14         1.7102550342e-04
 15        -2.8519807164e-03
 16        -1.7300030353e-04
 17         1.2390473946e-03
 18        -4.5398197437e-04
 19         4.0942365013e-05
 20        -2.0181964247e-05
 21         3.7094037145e-03
 22         2.5656824159e-03
 23        -4.2680523850e-04
 24         6.0998368658e-04
 25         6.5896109323e-06
 26        -3.7166010655e-05
 27        -1.2865288034e-03
 28        -2.7901597852e-04
 29         3.2676255403e-04
 30        -7.5810569681e-04
 31         3.8539988938e-03
 32        -2.7115977375e-04
 33        -1.9383690336e-06
 34        -4.8806463653e-06
 35         1.4080620176e-03
 36         2.5495684163e-03
 37        -3.8386965048e-04
 38        -3.7546783433e-04
 39         2.6533554804e-05
 40        -1.1839872152e-04
 41        -2.8390972038e-04
 42        -1.8886204641e-04
 43        -1.3535175169e-04
 44        -5.1440205280e-04
 45         3.1608941223e-04
 46        -8.4333648513e-05
 47        -2.7137282968e-04
 48        -4.4076259338e-05
 49        -1.0953589917e-04
 50         5.2018207314e-04
 51         1.5016520761e-04
 52        -6.9919405388e-05
 53        -3.2540230257e-05
 54        -3.9039459070e-05
 55         3.9356024223e-05
 56         2.8931185955e-05
 57        -1.0678255611e-04
 58        -2.0849928512e-04
 59         3.0517352785e-04
 60         3.2949803433e-05
 61        -1.1955686611e-04
 62        -2.3993281308e-05
 63        -2.1467234074e-04
 64         2.6684400373e-04
 65         6.9815051351e-05
 66        -5.6607854448e-05
 67        -1.0612258062e-06
 68         8.4927155475e-06
 69        -4.5415682119e-06
 70        -2.9572099796e-06
 71        -1.0661707872e-03
 72         2.0748324380e-03
 73         5.4904253349e-04
 74        -1.4552524080e-03
 75        -9.7539769849e-04
 76        -1.4722818384e-03
 77         1.7715176624e-03
 78         6.3386745976e-04
 79         1.7368545631e-03
 80        -8.4056544467e-04
 81        -1.0533943663e-03
 82         2.2148764448e-03
 83         4.9266981777e-04
 84        -2.0489792766e-04
 85         1.7870231367e-03
 86         4.0559105608e-05
 87         4.3619798309e-04
 88         1.3021734884e-05
 89         6.3896863979e-05
 90        -1.5514494932e-05
 91        -1.3896371649e-05
 92         5.7246575787e-04
 93         2.4266993980e-05
 94        -1.8439118488e-04
 95         3.1216027999e-05
 96        -4.3261214783e-04
 97        -5.1797867705e-05
 98        -3.9779601138e-04
 99        -1.6613270102e-04
100         2.4201678271e-05
 Sym= A
 Ene=        -1.0401877502e+00
 Spin= Alpha
 Occup=         2.0000000000e+00
  1        -4.2221036259e-04
  2         8.0949614594e-03
  3         4.7638639156e-03
  4        -3.2299515723e-03
  5        -3.9122483444e-03
  6        -2.1304079300e-04
  7        -2.2309847581e-03
  8        -1.0890727082e-03
  9         8.3133767394e-04
 10        -7.0352566992e-04
 11        -8.6692501081e-05
 12        -1.4700096500e-04
 13         4.5364191656e-05
 14         7.7542732507e-04
 15         5.8242402631e-04
 16         1.5900888492e-02
 17        -1.1846307729e-02
 18         6.0036110045e-04
 19        -1.0025890007e-02
 20         1.1346542680e-03
 21        -1.7106765096e-03
 22         9.5729787482e-03
 23        -1.4983813423e-03
 24        -4.3166958314e-04
 25        -2.2640481828e-04
 26        -4.6523746394e-04
 27        -1.3271719113e-03
 28         7.1734694355e-04
 29        -3.6265418165e-03
 30         3.3552012798e-02
 31         3.0019583970e-02
 32         1.9915460871e-02
 33        -1.7887850091e-02
 34        -1.6174741750e-03
 35         1.9329040288e-02
 36         2.9111408613e-03
 37        -2.2587555851e-03
 38        -3.6350030433e-03
 39        -6.8817272888e-04
 40         1.1844700045e-04
 41         3.7787864981e-04
 42        -8.8996542217e-03
 43        -1.4571083081e-02
 44         2.2392508478e-01
 45         9.5377244939e-02
 46         1.8484369631e-01
 47        -2.6867430620e-02
 48        -5.6938283876e-04
 49         1.2196465720e-02
 50        -1.9310371829e-03
 51         7.7773749631e-04
 52        -1.4020049918e-02
 53        -1.0469393447e-03
 54        -1.4923106263e-03
 55         3.1196463737e-02
 56        -1.4142767821e-02
 57        -9.1420590524e-03
 58         4.0291569933e-01
 59         3.6107235906e-01
 60        -1.5523658234e-01
 61         3.2026358407e-02
 62        -1.0746334313e-04
 63        -3.1698584529e-02
 64         7.3846637167e-03
 65        -7.4735069153e-04
 66        -5.4065643438e-03
 67        -2.6291188009e-04
 68        -7.5386612405e-04
 69         1.2018271564e-02
 70        -5.1983299011e-03
 71         7.3599750415e-03
 72         3.9753679138e-03
 73        -6.8645333758e-04
 74        -4.3983679327e-04
 75         7.1929048773e-04
 76         1.1207159239e-03
 77        -7.2801331501e-04
 78         9.8190321901e-06
 79        -3.7821508129e-05
 80        -8.4947494046e-05
 81         2.6237225755e-03
 82         6.2048999423e-04
 83        -3.1598913427e-04
 84        -3.5265735937e-04
 85        -5.3732488582e-04
 86         3.9918122258e-02
 87        -3.2208474938e-03
 88         1.0092967200e-02
 89         5.9072625956e-03
 90         1.1558905324e-03
 91         6.6474467080e-03
 92         6.0762558614e-03
 93         8.4088541477e-04
 94        -1.9575482359e-03
 95        -7.1830620997e-05
 96         1.6162604216e-03
 97        -3.1461423800e-03
 98        -1.7355736874e-04
 99        -7.8353460990e-04
100         1.4737902055e-04
 Sym= A
 Ene=        -8.0940340046e-01
 Spin= Alpha
 Occup=         2.0000000000e+00
  1         1.0877827234e-02
  2        -1.7728627802e-01
  3        -7.7582274863e-02
  4         6.6626642638e-02
  5         1.2093393675e-02
  6        -6.8806146672e-04
  7         3.9586193855e-03
  8        -7.0083102156e-03
  9         1.0396449533e-03
 10         6.0904072948e-03
 11         1.3108086377e-04
 12        -1.1051092022e-04
 13        -9.8929902565e-03
 14        -2.5955128316e-03
 15         1.9397396420e-02
 16        -2.8800853966e-01
 17        -2.0469424252e-01
 18        -5.0705935234e-03
 19         7.5552376311e-02
 20        -1.0082224840e-02
 21        -2.7228139078e-02
 22         2.6168556810e-02
 23        -4.3317012450e-03
 24         9.9615010130e-03
 25         1.3815198931e-03
 26         2.0493078292e-03
 27        -1.7765423486e-03
 28        -9.1777893510e-03
 29         1.7039083431e-02
 30        -2.5786456498e-01
 31        -1.4034305967e-01
 32        -5.8049109609e-02
 33        -5.8036487608e-02
 34         1.7533641814e-02
 35        -4.1276441058e-03
 36        -1.7440634998e-02
 37         4.1129050029e-03
 38         6.8954226436e-03
 39         1.7796832135e-03
 40         2.3034440473e-03
 41         9.0498680473e-03
 42        -8.1171051222e-03
 43         2.6224317460e-03
 44        -6.6848238837e-02
 45        -5.0438959605e-02
 46         7.3184515965e-02
 47        -7.9934075112e-02
 48        -6.6058054110e-04
 49         2.2983009953e-02
 50        -2.2185136315e-02
 51        -1.6465221534e-03
 52         2.7926488281e-03
 53         2.4394946863e-04
 54        -4.4823722534e-04
 55         1.2917585447e-02
 56         3.6175502313e-03
 57        -3.0532840073e-04
 58         7.5596863851e-02
 59         7.2928582386e-02
 60        -1.1664620508e-02
 61        -1.6134376109e-02
 62         3.4226743395e-04
 63         1.3873349404e-03
 64        -7.2093666519e-03
 65         5.5591838065e-04
 66         1.6547212341e-04
 67        -3.5109825735e-05
 68        -3.6686093104e-05
 69         1.6878775721e-03
 70         1.5943315447e-03
 71        -6.6516299684e-02
 72        -2.1062950687e-03
 73         4.4691506995e-03
 74        -7.3957783133e-03
 75        -5.1944789704e-03
 76        -5.8616786920e-02
 77        -2.2532868615e-03
 78         4.9370546989e-03
 79         7.5914664367e-03
 80        -3.4204165448e-03
 81        -6.4170495249e-02
 82        -2.2537088034e-03
 83         4.1186427937e-03
 84        -1.1561990252e-04
 85         8.9269351245e-03
 86        -2.0678935784e-02
 87        -9.1297855671e-05
 88        -1.6834374027e-04
 89        -3.7061720818e-03
 90        -2.6842189519e-04
 91        -8.4770425073e-02
 92        -3.4246326397e-03
 93        -1.4228480218e-02
 94        -2.1526408059e-03
 95         1.1782361535e-03
 96        -9.4451921354e-02
 97        -1.2373215969e-02
 98        -6.5846330098e-03
 99         1.3182715542e-02
100        -2.5156517019e-03
 Sym= A
 Ene=        -7.1263188125e-01
 Spin= Alpha
 Occup=         2.0000000000e+00
  1         1.4235397307e-02
  2        -2.8498089976e-01
  3        -1.2953661555e-01
  4         1.6660425067e-02
  5        -1.0321108409e-02
  6         4.9154107753e-03
  7        -1.2483123454e-02
  8        -4.0964271611e-03
  9        -3.6330591043e-03
 10         1.9113761075e-03
 11        -2.7940192635e-04
 12        -9.1440080642e-05
 13        -2.7924968280e-03
 14         2.2555684881e-03
 15         5.5187037098e-03
 16        -5.6551959649e-02
 17        -8.6142104528e-02
 18        -1.3308212602e-01
 19        -8.5688221932e-02
 20         1.0786226385e-02
 21        -8.5445922940e-02
 22        -5.8350968842e-03
 23         2.5928220131e-03
 24         3.7333244121e-03
 25        -2.9591774803e-04
 26        -1.2439821349e-03
 27        -1.7757112998e-02
 28         4.4647888356e-03
 29        -1.3222740731e-02
 30         2.2315431106e-01
 31         1.6728063622e-01
 32        -9.0970964945e-03
 33        -6.3859694023e-02
 34        -6.0409490480e-03
 35         3.4228788138e-02
 36        -3.7336027039e-02
 37        -2.3631079996e-03
 38        -4.2903672103e-03
 39        -1.2602813254e-04
 40         8.0314356397e-04
 41        -9.2693816562e-03
 42        -6.7489064451e-03
 43        -2.9750199543e-03
 44         1.6061762386e-01
 45         7.1980501691e-02
 46        -1.1185952127e-01
 47         7.0181951840e-02
 48         1.8932345536e-03
 49        -3.8531141734e-02
 50         7.9065887238e-03
 51        -7.7564244466e-04