Generated by Psi4
        SP                           RHF                       CC-PVDZ
Number of atoms                            I               11
Charge                                     I                0
Multiplicity                               I                1
Number of electrons                        I               38
Number of alpha electrons                  I               19
Number of beta electrons                   I               19
Number of basis functions                  I              100
Number of independent functions            I              100
Atomic numbers                             I   N=          11
           6           6           6           6           8           1
           1           1           1           1           1
Nuclear charges                            R   N=          11
  6.00000000e+00  6.00000000e+00  6.00000000e+00  6.00000000e+00  8.00000000e+00
  1.00000000e+00  1.00000000e+00  1.00000000e+00  1.00000000e+00  1.00000000e+00
  1.00000000e+00
Current cartesian coordinates              R   N=          33
  1.73323820e+00  2.54462437e+00 -9.95600665e-03 -8.59714692e-01  2.28563005e+00
 -8.41915731e-02 -2.16847931e+00 -2.63897676e-02  4.26962828e-01 -8.38411129e-01
 -2.22711230e+00  7.16870028e-02  1.63349970e+00 -2.26938371e+00 -2.67950658e-01
  2.14072616e+00 -3.24104440e-01 -6.55448751e-01  2.62062800e+00  4.16135089e+00
 -8.98493344e-01  2.77572712e+00  1.78794281e+00  1.62130264e+00 -1.82494760e+00
 -4.02900560e+00 -2.23005828e-01 -4.22692238e+00 -9.24329933e-02  4.52594884e-01
 -2.00840246e+00  3.83206683e+00 -8.60717209e-01
Integer atomic weights                     I   N=          11
          12          12          12          12          16           1
           1           1           1           1           1
Real atomic weights                        R   N=          11
  1.20000000e+01  1.20000000e+01  1.20000000e+01  1.20000000e+01  1.59949146e+01
  1.00782503e+00  1.00782503e+00  1.00782503e+00  1.00782503e+00  1.00782503e+00
  1.00782503e+00
Number of primitive shells                 I              140
Number of contracted shells                I               48
Pure/Cartesian d shells                    I                0
Pure/Cartesian f shells                    I                0
Highest angular momentum                   I                2
Largest degree of contraction              I                8
Shell types                                I   N=          48
           0           0           0           1           1          -2
           0           0           0           1           1          -2
           0           0           0           1           1          -2
           0           0           0           1           1          -2
           0           0           0           1           1          -2
           0           0           1           0           0           1
           0           0           1           0           0           1
           0           0           1           0           0           1
Number of primitives per shell             I   N=          48
           8           8           1           3           1           1
           8           8           1           3           1           1
           8           8           1           3           1           1
           8           8           1           3           1           1
           8           8           1           3           1           1
           3           1           1           3           1           1
           3           1           1           3           1           1
           3           1           1           3           1           1
Shell to atom map                          I   N=          48
           1           1           1           1           1           1
           2           2           2           2           2           2
           3           3           3           3           3           3
           4           4           4           4           4           4
           5           5           5           5           5           5
           6           6           6           7           7           7
           8           8           8           9           9           9
          10          10          10          11          11          11
Primitive exponents                        R   N=         140
  6.66500000e+03  1.00000000e+03  2.28000000e+02  6.47100000e+01  2.10600000e+01
  7.49500000e+00  2.79700000e+00  5.21500000e-01  6.66500000e+03  1.00000000e+03
  2.28000000e+02  6.47100000e+01  2.10600000e+01  7.49500000e+00  2.79700000e+00
  5.21500000e-01  1.59600000e-01  9.43900000e+00  2.00200000e+00  5.45600000e-01
  1.51700000e-01  5.50000000e-01  6.66500000e+03  1.00000000e+03  2.28000000e+02
  6.47100000e+01  2.10600000e+01  7.49500000e+00  2.79700000e+00  5.21500000e-01
  6.66500000e+03  1.00000000e+03  2.28000000e+02  6.47100000e+01  2.10600000e+01
  7.49500000e+00  2.79700000e+00  5.21500000e-01  1.59600000e-01  9.43900000e+00
  2.00200000e+00  5.45600000e-01  1.51700000e-01  5.50000000e-01  6.66500000e+03
  1.00000000e+03  2.28000000e+02  6.47100000e+01  2.10600000e+01  7.49500000e+00
  2.79700000e+00  5.21500000e-01  6.66500000e+03  1.00000000e+03  2.28000000e+02
  6.47100000e+01  2.10600000e+01  7.49500000e+00  2.79700000e+00  5.21500000e-01
  1.59600000e-01  9.43900000e+00  2.00200000e+00  5.45600000e-01  1.51700000e-01
  5.50000000e-01  6.66500000e+03  1.00000000e+03  2.28000000e+02  6.47100000e+01
  2.10600000e+01  7.49500000e+00  2.79700000e+00  5.21500000e-01  6.66500000e+03
  1.00000000e+03  2.28000000e+02  6.47100000e+01  2.10600000e+01  7.49500000e+00
  2.79700000e+00  5.21500000e-01  1.59600000e-01  9.43900000e+00  2.00200000e+00
  5.45600000e-01  1.51700000e-01  5.50000000e-01  1.17200000e+04  1.75900000e+03
  4.00800000e+02  1.13700000e+02  3.70300000e+01  1.32700000e+01  5.02500000e+00
  1.01300000e+00  1.17200000e+04  1.75900000e+03  4.00800000e+02  1.13700000e+02
  3.70300000e+01  1.32700000e+01  5.02500000e+00  1.01300000e+00  3.02300000e-01
  1.77000000e+01  3.85400000e+00  1.04600000e+00  2.75300000e-01  1.18500000e+00
  1.30100000e+01  1.96200000e+00  4.44600000e-01  1.22000000e-01  7.27000000e-01
  1.30100000e+01  1.96200000e+00  4.44600000e-01  1.22000000e-01  7.27000000e-01
  1.30100000e+01  1.96200000e+00  4.44600000e-01  1.22000000e-01  7.27000000e-01
  1.30100000e+01  1.96200000e+00  4.44600000e-01  1.22000000e-01  7.27000000e-01
  1.30100000e+01  1.96200000e+00  4.44600000e-01  1.22000000e-01  7.27000000e-01
  1.30100000e+01  1.96200000e+00  4.44600000e-01  1.22000000e-01  7.27000000e-01
Contraction coefficients                   R   N=         140
  6.91583963e-04  5.32579615e-03  2.70607210e-02  1.01656846e-01  2.74574824e-01
  4.48294319e-01  2.84902611e-01  1.51948592e-02 -2.93269653e-04 -2.31803547e-03
 -1.14997860e-02 -4.68267270e-02 -1.28466169e-01 -3.01266272e-01 -2.55630702e-01
  1.09379336e+00  1.00000000e+00  5.69792516e-02  3.13207212e-01  7.60376742e-01
  1.00000000e+00  1.00000000e+00  6.91583963e-04  5.32579615e-03  2.70607210e-02
  1.01656846e-01  2.74574824e-01  4.48294319e-01  2.84902611e-01  1.51948592e-02
 -2.93269653e-04 -2.31803547e-03 -1.14997860e-02 -4.68267270e-02 -1.28466169e-01
 -3.01266272e-01 -2.55630702e-01  1.09379336e+00  1.00000000e+00  5.69792516e-02
  3.13207212e-01  7.60376742e-01  1.00000000e+00  1.00000000e+00  6.91583963e-04
  5.32579615e-03  2.70607210e-02  1.01656846e-01  2.74574824e-01  4.48294319e-01
  2.84902611e-01  1.51948592e-02 -2.93269653e-04 -2.31803547e-03 -1.14997860e-02
 -4.68267270e-02 -1.28466169e-01 -3.01266272e-01 -2.55630702e-01  1.09379336e+00
  1.00000000e+00  5.69792516e-02  3.13207212e-01  7.60376742e-01  1.00000000e+00
  1.00000000e+00  6.91583963e-04  5.32579615e-03  2.70607210e-02  1.01656846e-01
  2.74574824e-01  4.48294319e-01  2.84902611e-01  1.51948592e-02 -2.93269653e-04
 -2.31803547e-03 -1.14997860e-02 -4.68267270e-02 -1.28466169e-01 -3.01266272e-01
 -2.55630702e-01  1.09379336e+00  1.00000000e+00  5.69792516e-02  3.13207212e-01
  7.60376742e-01  1.00000000e+00  1.00000000e+00  7.09645947e-04  5.46727229e-03
  2.78231186e-02  1.04747740e-01  2.82920846e-01  4.48495239e-01  2.70816885e-01
  1.54502916e-02 -3.14443412e-04 -2.48213768e-03 -1.23163554e-02 -5.05389173e-02
 -1.39384903e-01 -3.25077495e-01 -2.29848308e-01  1.09537935e+00  1.00000000e+00
  6.26791663e-02  3.33536566e-01  7.41239642e-01  1.00000000e+00  1.00000000e+00
  3.34987264e-02  2.34800801e-01  8.13682958e-01  1.00000000e+00  1.00000000e+00
  3.34987264e-02  2.34800801e-01  8.13682958e-01  1.00000000e+00  1.00000000e+00
  3.34987264e-02  2.34800801e-01  8.13682958e-01  1.00000000e+00  1.00000000e+00
  3.34987264e-02  2.34800801e-01  8.13682958e-01  1.00000000e+00  1.00000000e+00
  3.34987264e-02  2.34800801e-01  8.13682958e-01  1.00000000e+00  1.00000000e+00
  3.34987264e-02  2.34800801e-01  8.13682958e-01  1.00000000e+00  1.00000000e+00
Coordinates of each shell                  R   N=         144
  1.73323820e+00  2.54462437e+00 -9.95600665e-03  1.73323820e+00  2.54462437e+00
 -9.95600665e-03  1.73323820e+00  2.54462437e+00 -9.95600665e-03  1.73323820e+00
  2.54462437e+00 -9.95600665e-03  1.73323820e+00  2.54462437e+00 -9.95600665e-03
  1.73323820e+00  2.54462437e+00 -9.95600665e-03 -8.59714692e-01  2.28563005e+00
 -8.41915731e-02 -8.59714692e-01  2.28563005e+00 -8.41915731e-02 -8.59714692e-01
  2.28563005e+00 -8.41915731e-02 -8.59714692e-01  2.28563005e+00 -8.41915731e-02
 -8.59714692e-01  2.28563005e+00 -8.41915731e-02 -8.59714692e-01  2.28563005e+00
 -8.41915731e-02 -2.16847931e+00 -2.63897676e-02  4.26962828e-01 -2.16847931e+00
 -2.63897676e-02  4.26962828e-01 -2.16847931e+00 -2.63897676e-02  4.26962828e-01
 -2.16847931e+00 -2.63897676e-02  4.26962828e-01 -2.16847931e+00 -2.63897676e-02
  4.26962828e-01 -2.16847931e+00 -2.63897676e-02  4.26962828e-01 -8.38411129e-01
 -2.22711230e+00  7.16870028e-02 -8.38411129e-01 -2.22711230e+00  7.16870028e-02
 -8.38411129e-01 -2.22711230e+00  7.16870028e-02 -8.38411129e-01 -2.22711230e+00
  7.16870028e-02 -8.38411129e-01 -2.22711230e+00  7.16870028e-02 -8.38411129e-01
 -2.22711230e+00  7.16870028e-02  1.63349970e+00 -2.26938371e+00 -2.67950658e-01
  1.63349970e+00 -2.26938371e+00 -2.67950658e-01  1.63349970e+00 -2.26938371e+00
 -2.67950658e-01  1.63349970e+00 -2.26938371e+00 -2.67950658e-01  1.63349970e+00
 -2.26938371e+00 -2.67950658e-01  1.63349970e+00 -2.26938371e+00 -2.67950658e-01
  2.14072616e+00 -3.24104440e-01 -6.55448751e-01  2.14072616e+00 -3.24104440e-01
 -6.55448751e-01  2.14072616e+00 -3.24104440e-01 -6.55448751e-01  2.62062800e+00
  4.16135089e+00 -8.98493344e-01  2.62062800e+00  4.16135089e+00 -8.98493344e-01
  2.62062800e+00  4.16135089e+00 -8.98493344e-01  2.77572712e+00  1.78794281e+00
  1.62130264e+00  2.77572712e+00  1.78794281e+00  1.62130264e+00  2.77572712e+00
  1.78794281e+00  1.62130264e+00 -1.82494760e+00 -4.02900560e+00 -2.23005828e-01
 -1.82494760e+00 -4.02900560e+00 -2.23005828e-01 -1.82494760e+00 -4.02900560e+00
 -2.23005828e-01 -4.22692238e+00 -9.24329933e-02  4.52594884e-01 -4.22692238e+00
 -9.24329933e-02  4.52594884e-01 -4.22692238e+00 -9.24329933e-02  4.52594884e-01
 -2.00840246e+00  3.83206683e+00 -8.60717209e-01 -2.00840246e+00  3.83206683e+00
 -8.60717209e-01 -2.00840246e+00  3.83206683e+00 -8.60717209e-01
Total Energy                               R     -2.312041714267729e+02
Alpha Orbital Energies                     R   N=         100
 -1.91622932e+01 -1.02591712e+01 -1.02180863e+01 -1.01855608e+01 -1.01811800e+01
 -1.05496302e+00 -8.09642075e-01 -7.31679657e-01 -6.15848976e-01 -5.81227131e-01
 -5.06359080e-01 -4.70452037e-01 -4.43377489e-01 -4.12379965e-01 -3.98712547e-01
 -3.80799729e-01 -3.40756618e-01 -2.93815639e-01 -2.17700530e-01 -4.55413092e-02
  3.86125650e-02  6.67763358e-02  9.53324871e-02  1.11475729e-01  1.31676286e-01
  1.49110511e-01  1.75906165e-01  2.40448655e-01  2.85561604e-01  3.19166446e-01
  3.28985286e-01  4.27376471e-01  4.44482301e-01  4.66971331e-01  4.75555619e-01
  4.90692892e-01  5.19045348e-01  5.27347187e-01  5.42664267e-01  5.67226786e-01
  5.77398169e-01  6.21006844e-01  6.31412217e-01  6.46678966e-01  6.78785091e-01
  7.21412372e-01  7.32082789e-01  7.77523571e-01  7.99122065e-01  8.78105355e-01
  8.99015337e-01  9.44902904e-01  9.86639331e-01  1.01898959e+00  1.06994838e+00
  1.09878647e+00  1.11119629e+00  1.12025766e+00  1.17649242e+00  1.24651457e+00
  1.28623273e+00  1.31904571e+00  1.37524686e+00  1.47499348e+00  1.49116207e+00
  1.51561547e+00  1.53050183e+00  1.54137745e+00  1.57311344e+00  1.59840453e+00
  1.63204085e+00  1.65685097e+00  1.68121291e+00  1.71893765e+00  1.72935627e+00
  1.76567210e+00  1.79956726e+00  1.82312957e+00  1.87120720e+00  1.93862943e+00
  1.96825112e+00  1.99499669e+00  2.02079060e+00  2.04062417e+00  2.11224971e+00
  2.17620364e+00  2.23836506e+00  2.35957507e+00  2.37924907e+00  2.40732654e+00
  2.47357701e+00  2.52926247e+00  2.67870773e+00  2.71441333e+00  2.87618948e+00
  2.97469497e+00  2.98959504e+00  3.22308842e+00  3.45244421e+00  3.63217363e+00
Alpha MO coefficients                      R   N=       10000
 -7.57386838e-05 -1.03166013e-04  1.07403027e-03 -7.00176512e-05 -9.72158297e-05
  9.98834765e-08  1.11942467e-04 -6.36194965e-04 -3.23076126e-04 -8.93538113e-05
 -9.85557925e-05  1.60921595e-04 -2.12311809e-04  1.02192664e-05  1.29224769e-04
  2.36022114e-04 -3.91058828e-03  8.17403006e-05  2.39933455e-05  6.40316154e-05
  4.68169578e-04  1.96874728e-03 -6.56883234e-04  3.19815040e-05 -6.98119732e-05
  7.52621819e-05  3.41094861e-05 -5.03719393e-06 -1.49473377e-04 -2.06147737e-04
  4.65337999e-03  1.05525413e-04 -2.77351398e-04 -4.76598757e-05  4.32038351e-03
  2.17958598e-03 -6.36973054e-04 -1.13345764e-04 -1.26599905e-04 -7.25489093e-05
  4.11431512e-04 -3.75605545e-04 -2.52367535e-04 -4.19152567e-04 -6.33260310e-03
 -3.13352997e-04  1.34687501e-04  1.31010980e-04 -5.13481638e-03 -2.52985200e-03
  4.46599990e-04  3.07602023e-04 -3.19104416e-05 -2.02763080e-04  8.55133642e-04
 -2.85379880e-04 -1.00412344e+00 -9.40414227e-03  1.47948499e-02  1.32291583e-03
 -8.59853678e-04  2.60654593e-05 -3.23229168e-03  1.36982562e-03  2.45707271e-04
 -8.41594320e-05 -1.07699532e-05  1.85718506e-05  4.06757635e-05 -1.03772952e-04
 -9.61063967e-04 -1.18129604e-03  1.01004459e-04 -4.17298631e-04 -8.52340297e-05
 -1.06246855e-04 -1.78099476e-04  4.52498957e-05  6.05187793e-05 -2.04539407e-06
  7.12092681e-05  1.83672369e-04 -8.40377195e-05  2.83581037e-06 -3.88633067e-05
  3.73638529e-04 -1.00085784e-03  6.66981474e-04  1.77706651e-04 -6.47005615e-05
  1.59321140e-04  1.20959166e-03 -1.95491431e-04 -1.78248281e-04  5.26927314e-05
  5.81488552e-05 -3.45366971e-04 -3.66962359e-05 -5.29549721e-05  3.63344246e-05
 -3.58094202e-04 -4.82326808e-04  1.31654801e-03  1.56222877e-04  1.04851507e-04
  1.36857214e-05 -1.06795784e-03 -4.61143021e-05 -6.81854616e-05 -1.15671117e-04
 -5.28030927e-05 -4.62420573e-05 -1.00397604e-05 -6.40836583e-05 -4.05349039e-04
 -6.23277619e-04  4.18332011e-03 -9.55191143e-05  3.73792582e-06  4.15529472e-06
 -2.08393971e-03 -3.08020575e-03  6.75961272e-04 -3.00649433e-04 -1.43846863e-04
 -8.69287575e-05 -1.83358737e-05  8.05565238e-05  3.62382201e-03 -7.46227963e-04
 -3.72814072e-04 -5.54153135e-04  1.15623535e-03  1.75489866e-04 -1.99486900e-03
 -4.91482715e-03  4.31691379e-04  1.06099434e-03  2.62775790e-04 -1.36516643e-04
  3.65184459e-04  9.83801187e-04  1.00592913e+00  1.53150760e-02 -1.11748268e-02
  6.63015830e-04 -2.80968026e-04 -3.67305678e-04  4.54838210e-03 -1.29139043e-03
 -6.17289655e-04 -1.57846987e-03 -2.33515609e-04  5.19623192e-04 -1.13904830e-05
  3.26145778e-04  6.99447612e-04  1.29043835e-03 -5.06791055e-03  3.86408959e-04
 -1.21304591e-04 -4.89832601e-05  3.23949543e-03 -1.38605173e-04 -3.69791382e-04
  7.43504158e-04  3.05894193e-04  2.59999207e-05 -7.98664095e-04  5.06839935e-06
  5.25614465e-04 -1.61280239e-04 -5.34944822e-04 -3.07004701e-04  7.22479773e-05
 -1.60353609e-05  3.88389147e-04 -1.54240953e-05 -3.28703876e-05  2.16237100e-05
 -9.11129319e-05  2.90120719e-04  6.05387597e-05  7.11190672e-05 -5.18968385e-05
 -2.18681682e-03  2.43052705e-03 -1.38739011e-03 -1.71305606e-03 -2.63524067e-04
 -1.25704928e-04 -3.96936154e-04  2.92562675e-04  2.74724903e-04 -2.45060945e-05
 -1.18540650e-04  3.82854997e-04  1.39838991e-04  1.18724945e-04 -4.98549831e-05
  6.99102227e-03 -1.01442485e-03  5.25873919e-03  1.20039171e-03  6.82280944e-05
  1.25626093e-05 -2.81012918e-03 -1.04084515e-03  2.48192527e-04  9.32147038e-04
  5.18792682e-06  4.76948251e-05 -1.09094130e-03 -2.23087634e-04  1.00645746e+00
  1.63140052e-02 -1.97072458e-02 -1.52485982e-04  9.23664500e-05 -4.18228759e-04
 -2.72752470e-03  3.38762560e-03 -9.34468010e-04 -8.06262145e-04  4.81258860e-04
 -7.39689282e-04  1.06520771e-04 -3.91666736e-04  5.26268490e-03 -5.82075597e-04
  2.30983446e-03 -4.74830530e-04 -7.43033591e-04  1.60604309e-04  1.34835816e-03
  2.50601906e-03  6.47411490e-05  8.15238951e-04  1.58899936e-04  4.92107070e-04
  7.05590786e-04 -9.82211546e-04 -3.94914712e-04 -7.04027696e-04  2.55463790e-03
  1.40064090e-05 -1.98061931e-04  7.11878923e-05 -6.07703071e-04  1.84402581e-03
 -1.01188441e-04 -3.71957296e-04 -2.40338281e-04 -4.75807620e-05  1.41232098e-04
  5.89812389e-05  5.32416506e-05  7.21002938e-05 -8.63140622e-04  1.41812138e-04
 -2.37447312e-05  1.57840737e-05 -4.79449297e-05 -5.69156340e-04  5.86680031e-05
  4.40679744e-05 -1.90610117e-05  2.68494856e-05  3.25095778e-05  2.28033079e-05
  1.74586559e-04  6.47783677e-04 -3.89447034e-04 -1.76561343e-04 -3.28772685e-05
 -3.63177370e-05  6.56355907e-04  1.65670133e-04 -1.54882364e-04  1.50992731e-04
 -4.36526220e-04  5.99803369e-04  1.89945021e-05  6.94829242e-05 -1.30168745e-04
 -9.53700507e-05  4.61401027e-04  9.15823974e-05 -1.18875347e-04 -2.32358619e-05
 -2.17725497e-05  4.70884811e-04  5.80569402e-05 -3.09210870e-04  4.97757334e-06
 -2.41657044e-03  1.10073710e-03 -1.12803810e-03  1.64297356e-03 -8.90039782e-04
  1.62345068e-03  5.53227766e-04 -1.91683614e-03 -7.40272723e-05 -1.64499344e-04
  9.47976345e-05  1.59619826e-03  3.19157946e-04 -5.07417831e-04  2.82865570e-04
 -1.85861384e-04  1.89681396e-04 -7.34061591e-05  2.69611676e-04  5.77230217e-03
  7.96173140e-04 -3.86164098e-03 -3.44591118e-04 -7.71204450e-04  1.71448863e-04
  1.97900285e-03  2.93558570e-03  1.14379091e-05 -8.21586139e-04 -4.30907183e-04
 -5.14545260e-04 -5.98984110e-04  1.01560591e-03 -1.00669730e+00 -1.68426561e-02
  2.15000879e-02  2.19083303e-04  1.11454092e-04  5.16393673e-04  4.79739543e-03
  7.90857902e-05 -1.96632705e-03  1.11786846e-03  8.09011255e-05 -2.30005667e-05
 -7.27686201e-04  5.03634325e-05  4.54328064e-03  1.29783516e-03 -6.55711910e-03
 -6.27835907e-04  9.94137261e-04  1.94094724e-04  5.53004961e-04 -3.55360890e-03
 -8.68889181e-06 -8.00103490e-04 -2.80305553e-04  4.02271973e-04 -6.58494394e-04
 -1.02541279e-03 -3.16203946e-05 -4.21610121e-05  8.89960312e-04 -7.79609235e-05
  1.77374776e-05  3.53776411e-05  1.00933943e-04  7.08518972e-04 -1.25136927e-04
  6.35589849e-05  3.53559598e-06 -3.36720725e-05 -4.83815612e-05 -8.37501449e-05
 -1.27426897e-04 -4.30774909e-04  1.49131619e-04  2.29375129e-04 -3.40969489e-05
 -8.40673534e-05 -5.36695640e-04 -9.72605119e-05  1.00904682e-04  1.30869621e-05
  4.12756337e-04 -2.15363984e-04 -3.95866625e-05 -9.99624730e-05 -5.08925996e-05
 -2.41751313e-06 -8.67866334e-04 -3.15059702e-04  2.71083344e-05 -5.25901156e-05
  2.48323824e-03 -1.08983601e-03  2.23138657e-03  1.08978920e-04  1.77650600e-04
  2.29863550e-04 -4.40773115e-04 -2.67653008e-04 -1.46436945e-04 -9.48658482e-05
  1.00691855e+00  1.73237650e-02 -1.86173596e-02  1.15931527e-04  2.54797166e-04
  4.36261913e-04  2.59282865e-03  2.86018880e-03 -4.44045403e-04 -7.52506376e-05
  3.69704373e-04 -1.37354974e-03  4.58145641e-04  7.01765244e-04 -7.92219138e-03
 -1.03629736e-03  2.62178227e-03 -1.18995198e-03 -5.10152013e-05 -6.57781745e-05
  3.18094004e-03  1.15145283e-03  1.01384112e-04  8.91525047e-04  7.95198207e-06
  1.90712725e-04 -1.40420705e-03 -3.80458907e-04  9.22238138e-04 -5.80298406e-04
  2.76273446e-03 -1.88597012e-04 -4.72037871e-05 -2.67673791e-05  1.70695297e-03
  1.69468583e-03 -4.08969825e-04 -3.96153218e-04  5.36507928e-05 -1.54731338e-04
 -2.97539831e-04 -1.10680729e-04 -6.28700787e-05 -3.35739064e-04 -1.63022824e-03
 -1.46127160e-04 -1.83561761e-04 -6.25356601e-05 -1.29273510e-03 -2.41532827e-04
  2.58332594e-04  3.59478623e-05  5.04739007e-05 -6.03298279e-05 -1.52603693e-04
  1.26817695e-04 -4.43100847e-05 -8.73278309e-05  1.43663297e-04  1.45112007e-04
 -7.50949891e-05 -7.01852923e-05 -1.34742369e-03 -2.56063053e-04  4.51663961e-04
 -5.39491458e-05 -6.37549701e-06  7.76902875e-05  7.93897485e-05 -5.12119186e-05
  9.79166339e-04  3.63499338e-03  1.67988270e-05 -1.37144905e-05 -6.87359071e-06
 -2.41172837e-03  1.14646179e-03  8.82368055e-04  1.80422665e-03 -1.03956168e-03
 -1.29256285e-03  2.10925634e-03  8.00807557e-04 -8.78399529e-04  1.77181192e-03
 -3.61764879e-05  4.54512737e-05  4.25409748e-05  6.06102378e-06 -3.74014874e-05
  7.63147780e-05  5.83608345e-04 -9.78056818e-06 -1.12113282e-04  5.23706345e-05
 -6.17044976e-05  4.17264762e-04 -1.61604821e-04 -2.63562768e-04  3.32337314e-05
  1.41046441e-04  2.29013768e-02 -5.98668174e-03 -4.93128805e-03 -1.33657163e-02
 -2.33141086e-04  5.92549538e-03  8.33567084e-03 -6.53615348e-03 -7.23693476e-04
 -7.45719056e-04  1.20797731e-03 -7.65021697e-04  7.63098541e-05 -1.08430035e-03
  2.32648348e-02  1.10368123e-02  5.43667233e-03 -1.38150631e-02  8.78725729e-04
  7.75112990e-03  5.28670897e-04  1.34332438e-03 -1.91368004e-03 -2.46751704e-04
 -7.65023446e-04 -8.24626565e-04 -6.24103303e-04 -2.95686688e-03  4.29779167e-02
  1.85598221e-02  2.77784635e-02 -1.81944053e-02 -6.92599914e-03  1.39663572e-02
  5.81796519e-03 -3.06447867e-03 -3.15070826e-03 -2.22532582e-03  8.80311956e-04
  2.19600377e-03 -7.87093625e-03 -1.31203951e-02  1.76691782e-01  7.81512792e-02
  1.40242595e-01  1.46996643e-02 -2.06353316e-02  8.27354025e-03  9.00045340e-03
 -5.77394298e-05 -1.27766255e-02 -8.30867491e-03 -2.07772218e-03  2.87865705e-02
  1.93854534e-03 -6.81320087e-03  4.14335785e-01  3.81391450e-01 -1.07744841e-01
  5.80446155e-02  5.35002161e-03 -3.28740307e-02  4.95355986e-03  3.36155637e-03
 -6.52715484e-03 -2.43506456e-03 -1.48649539e-03  6.42647007e-03 -1.25800782e-03
  1.24175293e-01  5.55316721e-03 -1.12914714e-02 -2.14250015e-02  6.66453420e-03
  2.16224056e-03 -6.63296130e-03 -3.32328878e-04 -7.68073495e-04  2.42106983e-04
  1.25659682e-02  6.94117292e-03 -1.69508490e-03 -1.24605131e-03 -1.59368226e-03
  3.47169858e-02  7.68684022e-04  8.28001856e-03  5.57237435e-03  9.70561172e-05
  6.44862067e-03  4.66550669e-03  9.13086185e-04 -1.80471762e-03 -1.56963231e-04
  2.71954687e-03 -4.04604469e-05 -2.01329346e-04 -5.09633965e-04 -6.80884167e-05
  1.36853858e-02 -1.86820802e-01 -9.62408504e-02  8.61570005e-02  1.83397050e-02
 -2.84562316e-03  6.03512951e-03 -1.99456102e-03  6.66298687e-03  6.91680815e-03
  5.53347696e-04 -2.05746363e-03 -8.97696769e-03 -3.73712888e-03  1.93751979e-02
 -2.84870806e-01 -1.91228226e-01 -3.16641970e-02  5.81992479e-02 -8.51858919e-03
 -2.47537330e-02  2.55229066e-02 -9.74590398e-03  1.08527261e-02  1.89452174e-03
  2.12807792e-03 -2.35595213e-03 -7.88759332e-03  1.79627006e-02 -2.38857129e-01
 -1.34574947e-01 -6.25045683e-02 -3.04407786e-02  2.73364898e-02 -1.22812807e-02
 -1.56806762e-02  8.49105793e-03  7.61956012e-03  3.45878994e-03  2.83024939e-03
  7.88013867e-03 -7.00759133e-03  3.79152454e-03 -8.90434132e-02 -5.32018269e-02
  8.44340146e-02 -8.61718468e-02 -1.37094770e-02  2.57478107e-02 -1.68276739e-02
 -5.91159956e-03  2.58314232e-03 -1.48835013e-03 -1.59281592e-03  1.50961735e-02
  4.76329498e-03  5.76316797e-04  1.12202420e-01  1.14099321e-01 -4.32711241e-04
 -1.61867339e-02 -2.73190896e-03  6.68872485e-03 -9.40285046e-03 -1.37794762e-03
  5.82281198e-04  1.02248213e-04 -4.38381725e-04  5.25517413e-04  2.16812211e-03
 -8.61960435e-03  5.27990188e-03  1.97139787e-03 -1.14356354e-02 -1.58596168e-03
 -5.70225344e-02  3.41085766e-05  6.18091593e-03  7.01902920e-03 -3.87491363e-03
 -6.73621290e-02 -2.02987744e-03  6.63151768e-03 -3.01182480e-03  8.00134845e-03
 -2.06316649e-02  4.02485426e-04  1.01334626e-03 -3.92007394e-03 -3.66402950e-04
 -7.64947051e-02 -4.97369148e-03 -1.28487311e-02 -1.69977473e-03  7.28984618e-04
 -9.46521216e-02 -1.28772774e-02 -7.77607909e-03  1.15475320e-02 -5.00244921e-03
  1.47267745e-02 -2.35537622e-01 -1.18701966e-01  4.33870595e-02  7.24825199e-03
 -3.01676123e-03 -4.25794608e-03  7.92569563e-04  5.18627484e-03  4.39009754e-03
  5.07441302e-05 -2.66719567e-03 -2.57591104e-03  2.56051785e-03  7.06099359e-03
 -1.04387561e-01 -9.41094348e-02 -1.23319286e-01 -7.11742523e-02  9.42807064e-03
 -5.92903192e-02 -9.61544966e-03 -3.26187838e-03  2.50343986e-03 -1.02956075e-03
 -1.63158584e-03 -1.66698066e-02  5.27728702e-03 -1.37880559e-02  2.10943962e-01
  1.37021415e-01  1.37070474e-02 -1.02831109e-01 -1.70361965e-02  2.02034973e-02
 -3.07033030e-02 -1.70909690e-03 -3.27485872e-03 -6.10276850e-04  3.59144645e-03
 -7.12683095e-03 -1.17328896e-02 -8.70795719e-03  2.41428612e-01  1.36587719e-01
 -8.55232820e-02  5.27755687e-02  1.19159961e-02 -2.63500286e-02  1.10440680e-02
  2.09995046e-03 -4.73111320e-03 -6.33058187e-04  1.46306859e-03 -4.54573864e-03
 -1.18736403e-02 -1.55815246e-03 -8.66445029e-02 -8.64377558e-02 -9.10014364e-02
 -5.50434165e-02  1.93817755e-02 -4.60983036e-02 -1.50303004e-02  6.78220782e-03
 -1.53743080e-03 -9.13764189e-04  1.30601602e-03  7.29331206e-03 -2.73339575e-03
 -1.15565286e-01 -2.01222770e-02  3.73875795e-03  3.23948065e-03 -5.25498296e-03
 -9.89819911e-02 -7.89806275e-03  6.65065114e-03  1.13279027e-02 -6.36322607e-03
 -1.07463910e-01 -1.54919605e-02  8.38722195e-03 -4.09003745e-03  1.23556067e-02
  1.07072820e-01  9.99221554e-03  4.44056242e-03  1.36244980e-02  2.31926038e-03
  9.67212447e-02  1.45341281e-02  1.34207769e-02 -2.29221826e-03 -4.78497399e-04
 -4.43433483e-02 -1.21725751e-02 -5.61108601e-03  2.48114153e-03 -1.86582256e-03
  1.09651149e-02 -2.14920012e-01 -1.39185055e-01 -4.32665139e-02 -4.19371666e-02
 -1.40313050e-02 -3.14776298e-02  3.41412405e-03 -6.46404102e-03 -2.79850114e-03
 -3.31536653e-04  2.25426254e-04  3.57301867e-03  2.05786169e-03 -3.19894074e-03
  1.32745698e-01  6.69228510e-02 -1.80377535e-01 -7.12567373e-02  1.78606362e-04
 -6.73849881e-02 -3.22033068e-02  8.55373981e-04  1.02754202e-03 -2.90737510e-03
 -1.87701886e-03 -1.04062029e-02  2.82824325e-03 -4.27640161e-03  1.09738187e-01
  7.64625850e-02 -2.04782106e-02  1.84252441e-01 -1.65941579e-02  5.87958134e-03
  5.13910980e-02 -2.83005729e-03 -1.66854998e-04 -8.79810600e-04 -6.48929735e-03
 -1.04819021e-03  9.98304687e-03  3.78247570e-03 -2.29060729e-01 -1.55272117e-01
  3.81430258e-02  9.04460625e-02  5.40072126e-04  1.03246822e-02  1.13814588e-02
 -4.86266896e-03 -3.92421516e-04  1.89388404e-04 -1.77909879e-03 -3.45098561e-03
  3.95787881e-03  1.41022059e-03  1.00583595e-01  1.25195163e-01  1.38768227e-01
  8.30466127e-02 -2.99514230e-02  7.16310732e-02  3.04475671e-02 -1.24391939e-02
  2.71205055e-03  1.22597167e-03 -8.09732467e-04 -7.37778468e-03 -8.94550499e-04
  7.67891216e-02  2.87262463e-02 -3.43078253e-03 -2.00704361e-02  1.10091281e-03
 -1.45256584e-01 -3.01671317e-02  6.25171028e-03  1.23343548e-02 -8.25225287e-03
 -1.23714608e-01 -1.55348940e-02  6.51413592e-03 -7.40960880e-03  1.15351983e-02
 -1.78630684e-01 -3.71272757e-02 -8.23234451e-03 -1.55799457e-02 -3.17837879e-03
  6.99014512e-02  1.69438196e-02  7.37451373e-03  4.24574130e-03 -4.65422853e-04
  9.76671245e-02  1.81921217e-02  2.28368548e-03 -9.65320861e-03  4.03451431e-03
 -3.94631703e-04  6.36325089e-02  3.13977378e-02  1.24948181e-01 -8.00795613e-02
  3.88476235e-02  4.79979290e-02 -2.21647640e-02  5.86423826e-03  4.35214717e-03
 -1.00548365e-03  6.93002001e-04 -1.27500554e-02  6.63245602e-04  4.33720296e-03
 -1.98857711e-01 -1.18391774e-01  4.93704071e-02 -1.16898576e-01  3.97163793e-02
  1.54933461e-02 -3.52956390e-02  1.00925119e-02 -4.80499387e-03  8.46447115e-04
  8.88532439e-05 -1.82840219e-03 -2.01329514e-03 -3.33864121e-03  1.19504284e-01
  5.92056752e-02  4.05809808e-03 -1.26880710e-01  4.95521491e-03  6.41901142e-03
 -3.77641600e-02  8.44234157e-03  1.11227462e-03  4.61021531e-04  4.81676861e-03
  4.34472135e-03 -4.47545273e-03 -1.61636331e-03 -5.57106176e-02 -3.96923150e-02
 -1.58333970e-01  1.93008140e-01  3.80759565e-02 -4.34085159e-02  5.65711309e-02
  6.85868175e-03  1.55500029e-03  9.19450508e-04  1.52484577e-04 -1.45623464e-02
  8.64480035e-03 -1.13545773e-03 -9.94351550e-03 -6.17625518e-03  1.98669106e-01
  2.23275306e-01 -3.88102624e-02  8.35118193e-02  9.83490219e-02 -1.16243338e-02
  4.77264171e-04  8.39242847e-04 -9.88794395e-04 -1.25896406e-02 -3.64887212e-03
  2.17954912e-01  5.45411835e-02 -5.36309546e-03 -1.22016796e-02  9.10656961e-03
  2.00391536e-02  1.81175000e-03  2.25990863e-03 -3.78650180e-03  2.25841081e-03
  1.22502643e-01  2.90344235e-02 -3.26464257e-03 -1.31521408e-03 -1.01610272e-02
 -8.78532560e-02 -1.88491297e-02 -6.94870667e-03 -5.41157592e-03 -1.13191478e-03
  6.94968867e-02  1.90095423e-02  8.09641481e-03 -1.96522093e-03 -1.11365034e-04
 -1.91384493e-01 -4.14860823e-02 -1.05603801e-02  1.33426934e-02 -7.59385041e-03
  1.23248424e-03 -5.01766956e-02 -4.28944936e-02 -1.25453881e-01 -1.07089409e-01
  2.48519249e-02 -2.68028125e-02 -5.29104595e-02  1.14056806e-02 -3.23930856e-03
 -1.99936403e-04  1.11367323e-03  4.63583137e-03  5.95441164e-03 -3.55846006e-05
  4.61797101e-02  3.60328792e-02  1.11950456e-01 -1.31974862e-01  3.65042209e-02
  6.36344711e-02 -4.22934488e-02  7.57773910e-03 -7.08000630e-04  9.07632260e-04
  9.98474004e-04 -9.67478525e-03 -1.10598795e-02  5.73484565e-03 -6.20686133e-02