[Molden Format]
[Atoms] (AU)
C    1    6           1.9608067940         2.6275541056        -0.1964032512
C    2    6          -0.8566973992         2.3981810760        -0.1468070111
C    3    6          -2.1014085596         0.1862479534         0.1565754982
C    4    6          -0.8601425022        -2.3038926902         0.0747525868
O    5    8           1.4099960748        -2.7003121425         0.1268025796
H    6    1           2.7810256380         0.9949562299        -1.2054269567
H    7    1           2.6390006821         4.4289150123        -0.9757693344
H    8    1           2.6746776720         2.4356264527         1.7497308590
H    9    1          -2.2075109557        -3.9137598063        -0.1677209125
H   10    1          -4.1645241436         0.1570332222         0.2897854297
H   11    1          -1.9840900910         4.1270074343        -0.3708861241
[GTO]
  1 0
 s    8  1.00
     6665.0000000000         0.0006920000
     1000.0000000000         0.0053290000
      228.0000000000         0.0270770000
       64.7100000000         0.1017180000
       21.0600000000         0.2747400000
        7.4950000000         0.4485640000
        2.7970000000         0.2850740000
        0.5215000000         0.0152040000
 s    8  1.00
     6665.0000000000        -0.0001460000
     1000.0000000000        -0.0011540000
      228.0000000000        -0.0057250000
       64.7100000000        -0.0233120000
       21.0600000000        -0.0639550000
        7.4950000000        -0.1499810000
        2.7970000000        -0.1272620000
        0.5215000000         0.5445290000
 s    1  1.00
        0.1596000000         1.0000000000
 p    3  1.00
        9.4390000000         0.0381090000
        2.0020000000         0.2094800000
        0.5456000000         0.5085570000
 p    1  1.00
        0.1517000000         1.0000000000
 d    1  1.00
        0.5500000000         1.0000000000

  2 0
 s    8  1.00
     6665.0000000000         0.0006920000
     1000.0000000000         0.0053290000
      228.0000000000         0.0270770000
       64.7100000000         0.1017180000
       21.0600000000         0.2747400000
        7.4950000000         0.4485640000
        2.7970000000         0.2850740000
        0.5215000000         0.0152040000
 s    8  1.00
     6665.0000000000        -0.0001460000
     1000.0000000000        -0.0011540000
      228.0000000000        -0.0057250000
       64.7100000000        -0.0233120000
       21.0600000000        -0.0639550000
        7.4950000000        -0.1499810000
        2.7970000000        -0.1272620000
        0.5215000000         0.5445290000
 s    1  1.00
        0.1596000000         1.0000000000
 p    3  1.00
        9.4390000000         0.0381090000
        2.0020000000         0.2094800000
        0.5456000000         0.5085570000
 p    1  1.00
        0.1517000000         1.0000000000
 d    1  1.00
        0.5500000000         1.0000000000

  3 0
 s    8  1.00
     6665.0000000000         0.0006920000
     1000.0000000000         0.0053290000
      228.0000000000         0.0270770000
       64.7100000000         0.1017180000
       21.0600000000         0.2747400000
        7.4950000000         0.4485640000
        2.7970000000         0.2850740000
        0.5215000000         0.0152040000
 s    8  1.00
     6665.0000000000        -0.0001460000
     1000.0000000000        -0.0011540000
      228.0000000000        -0.0057250000
       64.7100000000        -0.0233120000
       21.0600000000        -0.0639550000
        7.4950000000        -0.1499810000
        2.7970000000        -0.1272620000
        0.5215000000         0.5445290000
 s    1  1.00
        0.1596000000         1.0000000000
 p    3  1.00
        9.4390000000         0.0381090000
        2.0020000000         0.2094800000
        0.5456000000         0.5085570000
 p    1  1.00
        0.1517000000         1.0000000000
 d    1  1.00
        0.5500000000         1.0000000000

  4 0
 s    8  1.00
     6665.0000000000         0.0006920000
     1000.0000000000         0.0053290000
      228.0000000000         0.0270770000
       64.7100000000         0.1017180000
       21.0600000000         0.2747400000
        7.4950000000         0.4485640000
        2.7970000000         0.2850740000
        0.5215000000         0.0152040000
 s    8  1.00
     6665.0000000000        -0.0001460000
     1000.0000000000        -0.0011540000
      228.0000000000        -0.0057250000
       64.7100000000        -0.0233120000
       21.0600000000        -0.0639550000
        7.4950000000        -0.1499810000
        2.7970000000        -0.1272620000
        0.5215000000         0.5445290000
 s    1  1.00
        0.1596000000         1.0000000000
 p    3  1.00
        9.4390000000         0.0381090000
        2.0020000000         0.2094800000
        0.5456000000         0.5085570000
 p    1  1.00
        0.1517000000         1.0000000000
 d    1  1.00
        0.5500000000         1.0000000000

  5 0
 s    8  1.00
    11720.0000000000         0.0007100000
     1759.0000000000         0.0054700000
      400.8000000000         0.0278370000
      113.7000000000         0.1048000000
       37.0300000000         0.2830620000
       13.2700000000         0.4487190000
        5.0250000000         0.2709520000
        1.0130000000         0.0154580000
 s    8  1.00
    11720.0000000000        -0.0001600000
     1759.0000000000        -0.0012630000
      400.8000000000        -0.0062670000
      113.7000000000        -0.0257160000
       37.0300000000        -0.0709240000
       13.2700000000        -0.1654110000
        5.0250000000        -0.1169550000
        1.0130000000         0.5573680000
 s    1  1.00
        0.3023000000         1.0000000000
 p    3  1.00
       17.7000000000         0.0430180000
        3.8540000000         0.2289130000
        1.0460000000         0.5087280000
 p    1  1.00
        0.2753000000         1.0000000000
 d    1  1.00
        1.1850000000         1.0000000000

  6 0
 s    3  1.00
       13.0100000000         0.0196850000
        1.9620000000         0.1379770000
        0.4446000000         0.4781480000
 s    1  1.00
        0.1220000000         1.0000000000
 p    1  1.00
        0.7270000000         1.0000000000

  7 0
 s    3  1.00
       13.0100000000         0.0196850000
        1.9620000000         0.1379770000
        0.4446000000         0.4781480000
 s    1  1.00
        0.1220000000         1.0000000000
 p    1  1.00
        0.7270000000         1.0000000000

  8 0
 s    3  1.00
       13.0100000000         0.0196850000
        1.9620000000         0.1379770000
        0.4446000000         0.4781480000
 s    1  1.00
        0.1220000000         1.0000000000
 p    1  1.00
        0.7270000000         1.0000000000

  9 0
 s    3  1.00
       13.0100000000         0.0196850000
        1.9620000000         0.1379770000
        0.4446000000         0.4781480000
 s    1  1.00
        0.1220000000         1.0000000000
 p    1  1.00
        0.7270000000         1.0000000000

  10 0
 s    3  1.00
       13.0100000000         0.0196850000
        1.9620000000         0.1379770000
        0.4446000000         0.4781480000
 s    1  1.00
        0.1220000000         1.0000000000
 p    1  1.00
        0.7270000000         1.0000000000

  11 0
 s    3  1.00
       13.0100000000         0.0196850000
        1.9620000000         0.1379770000
        0.4446000000         0.4781480000
 s    1  1.00
        0.1220000000         1.0000000000
 p    1  1.00
        0.7270000000         1.0000000000

[5D7F]
[9G]

[MO]
 Sym= A
 Ene=        -1.9135217648e+01
 Spin= Alpha
 Occup=         2.0000000000e+00
  1        -6.8511034197e-05
  2        -1.4338399985e-04
  3         6.5352386446e-05
  4         6.4882648740e-05
  5         4.3081658207e-05
  6         1.0656272583e-05
  7        -3.2491146304e-05
  8        -1.4361941285e-04
  9         1.6509527083e-04
 10         7.3869901761e-05
 11         3.2980006631e-05
 12         3.6275098467e-05
 13         7.5266239764e-05
 14        -1.0004902754e-04
 15        -2.0377065721e-04
 16        -3.6377644822e-04
 17         5.3277568507e-03
 18        -2.2155323121e-05
 19        -1.7532216345e-05
 20        -5.6953024000e-05
 21        -9.3444037163e-04
 22        -2.2058195267e-03
 23         4.7568887756e-04
 24        -3.0377728297e-05
 25         2.8795576970e-05
 26        -1.9401687017e-05
 27        -5.0466938902e-05
 28        -5.2115768734e-05
 29         2.0469821699e-04
 30         3.1426939171e-04
 31        -3.8837705956e-03
 32         2.5645842078e-05
 33         2.7626674585e-04
 34        -1.2952522460e-05
 35        -4.4982677712e-03
 36        -3.5397656089e-03
 37         2.8745167238e-04
 38         1.2898841036e-04
 39         4.8002563781e-05
 40         8.5858302549e-05
 41        -3.9420006434e-04
 42         4.9848464305e-04
 43         4.5521850902e-04
 44         5.9682780974e-04
 45         5.3422488627e-03
 46        -1.0051322256e-04
 47        -1.7713044214e-04
 48        -3.1764796783e-05
 49         6.6297093577e-03
 50         5.9427578538e-04
 51         1.3778442217e-04
 52        -1.0535255666e-05
 53         8.1517420914e-06
 54         8.6137335501e-05
 55        -1.1623175585e-03
 56         5.0706400952e-04
 57         1.0041704138e+00
 58         9.4739228981e-03
 59        -1.5105960447e-02
 60        -1.8404501604e-03
 61         3.5187833935e-04
 62        -6.0388214255e-05
 63         3.5084816947e-03
 64        -8.2898559458e-04
 65         9.8840037243e-05
 66        -1.9632662298e-05
 67         2.2140713917e-06
 68        -3.3509306927e-06
 69         6.8463218119e-05
 70         9.8329599640e-06
 71        -1.1507438782e-04
 72        -1.1680849585e-04
 73         3.4280631454e-05
 74        -1.6176796598e-05
 75         2.7231853754e-05
 76         1.2138025982e-04
 77         3.5489453009e-04
 78        -7.3846826559e-05
 79        -6.9082350816e-05
 80         4.3123044684e-05
 81        -1.0524682293e-04
 82        -2.4953699431e-04
 83         6.7625760306e-05
 84         6.2861793842e-05
 85         5.8081128215e-05
 86        -1.4173564368e-04
 87         9.2097098862e-04
 88        -7.6710990918e-04
 89         1.1635081924e-04
 90        -3.8281629370e-06
 91        -2.7802702316e-04
 92        -1.3227660892e-03
 93         1.8548439626e-04
 94         2.5177957515e-04
 95         2.7535820783e-08
 96        -1.7886874905e-04
 97         2.3065701355e-04
 98         4.2385616470e-05
 99         8.1905417922e-05
100        -2.7801578456e-05
 Sym= A
 Ene=        -1.0272719536e+01
 Spin= Alpha
 Occup=         2.0000000000e+00
  1        -3.6859821161e-04
  2        -4.8750859517e-04
  3         8.9370897290e-04
  4         2.8677078362e-04
  5         7.0899997608e-05
  6         5.9659784441e-07
  7        -6.1990400028e-04
  8         5.8087935207e-05
  9         1.9694572361e-05
 10        -1.6517462918e-05
 11        -6.6999106624e-05
 12         3.5415001826e-06
 13        -1.1659448340e-04
 14        -3.9463020514e-05
 15        -4.2967681023e-04
 16        -6.2820010070e-04
 17         6.4613039369e-03
 18        -2.7072018681e-04
 19        -2.6324807763e-05
 20         4.8436630986e-05
 21        -2.1133399864e-03
 22        -3.7924754763e-03
 23         5.8816956737e-04
 24        -3.9637406110e-04
 25        -1.8656668185e-04
 26        -9.4351981601e-05
 27         2.9191478024e-04
 28         3.6131651863e-04
 29         1.6481058299e-03
 30        -2.5398330852e-04
 31        -1.8883365723e-03
 32        -3.4931373467e-04
 33         7.6181356109e-04
 34         4.2408122408e-05
 35        -2.5709035740e-03
 36        -5.9702907046e-03
 37         4.0420497136e-04
 38         1.0412937442e-03
 39        -5.9444833154e-07
 40        -1.2693469744e-05
 41         1.1202577288e-03
 42         8.6078634383e-04
 43         1.0059459625e+00
 44         1.5295603096e-02
 45        -1.0725938970e-02
 46         7.2843028394e-04
 47        -4.8658178164e-04
 48        -9.4506112135e-05
 49         5.4406807180e-03
 50        -2.0506498895e-03
 51         2.7471239440e-05
 52        -1.6395314812e-03
 53         2.2247142847e-04
 54         1.8823193538e-04
 55         8.6348559133e-04
 56         1.5662958613e-05
 57         3.6546509394e-04
 58         9.0868065012e-04
 59        -5.9584159051e-03
 60         7.4711745516e-04
 61        -2.1054810450e-04
 62         3.3604643794e-06
 63         3.4127955468e-03
 64        -2.0559441067e-04
 65         9.7904597643e-05
 66         5.6809790793e-04
 67        -2.9540855972e-05
 68        -1.7550460685e-05
 69        -7.2557191798e-04
 70         2.5525197284e-04
 71        -1.1162021413e-04
 72        -6.5049192515e-05
 73         3.0626183072e-05
 74         5.2740279015e-06
 75        -1.4455123443e-05
 76        -5.2070406249e-05
 77         3.5592468631e-04
 78        -5.3243081534e-05
 79        -2.6211352764e-05
 80         8.2052526774e-06
 81        -6.1929662283e-05
 82        -1.0848443619e-05
 83         1.0359060973e-04
 84         5.1559463728e-05
 85        -4.4100567538e-05
 86        -1.6833363427e-03
 87         2.4848207038e-03
 88        -1.4340308613e-03
 89        -1.4617948817e-03
 90        -2.2752773909e-04
 91        -5.2483227133e-04
 92        -4.9315759030e-04
 93         4.8217850114e-05
 94         2.9020385180e-04
 95        -2.9981228209e-05
 96        -2.6353919677e-05
 97         6.1274185113e-04
 98         2.2605390723e-04
 99         1.0186650418e-04
100        -3.1996853933e-05
 Sym= A
 Ene=        -1.0223793187e+01
 Spin= Alpha
 Occup=         2.0000000000e+00
  1         3.0577410252e-03
  2        -4.0101038466e-04
  3         4.3889140982e-03
  4         7.1273890432e-04
  5         4.4764567925e-05
  6         6.0754850297e-05
  7        -2.4304227198e-03
  8        -8.4438120477e-04
  9        -3.4830619623e-04
 10         7.8622819186e-04
 11         7.5959574419e-05
 12         2.9564401328e-05
 13        -9.7977065014e-04
 14        -4.9997635335e-05
 15         1.0063323704e+00
 16         1.6130843225e-02
 17        -2.0219280346e-02
 18        -5.1249589659e-04
 19         1.9264892907e-04
 20        -1.5259985284e-05
 21        -2.2913398875e-03
 22         3.9046800916e-03
 23        -4.5320946599e-04
 24        -1.0326212812e-03
 25         1.0610902837e-04
 26        -3.1102893810e-04
 27        -5.5834819612e-04
 28        -4.1872193634e-04
 29         1.2245101026e-02
 30        -1.2359307954e-03
 31         4.8724511705e-03
 32        -7.1783138337e-04
 33        -1.0717521706e-03
 34         1.5912148371e-04
 35         2.7231855610e-03
 36         2.6303816095e-03
 37        -2.8999733585e-04
 38         8.6676689268e-04
 39         1.3447810488e-04
 40         2.9330715564e-04
 41         5.1178817839e-04
 42        -9.6847636073e-04
 43        -2.7452607744e-04
 44        -5.5243141844e-04
 45         1.1140289863e-03
 46        -2.0447484050e-05
 47        -2.1056697007e-04
 48         3.8482512889e-05
 49        -4.4273573532e-04
 50         1.0275466726e-03
 51        -5.7878359762e-05
 52        -3.2581721921e-04
 53        -9.4323981928e-05
 54        -1.1642465367e-05
 55         1.6787757210e-04
 56        -1.1079598491e-05
 57        -3.4683475100e-05
 58        -7.3271633948e-05
 59        -1.1513879781e-04
 60         1.2152962534e-04
 61         1.3876828992e-05
 62         1.6917748904e-05
 63        -1.2246097229e-04
 64        -3.3250944145e-04
 65         2.7950944466e-05
 66         1.1436555346e-05
 67        -2.5572421846e-05
 68         3.4685565449e-06
 69         3.3952628299e-06
 70         2.3953907279e-05
 71        -4.3219763131e-04
 72         3.9836628451e-04
 73        -1.2000172281e-04
 74        -7.3953238487e-06
 75         5.3285343405e-05
 76        -2.7945198514e-04
 77         2.1264415279e-04
 78         1.4185602959e-04
 79         2.3595820042e-05
 80         7.3191334425e-05
 81        -4.7585060069e-04
 82         1.1601387667e-03
 83        -1.8593828499e-04
 84         6.0043495991e-06
 85         2.4318222943e-05
 86        -8.4894732443e-05
 87         3.3099699205e-04
 88         4.5383784025e-05
 89        -7.1322502903e-05
 90        -1.5180766110e-05
 91         1.5782991952e-04
 92         9.4794776941e-04
 93         1.5473343461e-04
 94        -2.6089119886e-04
 95        -1.0804265844e-06
 96        -2.4406024916e-03
 97         1.0913990794e-03
 98        -1.2406339801e-03
 99         1.7950981671e-03
100        -2.2841487570e-04
 Sym= A
 Ene=        -1.0197233073e+01
 Spin= Alpha
 Occup=         2.0000000000e+00
  1         1.2404935364e-03
  2         4.7565428435e-04
  3        -2.4206083283e-04
  4        -1.0940409107e-04
  5        -1.3563358875e-04
  6         1.0418816948e-04
  7         8.7442529802e-04
  8         6.8280238181e-05
  9        -2.7830820720e-04
 10         3.0061550487e-04
 11         2.5256510148e-05
 12         5.7426245806e-05
 13        -4.6172993296e-05
 14         1.2733135759e-04
 15         1.3691315693e-02
 16         1.7140600489e-03
 17        -6.2015966460e-03
 18        -5.8478865701e-04
 19        -1.2032683741e-03
 20         1.6974426449e-04
 21         6.8190579664e-04
 22         3.7469430107e-03
 23        -1.9174136924e-04
 24        -9.1131960542e-04
 25        -1.8357762383e-04
 26        -3.0897660572e-04
 27        -6.0070238439e-04
 28         9.3017116044e-04
 29        -1.0064976743e+00
 30        -1.6562682120e-02
 31         2.1141315044e-02
 32         3.3472359832e-04
 33        -2.4573972653e-04
 34         1.4998416157e-04
 35         5.2930380598e-03
 36         2.9228197375e-04
 37        -8.8517375795e-04
 38         1.0879027880e-03
 39         1.8289613948e-04
 40         1.1312618662e-04
 41        -4.3657945899e-04
 42        -4.7088102676e-04
 43         1.9677972598e-03
 44         7.8459965976e-04
 45        -5.6973827682e-03
 46        -2.6563421786e-04
 47         7.1741425750e-04
 48         5.1275676510e-05
 49        -3.6460654795e-04
 50        -3.4296421629e-03
 51         4.9480630469e-05
 52        -7.0047802403e-04
 53        -1.5721233776e-04
 54         6.1691085062e-05
 55        -5.6591660275e-04
 56        -1.2176630781e-03
 57        -3.7660157198e-05
 58        -6.5188167630e-05
 59         7.6482554447e-04
 60        -1.8940482208e-05
 61         6.4757733749e-05
 62         3.9829809843e-05
 63         1.2877649074e-04
 64         6.2823169042e-04
 65        -5.2520828360e-05
 66         1.2851550477e-04
 67        -4.0859050160e-05
 68        -1.2282686964e-05
 69        -7.8639566272e-05
 70        -2.1993808229e-04
 71         1.3627659922e-04
 72        -3.2696824606e-04
 73        -1.9464327276e-05
 74        -7.4998796032e-05
 75         5.3061685670e-05
 76        -3.8143339775e-05
 77        -3.5079921443e-04
 78        -4.4793170393e-05
 79         4.9886883194e-05
 80         2.7958909473e-05
 81         7.3315059851e-05
 82        -1.8940460756e-04
 83        -4.3032853370e-05
 84        -8.3126192298e-05
 85         1.3398241270e-04
 86         2.9242548562e-04
 87        -9.6427331537e-04
 88        -6.7073150435e-05
 89         1.9340735856e-04
 90        -3.3552340412e-05
 91         2.4929500675e-03
 92        -8.3467654061e-04
 93         2.1784926112e-03
 94        -9.6595206537e-05
 95        -7.8818440751e-05
 96        -1.0400101823e-04
 97        -8.5698296129e-04
 98        -2.8784234759e-04
 99         3.3448375355e-05
100        -3.8867550838e-05
 Sym= A
 Ene=        -1.0189554495e+01
 Spin= Alpha
 Occup=         2.0000000000e+00
  1         1.0070078762e+00
  2         1.7473357639e-02
  3        -1.9272479381e-02
  4         4.1183274462e-04
  5         3.0685692161e-05
  6         2.1170504665e-04
  7         2.8849814441e-03
  8         4.6828094607e-04
  9        -5.0870604998e-04
 10         2.0534888016e-04
 11         4.8958545424e-06
 12        -1.5259078306e-04
 13        -6.4707786878e-04
 14         6.6190757615e-05
 15        -3.2445780949e-03
 16        -2.5642806189e-04
 17         1.6199834706e-03
 18        -4.8462031729e-04
 19         5.2424831381e-05
 20         6.1705535588e-07
 21         4.1457380165e-03
 22         2.3617257630e-03
 23        -2.9143889848e-04
 24         6.3340502181e-04
 25         9.9455187188e-05
 26        -1.1170296987e-05
 27        -1.3211208639e-03
 28        -3.9949860085e-04
 29         5.6489056657e-04
 30        -6.5973334841e-04
 31         3.6480410061e-03
 32        -2.3681765416e-04
 33         3.4269565154e-05
 34        -2.6739490905e-06
 35         1.2059271756e-03
 36         2.5721713600e-03
 37        -3.6706199312e-04
 38        -3.6932304024e-04
 39         2.6875244620e-05
 40        -1.0482146191e-04
 41        -4.1729067969e-04
 42        -2.1295151246e-04
 43        -1.2607746570e-04
 44        -5.0471721686e-04
 45         3.6901479570e-04
 46        -7.1676871763e-05
 47        -2.6979989696e-04
 48        -3.8431674388e-05
 49        -2.0546930310e-04
 50         4.7859036353e-04
 51         1.2643034885e-04
 52        -3.6518063545e-05
 53        -2.9085531384e-05
 54        -2.7802028156e-05
 55         3.1493536487e-05
 56         4.7695037511e-05
 57        -1.0285533295e-04
 58        -1.9974787431e-04
 59         3.4166089930e-04
 60         3.0044035707e-05
 61        -1.1333486121e-04
 62        -2.2151825187e-05
 63        -2.4271956274e-04
 64         2.4990975662e-04
 65         6.4545660401e-05
 66        -5.6815041518e-05
 67         4.7829739140e-07
 68         6.2102647814e-06
 69         8.8534484010e-07
 70        -2.1674823208e-06
 71        -1.0688610832e-03
 72         2.0659258475e-03
 73         5.9822819139e-04
 74        -1.4707804277e-03
 75        -9.2335291891e-04
 76        -1.5046313048e-03
 77         1.7543479991e-03
 78         6.0225986003e-04
 79         1.8027338051e-03
 80        -7.7783160959e-04
 81        -1.0878186845e-03
 82         2.3896883962e-03
 83         4.8489218730e-04
 84        -2.0744033597e-04
 85         1.8377699883e-03
 86         2.0381344446e-05
 87         3.8135053314e-04
 88         1.0949878185e-05
 89         6.1827494895e-05
 90        -1.4967790352e-05
 91         3.2888812103e-05
 92         4.8896525566e-04
 93         6.0774233127e-05
 94        -1.9066041247e-04
 95         2.7261489901e-05
 96        -3.9357161655e-04
 97         1.3575026182e-04
 98        -3.8881645825e-04
 99        -1.6630713356e-04
100         2.4695283674e-05
 Sym= A
 Ene=        -1.0398651367e+00
 Spin= Alpha
 Occup=         2.0000000000e+00
  1        -5.0218897942e-04
  2         7.9812304402e-03
  3         5.0740790649e-03
  4        -3.3235927706e-03
  5        -3.8688249566e-03
  6        -4.1226508567e-05
  7        -2.7875310518e-03
  8        -1.4341080698e-03
  9         8.1088682114e-04
 10        -7.1634610981e-04
 11        -1.1773838432e-04
 12        -1.6308306965e-04
 13         9.7104115778e-05
 14         8.8746201376e-04
 15         4.7934777647e-04
 16         1.6923597376e-02
 17        -1.1879062863e-02
 18         3.9475665214e-04
 19        -1.0697263349e-02
 20         1.0922764580e-03
 21        -1.8936009462e-03
 22         9.2431565180e-03
 23        -1.1845002924e-03
 24        -5.0656382296e-04
 25        -2.0025231126e-04
 26        -4.5779921882e-04
 27        -1.5185896055e-03
 28         7.1969146781e-04
 29        -3.6884697911e-03
 30         3.6403643975e-02
 31         3.1726537673e-02
 32         2.1304662895e-02
 33        -1.9592504111e-02
 34        -9.8529031158e-04
 35         1.9875920202e-02
 36         1.9170485731e-03
 37        -1.8486712794e-03
 38        -3.7412839655e-03
 39        -4.2744055290e-04
 40        -9.8239090241e-05
 41        -2.6965124930e-04
 42        -9.0857334215e-03
 43        -1.4772515004e-02
 44         2.2428070153e-01
 45         9.4461621141e-02
 46         1.8443112425e-01
 47        -2.3705890200e-02
 48         4.2087761324e-03
 49         1.2287039911e-02
 50        -2.5641418269e-03
 51         9.3879065360e-04
 52        -1.3834578789e-02
 53         5.8197836174e-04
 54        -1.4573368415e-03
 55         3.1399413593e-02
 56        -1.3385681498e-02
 57        -9.2403358977e-03
 58         4.0202617405e-01
 59         3.6078969097e-01
 60        -1.5518703541e-01
 61         3.0676101138e-02
 62        -4.1851238954e-03
 63        -3.1743207520e-02
 64         7.5227492110e-03
 65        -1.5668856396e-03
 66        -5.4005479474e-03
 67         3.5704758371e-04
 68        -7.4857798663e-04
 69         1.2113195644e-02
 70        -4.8974638730e-03
 71         7.5501293218e-03
 72         3.9022359204e-03
 73        -6.9731540400e-04
 74        -3.7563968336e-04
 75         6.9345455135e-04
 76         1.1006115850e-03
 77        -4.1848132094e-04
 78         2.7247525065e-05
 79        -4.7867054215e-05
 80        -7.3724679675e-05
 81         2.7540123262e-03
 82         7.9436104323e-04
 83        -3.2450220773e-04
 84        -3.5203810385e-04
 85        -5.5302228288e-04
 86         3.9841151708e-02
 87        -3.4463441382e-03
 88         1.0110509691e-02
 89         5.9989053911e-03
 90         1.0354579065e-03
 91         7.1916284997e-03
 92         6.0984905395e-03
 93         1.0031980496e-03
 94        -1.9057931097e-03
 95        -8.3645489769e-05
 96         1.8675468716e-03
 97        -3.0140785938e-03
 98        -1.7993081593e-04
 99        -8.3412002997e-04
100         1.3381790117e-04
 Sym= A
 Ene=        -8.1104222820e-01
 Spin= Alpha
 Occup=         2.0000000000e+00
  1         1.1183213816e-02
  2        -1.8028247349e-01
  3        -7.4879225020e-02
  4         6.7202559819e-02
  5         1.3977423480e-02
  6        -4.9527392803e-03
  7         2.3175475305e-03
  8        -8.9579981960e-03
  9         2.5688706338e-03
 10         5.7380698082e-03
 11         5.8866574664e-04
 12        -9.3695072426e-05
 13        -1.0037680725e-02
 14        -3.1871689029e-03
 15         1.9844919358e-02
 16        -2.8922913178e-01
 17        -2.0370820472e-01
 18        -4.5059074161e-03
 19         7.0834884228e-02
 20        -8.6991238334e-03
 21        -3.1873677737e-02
 22         2.5089813037e-02
 23        -3.6702362832e-03
 24         1.0019059898e-02
 25         1.2525902470e-03
 26         1.8292460199e-03
 27        -2.1820219352e-03
 28        -1.0003808272e-02
 29         1.7293220416e-02
 30        -2.5447160702e-01
 31        -1.3871706572e-01
 32        -5.8857392336e-02
 33        -5.6504752300e-02
 34         1.4377475709e-02
 35        -2.5695378392e-03
 36        -2.1101240347e-02
 37         3.7418399532e-03
 38         6.8601090921e-03
 39         1.5336828508e-03
 40         2.0305727211e-03
 41         8.8489260737e-03
 42        -8.5797034966e-03
 43         2.6051026043e-03
 44        -6.4913527620e-02
 45        -5.1365026611e-02
 46         7.3146133720e-02
 47        -8.1001295163e-02
 48         1.3977927843e-03
 49         2.3836551308e-02
 50        -2.2858254955e-02
 51        -1.0002358873e-03
 52         2.7095462537e-03
 53         4.3571564780e-04
 54        -2.7156414558e-04
 55         1.3463400638e-02
 56         3.2268414155e-03
 57        -3.5852270930e-04
 58         7.7606803361e-02
 59         7.4784001243e-02
 60        -1.2346951040e-02
 61        -1.6866438601e-02
 62         1.0865871292e-04
 63         1.2463674625e-03
 64        -7.3110272836e-03
 65         5.9518124590e-04
 66         1.7415938746e-04
 67         1.0237201487e-05
 68         3.8250746914e-05
 69         1.7150935181e-03
 70         1.6223082382e-03
 71        -6.7259832432e-02
 72        -2.1903776937e-03
 73         4.6186937891e-03
 74        -7.7916878587e-03
 75        -5.1715629903e-03
 76        -5.9438154364e-02
 77        -6.8596275099e-04
 78         4.7828529783e-03
 79         8.1421540254e-03
 80        -3.4786250200e-03
 81        -6.9004429845e-02
 82        -3.5267360032e-03
 83         4.3675714267e-03
 84        -1.0376426532e-04
 85         9.2296858179e-03
 86        -1.9150201695e-02
 87         5.6976178692e-05
 88         3.1873816013e-05
 89        -3.5633766453e-03
 90        -1.3449915250e-04
 91        -8.3136081425e-02
 92        -2.5165819900e-03
 93        -1.4146949697e-02
 94        -1.8975656544e-03
 95         1.1612989216e-03
 96        -9.8251580515e-02
 97        -1.3410190126e-02
 98        -6.9560075009e-03
 99         1.3627873069e-02
100        -1.6829503829e-03
 Sym= A
 Ene=        -7.1673723225e-01
 Spin= Alpha
 Occup=         2.0000000000e+00
  1         1.4307607434e-02
  2        -2.8356283966e-01
  3        -1.2177105601e-01
  4         1.9844339189e-02
  5        -7.5979664683e-03
  6        -5.1758162871e-03
  7        -1.5651376181e-02
  8        -7.5936847180e-03
  9         4.6478273637e-04
 10         1.5034094828e-03
 11        -8.6282974075e-05
 12        -1.5164773645e-04
 13        -3.1071680210e-03
 14         2.2737889096e-03
 15         5.4393783356e-03
 16        -5.3779261348e-02
 17        -8.7555872935e-02
 18        -1.3641910853e-01
 19        -8.9216071751e-02
 20         9.8329220308e-03
 21        -8.9137733146e-02
 22        -6.3796643948e-03
 23         1.5510529295e-03
 24         3.8352890556e-03
 25        -4.0813869917e-04
 26        -1.0749961822e-03
 27        -1.7599775005e-02
 28         4.1454782160e-03
 29        -1.3741118889e-02
 30         2.2672105256e-01
 31         1.6647699545e-01
 32        -6.7094954729e-03
 33        -6.2448057859e-02
 34        -4.2884675247e-03
 35         3.4552986230e-02
 36        -3.7339242620e-02
 37        -1.4359774600e-03
 38        -4.4186735029e-03
 39        -5.3267208808e-05
 40         4.1631752755e-04
 41        -9.7207504980e-03
 42        -6.1033069817e-03
 43        -3.2626387102e-03
 44         1.5939902528e-01
 45         6.9923226031e-02
 46        -1.1156103493e-01
 47         7.4982635240e-02
 48        -1.7261988863e-04
 49        -3.8975377807e-02
 50         8.7036292797e-03
 51        -1.3463414129e-03