Generated by Psi4
        SP                           RHF                       CC-PVDZ
Number of atoms                            I               11
Charge                                     I                0
Multiplicity                               I                1
Number of electrons                        I               38
Number of alpha electrons                  I               19
Number of beta electrons                   I               19
Number of basis functions                  I              100
Number of independent functions            I              100
Atomic numbers                             I   N=          11
           6           6           6           6           8           1
           1           1           1           1           1
Nuclear charges                            R   N=          11
  6.00000000e+00  6.00000000e+00  6.00000000e+00  6.00000000e+00  8.00000000e+00
  1.00000000e+00  1.00000000e+00  1.00000000e+00  1.00000000e+00  1.00000000e+00
  1.00000000e+00
Current cartesian coordinates              R   N=          33
  1.65626555e+00  2.93548122e+00  2.66576719e-01 -7.98738183e-01  2.37500579e+00
 -1.55845856e-01 -2.07851419e+00 -1.49781737e-02  3.31486204e-01 -8.87090060e-01
 -2.26609244e+00  9.32422330e-02  1.60035113e+00 -2.60055715e+00 -4.04369653e-01
  2.32951652e+00 -9.24586014e-01 -6.43909825e-01  2.47408084e+00  4.70859017e+00
 -4.07711350e-01  2.88642269e+00  1.71291842e+00  1.39269513e+00 -1.89596656e+00
 -4.06141373e+00  1.48172641e-01 -4.12384481e+00 -5.05038343e-02  6.18052683e-01
 -1.96843215e+00  3.81698210e+00 -1.06528160e+00
Integer atomic weights                     I   N=          11
          12          12          12          12          16           1
           1           1           1           1           1
Real atomic weights                        R   N=          11
  1.20000000e+01  1.20000000e+01  1.20000000e+01  1.20000000e+01  1.59949146e+01
  1.00782503e+00  1.00782503e+00  1.00782503e+00  1.00782503e+00  1.00782503e+00
  1.00782503e+00
Number of primitive shells                 I              140
Number of contracted shells                I               48
Pure/Cartesian d shells                    I                0
Pure/Cartesian f shells                    I                0
Highest angular momentum                   I                2
Largest degree of contraction              I                8
Shell types                                I   N=          48
           0           0           0           1           1          -2
           0           0           0           1           1          -2
           0           0           0           1           1          -2
           0           0           0           1           1          -2
           0           0           0           1           1          -2
           0           0           1           0           0           1
           0           0           1           0           0           1
           0           0           1           0           0           1
Number of primitives per shell             I   N=          48
           8           8           1           3           1           1
           8           8           1           3           1           1
           8           8           1           3           1           1
           8           8           1           3           1           1
           8           8           1           3           1           1
           3           1           1           3           1           1
           3           1           1           3           1           1
           3           1           1           3           1           1
Shell to atom map                          I   N=          48
           1           1           1           1           1           1
           2           2           2           2           2           2
           3           3           3           3           3           3
           4           4           4           4           4           4
           5           5           5           5           5           5
           6           6           6           7           7           7
           8           8           8           9           9           9
          10          10          10          11          11          11
Primitive exponents                        R   N=         140
  6.66500000e+03  1.00000000e+03  2.28000000e+02  6.47100000e+01  2.10600000e+01
  7.49500000e+00  2.79700000e+00  5.21500000e-01  6.66500000e+03  1.00000000e+03
  2.28000000e+02  6.47100000e+01  2.10600000e+01  7.49500000e+00  2.79700000e+00
  5.21500000e-01  1.59600000e-01  9.43900000e+00  2.00200000e+00  5.45600000e-01
  1.51700000e-01  5.50000000e-01  6.66500000e+03  1.00000000e+03  2.28000000e+02
  6.47100000e+01  2.10600000e+01  7.49500000e+00  2.79700000e+00  5.21500000e-01
  6.66500000e+03  1.00000000e+03  2.28000000e+02  6.47100000e+01  2.10600000e+01
  7.49500000e+00  2.79700000e+00  5.21500000e-01  1.59600000e-01  9.43900000e+00
  2.00200000e+00  5.45600000e-01  1.51700000e-01  5.50000000e-01  6.66500000e+03
  1.00000000e+03  2.28000000e+02  6.47100000e+01  2.10600000e+01  7.49500000e+00
  2.79700000e+00  5.21500000e-01  6.66500000e+03  1.00000000e+03  2.28000000e+02
  6.47100000e+01  2.10600000e+01  7.49500000e+00  2.79700000e+00  5.21500000e-01
  1.59600000e-01  9.43900000e+00  2.00200000e+00  5.45600000e-01  1.51700000e-01
  5.50000000e-01  6.66500000e+03  1.00000000e+03  2.28000000e+02  6.47100000e+01
  2.10600000e+01  7.49500000e+00  2.79700000e+00  5.21500000e-01  6.66500000e+03
  1.00000000e+03  2.28000000e+02  6.47100000e+01  2.10600000e+01  7.49500000e+00
  2.79700000e+00  5.21500000e-01  1.59600000e-01  9.43900000e+00  2.00200000e+00
  5.45600000e-01  1.51700000e-01  5.50000000e-01  1.17200000e+04  1.75900000e+03
  4.00800000e+02  1.13700000e+02  3.70300000e+01  1.32700000e+01  5.02500000e+00
  1.01300000e+00  1.17200000e+04  1.75900000e+03  4.00800000e+02  1.13700000e+02
  3.70300000e+01  1.32700000e+01  5.02500000e+00  1.01300000e+00  3.02300000e-01
  1.77000000e+01  3.85400000e+00  1.04600000e+00  2.75300000e-01  1.18500000e+00
  1.30100000e+01  1.96200000e+00  4.44600000e-01  1.22000000e-01  7.27000000e-01
  1.30100000e+01  1.96200000e+00  4.44600000e-01  1.22000000e-01  7.27000000e-01
  1.30100000e+01  1.96200000e+00  4.44600000e-01  1.22000000e-01  7.27000000e-01
  1.30100000e+01  1.96200000e+00  4.44600000e-01  1.22000000e-01  7.27000000e-01
  1.30100000e+01  1.96200000e+00  4.44600000e-01  1.22000000e-01  7.27000000e-01
  1.30100000e+01  1.96200000e+00  4.44600000e-01  1.22000000e-01  7.27000000e-01
Contraction coefficients                   R   N=         140
  6.91583963e-04  5.32579615e-03  2.70607210e-02  1.01656846e-01  2.74574824e-01
  4.48294319e-01  2.84902611e-01  1.51948592e-02 -2.93269653e-04 -2.31803547e-03
 -1.14997860e-02 -4.68267270e-02 -1.28466169e-01 -3.01266272e-01 -2.55630702e-01
  1.09379336e+00  1.00000000e+00  5.69792516e-02  3.13207212e-01  7.60376742e-01
  1.00000000e+00  1.00000000e+00  6.91583963e-04  5.32579615e-03  2.70607210e-02
  1.01656846e-01  2.74574824e-01  4.48294319e-01  2.84902611e-01  1.51948592e-02
 -2.93269653e-04 -2.31803547e-03 -1.14997860e-02 -4.68267270e-02 -1.28466169e-01
 -3.01266272e-01 -2.55630702e-01  1.09379336e+00  1.00000000e+00  5.69792516e-02
  3.13207212e-01  7.60376742e-01  1.00000000e+00  1.00000000e+00  6.91583963e-04
  5.32579615e-03  2.70607210e-02  1.01656846e-01  2.74574824e-01  4.48294319e-01
  2.84902611e-01  1.51948592e-02 -2.93269653e-04 -2.31803547e-03 -1.14997860e-02
 -4.68267270e-02 -1.28466169e-01 -3.01266272e-01 -2.55630702e-01  1.09379336e+00
  1.00000000e+00  5.69792516e-02  3.13207212e-01  7.60376742e-01  1.00000000e+00
  1.00000000e+00  6.91583963e-04  5.32579615e-03  2.70607210e-02  1.01656846e-01
  2.74574824e-01  4.48294319e-01  2.84902611e-01  1.51948592e-02 -2.93269653e-04
 -2.31803547e-03 -1.14997860e-02 -4.68267270e-02 -1.28466169e-01 -3.01266272e-01
 -2.55630702e-01  1.09379336e+00  1.00000000e+00  5.69792516e-02  3.13207212e-01
  7.60376742e-01  1.00000000e+00  1.00000000e+00  7.09645947e-04  5.46727229e-03
  2.78231186e-02  1.04747740e-01  2.82920846e-01  4.48495239e-01  2.70816885e-01
  1.54502916e-02 -3.14443412e-04 -2.48213768e-03 -1.23163554e-02 -5.05389173e-02
 -1.39384903e-01 -3.25077495e-01 -2.29848308e-01  1.09537935e+00  1.00000000e+00
  6.26791663e-02  3.33536566e-01  7.41239642e-01  1.00000000e+00  1.00000000e+00
  3.34987264e-02  2.34800801e-01  8.13682958e-01  1.00000000e+00  1.00000000e+00
  3.34987264e-02  2.34800801e-01  8.13682958e-01  1.00000000e+00  1.00000000e+00
  3.34987264e-02  2.34800801e-01  8.13682958e-01  1.00000000e+00  1.00000000e+00
  3.34987264e-02  2.34800801e-01  8.13682958e-01  1.00000000e+00  1.00000000e+00
  3.34987264e-02  2.34800801e-01  8.13682958e-01  1.00000000e+00  1.00000000e+00
  3.34987264e-02  2.34800801e-01  8.13682958e-01  1.00000000e+00  1.00000000e+00
Coordinates of each shell                  R   N=         144
  1.65626555e+00  2.93548122e+00  2.66576719e-01  1.65626555e+00  2.93548122e+00
  2.66576719e-01  1.65626555e+00  2.93548122e+00  2.66576719e-01  1.65626555e+00
  2.93548122e+00  2.66576719e-01  1.65626555e+00  2.93548122e+00  2.66576719e-01
  1.65626555e+00  2.93548122e+00  2.66576719e-01 -7.98738183e-01  2.37500579e+00
 -1.55845856e-01 -7.98738183e-01  2.37500579e+00 -1.55845856e-01 -7.98738183e-01
  2.37500579e+00 -1.55845856e-01 -7.98738183e-01  2.37500579e+00 -1.55845856e-01
 -7.98738183e-01  2.37500579e+00 -1.55845856e-01 -7.98738183e-01  2.37500579e+00
 -1.55845856e-01 -2.07851419e+00 -1.49781737e-02  3.31486204e-01 -2.07851419e+00
 -1.49781737e-02  3.31486204e-01 -2.07851419e+00 -1.49781737e-02  3.31486204e-01
 -2.07851419e+00 -1.49781737e-02  3.31486204e-01 -2.07851419e+00 -1.49781737e-02
  3.31486204e-01 -2.07851419e+00 -1.49781737e-02  3.31486204e-01 -8.87090060e-01
 -2.26609244e+00  9.32422330e-02 -8.87090060e-01 -2.26609244e+00  9.32422330e-02
 -8.87090060e-01 -2.26609244e+00  9.32422330e-02 -8.87090060e-01 -2.26609244e+00
  9.32422330e-02 -8.87090060e-01 -2.26609244e+00  9.32422330e-02 -8.87090060e-01
 -2.26609244e+00  9.32422330e-02  1.60035113e+00 -2.60055715e+00 -4.04369653e-01
  1.60035113e+00 -2.60055715e+00 -4.04369653e-01  1.60035113e+00 -2.60055715e+00
 -4.04369653e-01  1.60035113e+00 -2.60055715e+00 -4.04369653e-01  1.60035113e+00
 -2.60055715e+00 -4.04369653e-01  1.60035113e+00 -2.60055715e+00 -4.04369653e-01
  2.32951652e+00 -9.24586014e-01 -6.43909825e-01  2.32951652e+00 -9.24586014e-01
 -6.43909825e-01  2.32951652e+00 -9.24586014e-01 -6.43909825e-01  2.47408084e+00
  4.70859017e+00 -4.07711350e-01  2.47408084e+00  4.70859017e+00 -4.07711350e-01
  2.47408084e+00  4.70859017e+00 -4.07711350e-01  2.88642269e+00  1.71291842e+00
  1.39269513e+00  2.88642269e+00  1.71291842e+00  1.39269513e+00  2.88642269e+00
  1.71291842e+00  1.39269513e+00 -1.89596656e+00 -4.06141373e+00  1.48172641e-01
 -1.89596656e+00 -4.06141373e+00  1.48172641e-01 -1.89596656e+00 -4.06141373e+00
  1.48172641e-01 -4.12384481e+00 -5.05038343e-02  6.18052683e-01 -4.12384481e+00
 -5.05038343e-02  6.18052683e-01 -4.12384481e+00 -5.05038343e-02  6.18052683e-01
 -1.96843215e+00  3.81698210e+00 -1.06528160e+00 -1.96843215e+00  3.81698210e+00
 -1.06528160e+00 -1.96843215e+00  3.81698210e+00 -1.06528160e+00
Total Energy                               R     -2.312246270761771e+02
Alpha Orbital Energies                     R   N=         100
 -1.91729122e+01 -1.02511141e+01 -1.02066356e+01 -1.01904335e+01 -1.01832991e+01
 -1.06387177e+00 -8.03648824e-01 -7.32232188e-01 -6.27862084e-01 -5.80316468e-01
 -5.00704602e-01 -4.77403783e-01 -4.46958692e-01 -4.11644042e-01 -3.94048229e-01
 -3.78353697e-01 -3.46751628e-01 -3.00641436e-01 -2.18546938e-01 -2.71433507e-02
  5.51406381e-02  7.36520431e-02  8.28292139e-02  1.02339064e-01  1.27178234e-01
  1.41652212e-01  1.66486915e-01  2.22211823e-01  2.97750793e-01  3.21655585e-01
  3.43608127e-01  4.32144482e-01  4.44605320e-01  4.74341763e-01  4.77569313e-01
  4.96789160e-01  5.12208274e-01  5.34584589e-01  5.52771045e-01  5.64601494e-01
  5.81515104e-01  6.12312304e-01  6.29621605e-01  6.55883914e-01  6.76319462e-01
  7.25044169e-01  7.63301867e-01  7.93956817e-01  8.77637442e-01  8.96060495e-01
  9.40595172e-01  9.54053147e-01  9.69887687e-01  1.00419190e+00  1.04724981e+00
  1.05445550e+00  1.09304324e+00  1.10591741e+00  1.15777533e+00  1.19280044e+00
  1.23203509e+00  1.32082344e+00  1.36323214e+00  1.43124436e+00  1.46257082e+00
  1.48457102e+00  1.50602277e+00  1.52825748e+00  1.55464621e+00  1.58937006e+00
  1.61567372e+00  1.64459031e+00  1.68867632e+00  1.71494589e+00  1.73036713e+00
  1.74825720e+00  1.76500001e+00  1.82180289e+00  1.89663985e+00  1.92582723e+00
  1.98168940e+00  1.99352825e+00  2.03594559e+00  2.08485409e+00  2.09779055e+00
  2.17851526e+00  2.23424584e+00  2.27088921e+00  2.39061789e+00  2.40259349e+00
  2.42220318e+00  2.57507975e+00  2.73043819e+00  2.78215544e+00  2.88223211e+00
  2.95875876e+00  3.02415528e+00  3.17852497e+00  3.43903946e+00  3.69994314e+00
Alpha MO coefficients                      R   N=       10000
 -1.07082479e-04 -1.85081385e-04  1.42763474e-03 -1.04080550e-04  7.45545699e-05
  2.34101962e-05 -2.61798165e-04 -1.37698183e-03  1.76048928e-04 -8.01782171e-05
  5.06518707e-06  4.39703442e-05 -7.86565952e-05  7.65958215e-05  2.05716676e-04
  3.55427851e-04 -5.55206792e-03  6.84577699e-06  8.10194294e-06  7.32071796e-05
  1.82619584e-04  2.90048097e-03 -9.78789240e-04  6.66284290e-05 -1.23887587e-04
  1.12586907e-04 -7.00057336e-06  2.16646448e-05 -1.92996566e-04 -2.80783679e-04
  4.88415530e-03  5.73183057e-05 -2.58618503e-04 -3.84010528e-06  4.67556734e-03
  2.99119975e-03 -9.98381687e-04 -1.59324604e-04 -1.51137173e-04  3.94369653e-05
  4.07594491e-04 -3.76499762e-04 -1.95557670e-04 -3.59159933e-04 -5.78346743e-03
 -3.33060126e-04  2.05244593e-04  1.12032405e-04 -5.69739709e-03 -1.65719746e-03
  1.06606964e-03  4.02576096e-04 -7.25414376e-06  7.66890890e-06  7.11731882e-04
 -3.78258903e-04 -1.00408392e+00 -9.35956335e-03  1.40277198e-02  9.20430246e-04
 -1.42736905e-03 -8.40413947e-05 -3.21397782e-03  1.35956772e-03  5.96200943e-04
  2.30271734e-05 -6.09777561e-06  7.68163084e-05  1.65378624e-04 -2.55885675e-04
 -2.79328992e-04 -4.82763378e-04 -2.02038462e-04 -1.00251066e-03  2.14864905e-05
  3.02023303e-05  2.73908554e-04  4.11107534e-05  7.03185677e-05  3.16702784e-06
 -2.34527972e-04 -1.99235712e-04  4.12335153e-06 -3.16913341e-05 -2.00658069e-05
  4.13029017e-04 -8.96137763e-04  6.29463762e-04  1.58871951e-04 -1.11049173e-04
  1.65648208e-04  1.26643335e-03 -2.26902532e-04 -2.03337554e-04  6.08964281e-05
  7.82075316e-05 -6.27072520e-04 -3.17119937e-05 -9.89628375e-05  3.48546929e-05
 -2.82257295e-04 -3.44591206e-04  1.11415853e-03  1.37870333e-04  8.44266748e-05
  6.67957975e-05 -1.23780458e-03  4.55760932e-04 -5.97496649e-04 -8.26810810e-05
 -1.43479659e-05 -3.23753264e-05  5.82400330e-05 -4.30952325e-05 -4.94335452e-04
 -7.15241523e-04  4.83281680e-03 -1.10744676e-04  1.63209398e-05 -2.48570134e-06
 -2.36708457e-03 -4.03537223e-03  8.00163520e-04 -3.43474309e-04 -1.00277731e-04
 -1.07704415e-04 -1.29904806e-05  1.40458783e-04  4.57105529e-03 -9.68857452e-04
 -7.03491762e-05 -5.82421623e-04  1.32293046e-03  1.22853570e-04 -2.06712441e-03
 -6.16181760e-03  7.20943259e-04  1.07298114e-03  2.60005381e-04 -7.85161069e-05
  4.90836446e-04  9.23213494e-04  1.00591202e+00  1.52899426e-02 -1.22864952e-02
  5.41757460e-04 -4.59225322e-04 -2.24050597e-04  4.93234599e-03 -2.12878402e-03
 -9.66583386e-04 -1.63144871e-03 -4.49673520e-04  1.65538742e-04 -3.28344193e-04
  5.17350625e-05  7.16551512e-04  1.29303512e-03 -4.82893370e-03  2.57489851e-04
 -1.95050938e-04 -3.66245924e-05  3.21292749e-03 -2.13484215e-04 -6.60540604e-04
  7.00524307e-04  4.15193705e-04 -2.45886160e-05 -7.69127942e-04  1.58937489e-04
  5.35019701e-04 -4.13046825e-04 -6.10397079e-04 -5.37101953e-05  1.15420184e-04
 -5.41703203e-05  1.77865527e-04 -2.62063093e-05 -5.03185493e-05  3.07159756e-05
 -3.14294853e-06  8.85758057e-04  1.44007070e-05  5.74768742e-05 -3.17890178e-05
 -2.22915085e-03  2.35113378e-03 -1.52509451e-03 -1.64276947e-03  1.45505385e-04
 -1.38714219e-04 -3.37154726e-04  3.10222344e-04  2.91419040e-04 -7.10765787e-05
 -7.89077578e-05  5.38551044e-04  1.61988655e-04  1.33165402e-04 -4.05155244e-05
  2.07628436e-02 -1.11947454e-03  4.76851702e-03  1.33559976e-03  3.10628259e-04
  1.31294891e-04 -2.14738287e-03 -1.69276414e-03  4.25327550e-04  7.98535275e-04
 -4.87358327e-04 -1.75078094e-05 -1.07902774e-03 -3.75820114e-04  1.00623869e+00
  1.63215670e-02 -1.90595842e-02 -1.44837699e-04  2.00948524e-04 -2.74832549e-04
 -1.80227010e-03  3.10002312e-03 -1.69325385e-03 -7.70571114e-04  6.81488051e-04
 -6.81912946e-04  2.42129279e-04 -5.91146180e-05  5.94467126e-03 -4.22474163e-04
  9.00555269e-04 -4.63124776e-04 -6.50652849e-04  1.55128227e-04  6.30137970e-04
  3.65735340e-03  3.30752124e-04  8.05886949e-04  8.20016101e-05  5.88647572e-04
  1.01862673e-03 -9.69492123e-04 -3.92925356e-04 -7.54352625e-04  4.18864592e-03
 -8.63783942e-05 -1.86227097e-04  1.25235457e-04 -5.76067059e-04  2.84675596e-03
 -2.15949402e-04 -4.35097886e-04 -3.26490868e-04  3.00860347e-05  3.57483745e-04
 -2.26278789e-04  8.79038075e-05  1.28871402e-04 -1.23143800e-03  1.59373879e-04
 -4.40462011e-05 -1.80717633e-05  1.44515806e-04 -6.69658377e-04  6.35075632e-05
  7.75128659e-05  1.61629642e-05  1.67481337e-05 -5.04763687e-06  2.35143702e-05
  2.91998127e-04  5.91008383e-04 -2.98359296e-04 -7.39542508e-05 -3.66636500e-05
 -4.99049086e-05  8.84942893e-04  1.40898895e-04 -1.13964133e-04  9.11115568e-05
 -2.63200207e-04 -1.40049253e-04  3.93593724e-05  2.29015267e-04 -1.34385144e-04
  5.82738853e-05  8.11339224e-04  1.60015831e-04 -7.70068411e-05 -3.29089073e-07
 -2.35885008e-04  3.34995957e-04 -3.92592269e-05 -3.95264483e-04 -5.65394118e-05
 -2.34867653e-03  1.21837566e-03 -1.15634708e-03  1.53267385e-03 -9.49300610e-04
  1.00627427e+00  1.64796337e-02 -1.56324584e-02  2.77547677e-04 -9.84119525e-05
  2.71647087e-05  2.30273269e-03  1.05943070e-03  6.83791052e-04 -8.90705478e-04
  6.60207386e-04 -1.31099141e-03  1.40914376e-04  3.53727564e-04 -2.19721190e-02
 -1.43382536e-03  1.29146148e-03 -1.32137646e-03 -3.02515826e-04 -2.51060893e-04
  3.03869095e-03  2.30100180e-03 -4.51240215e-05  9.88329921e-04 -5.21323496e-04
  2.06907166e-04 -1.04874295e-03 -7.74269277e-04 -1.16981890e-03 -5.22658879e-04
  3.49743349e-03 -9.22897827e-05  5.33743333e-05 -6.99430007e-05  1.96288307e-03
  2.33419494e-03 -5.09943000e-04 -3.73596812e-04  7.25909012e-05 -2.49095423e-04
 -3.44422618e-04  2.46633993e-05  1.56992791e-05 -2.01926267e-04 -8.56893632e-04
 -1.76623239e-05 -1.32736849e-04 -5.20014050e-05 -1.31497739e-03 -2.43692505e-04
  3.02823470e-04  5.59279111e-05  1.07141974e-04 -9.06039461e-05 -6.92587312e-05
  1.11156238e-04  1.37497986e-05  4.29007936e-05  4.32775548e-04  1.40460275e-04
  8.20565980e-05 -3.96408402e-05 -7.36650330e-04 -1.39733540e-04  1.04090435e-04
 -4.86682153e-05 -3.39443999e-05 -2.93434846e-05  6.93173227e-05  6.97399359e-05
  2.23440571e-04  1.48720314e-03 -1.13968914e-04  5.26901292e-04  8.74739885e-05
 -2.31872675e-03  1.78559795e-03  7.90466989e-04  1.95124950e-03 -8.18328534e-04
 -2.05399336e-03  1.51344771e-03  1.17565857e-03 -1.43997595e-03  1.31153337e-03
 -8.11569470e-05 -4.20649178e-05  3.97535642e-05  1.70183506e-05 -2.23110698e-05
  1.19387804e-04  6.00835634e-04  1.29298916e-05 -1.22562220e-04  4.75651643e-05
  6.49499818e-05  2.95351731e-04  9.10592992e-07 -3.10200719e-04  9.49771590e-05
  4.45360856e-04 -4.61063745e-04  2.87012185e-03  7.27930826e-05  1.11995713e-04
 -7.77597095e-05 -2.11417346e-03 -4.37687947e-04  2.69919715e-05 -2.57566522e-04
  5.04188702e-04 -3.02875001e-04  2.53339387e-04 -4.59950255e-04 -6.32148361e-03
 -6.90766374e-04  3.06779608e-03  2.32258533e-04  7.06365560e-04 -1.76938765e-04
 -2.27448663e-03 -3.76549951e-03 -3.51528940e-05  8.99562959e-04  5.09423827e-04
  4.05857965e-04  5.62899684e-04 -1.26677043e-03  1.00666422e+00  1.67845741e-02
 -2.19730044e-02 -2.05670732e-04 -1.50715133e-04 -1.93153986e-04 -5.19081106e-03
 -2.55636319e-04  1.74579075e-03 -1.08394171e-03 -3.50965018e-04  2.93278907e-06
  3.94626244e-04 -1.40789723e-04 -5.76901545e-03 -1.53825613e-03  6.80748814e-03
  6.40378628e-04 -1.17613714e-03 -1.23437140e-04  1.50554444e-04  4.16285145e-03
 -2.51528191e-04  8.33138631e-04  1.97589986e-04 -2.63124396e-04  6.85937826e-04
  1.00530862e-03  3.27290430e-05  4.48081044e-05 -9.58423296e-04  3.27750740e-05
 -5.67753715e-05 -9.98675285e-06 -8.95953652e-05 -7.09285351e-04  6.28072644e-05
 -5.50469488e-05 -3.33339804e-05 -9.47313568e-06  8.89605856e-05  8.06233141e-05
  2.63637613e-04  5.61337165e-05 -1.35482616e-04 -1.79016385e-04  2.22041405e-05
  1.08338241e-04  5.28846529e-04  1.39079117e-04 -1.41300151e-04  4.84681468e-05
 -7.02335365e-04  4.90344920e-04  1.79071046e-04 -1.04096323e-04  1.28505552e-04
  1.39108259e-04  1.17260441e-03  2.98568927e-04 -1.49214648e-05  1.46355021e-06
 -2.41040803e-03  8.21628789e-04 -2.14834022e-03 -7.37943476e-05  1.97683629e-04
 -3.27522491e-04  6.55084410e-04  2.21938191e-04  2.66216157e-04  7.91223666e-05
  1.95633305e-04  1.01758063e-02 -4.80854617e-03 -2.18334225e-03 -6.13054689e-03
 -6.81726451e-04  3.00866024e-03  6.21933690e-03 -2.69069031e-03 -2.66178720e-04
 -6.73406845e-04  6.88939163e-04 -7.91192728e-04  9.98669362e-04 -2.21141116e-04
  1.45628919e-02  3.49387266e-03  2.03638461e-03 -9.34838216e-03  1.04538609e-03
  6.23221445e-03  2.68418337e-03  4.04243121e-04 -1.46573604e-03 -2.13993045e-04
 -5.26074783e-04 -1.16364415e-03  3.17420573e-04 -1.44255848e-03  3.58548643e-02
 -3.24084432e-03  2.19046985e-02 -1.76651161e-02 -4.78748205e-03  5.89444186e-03
  1.42918835e-02 -2.09308817e-03 -2.26092898e-03 -1.33674296e-03  1.41691582e-03
  2.38550226e-03 -7.91516853e-03 -1.26146500e-02  1.54169254e-01  8.41356338e-02
  1.25685916e-01 -1.89149576e-03 -2.59473561e-02  5.12042293e-03  2.37600159e-02
 -2.69663028e-04 -1.11584192e-02 -1.04288158e-02  2.21303956e-04  2.84531172e-02
 -3.38906643e-03 -6.68303312e-03  4.23424597e-01  3.72239526e-01 -7.49524459e-02
  8.86606042e-02  1.07831834e-02 -3.12290160e-02 -2.47779200e-03  6.32610093e-03
 -6.40062221e-03 -3.22907511e-03 -2.86044976e-04  4.02073707e-03 -1.58653526e-03
  1.71966076e-01  5.39828699e-03 -1.80813120e-02 -3.02289905e-02  5.97455887e-03
  1.08714744e-04 -4.53032726e-03  4.07835150e-05  4.64644037e-05 -1.38373948e-04
  8.75273499e-03  5.18621788e-03 -1.26738093e-03 -6.28535731e-04 -1.00256887e-03
  3.44930983e-02  5.40707546e-03  8.27103491e-03  4.65496662e-03 -1.15027953e-03
  5.23200964e-03  2.29062480e-03  4.98109920e-04 -2.23662098e-03 -3.44005000e-05
  1.82708229e-03 -1.08925814e-03 -2.76214111e-04 -4.48640935e-04 -9.67378290e-05
  1.47461301e-02 -1.90002088e-01 -1.03436214e-01  8.33038424e-02  2.82808432e-02
  1.20405890e-02  8.36207463e-03 -2.28081575e-03  8.01378713e-03  5.25906942e-03
 -1.99967151e-03 -3.31920663e-03 -7.76879909e-03 -5.77019772e-03  1.95286144e-02
 -2.78522057e-01 -1.77840066e-01 -3.61151057e-02  4.26111536e-02 -1.78659282e-02
 -1.95396926e-02  2.12620785e-02 -1.34389306e-02  1.05602986e-02 -4.17361971e-04
  1.57195520e-03 -1.65786106e-03 -1.07942608e-02  1.82758396e-02 -2.41449844e-01
 -1.42947855e-01 -5.71195479e-02 -1.66327123e-02  1.85164846e-02 -1.85940892e-02
 -1.23721672e-02  9.75066822e-03  8.54319501e-03  2.15055880e-03  2.59878430e-03
  9.04841318e-03 -5.38755332e-03  5.38998952e-03 -1.22400200e-01 -6.57748217e-02
  6.36068934e-02 -8.57483165e-02 -1.11863949e-02  2.33127689e-02 -1.26382357e-02
 -6.67737704e-03  3.34267757e-03 -1.56947249e-03 -8.56843523e-04  1.22959304e-02
  4.40839162e-03  1.02341676e-03  9.15862011e-02  8.55701680e-02  2.45244271e-02
  1.82628265e-03 -6.34376764e-03  1.54546424e-02 -7.81882016e-03 -3.06069996e-03
  7.64546826e-04  4.14179363e-04 -6.40784672e-04 -1.05199197e-03  2.77098643e-03
  3.14442887e-02  3.92656448e-03 -1.50924526e-03 -9.72818803e-03 -5.76559476e-05
 -5.88129117e-02 -4.58011175e-04  5.94282883e-03  8.45563939e-03 -2.58071857e-03
 -6.86427022e-02 -3.89199249e-03  7.94341796e-03 -5.32406147e-03  6.11907749e-03
 -3.22365372e-02  9.67929043e-04 -3.28152149e-04 -5.75303540e-03 -7.40555363e-06
 -7.98805205e-02 -8.00020677e-03 -1.29440593e-02 -1.12916065e-03  1.83358178e-03
 -9.61592856e-02 -1.24750668e-02 -8.46629834e-03  1.09320370e-02 -6.32718679e-03
  1.63599048e-02 -2.28735198e-01 -1.26833765e-01  5.34602039e-02  9.77414683e-03
  1.23615392e-02  1.64894992e-03  8.53845200e-04  2.92953016e-03  3.42610682e-03
 -2.31526648e-03 -2.42983469e-03 -5.10684798e-03  3.78115126e-04  8.89252054e-03
 -1.31949753e-01 -1.01601927e-01 -1.11825098e-01 -7.62615547e-02 -4.40021980e-03
 -4.93682421e-02 -1.17076694e-02 -6.31386238e-03  2.48744008e-03 -3.82446630e-03
 -2.42833434e-03 -1.48415482e-02  9.29930243e-04 -1.32955135e-02  1.98178225e-01
  1.29701986e-01  1.11824067e-02 -1.17379499e-01 -7.59086118e-03  1.89397241e-02
 -3.29517952e-02 -6.85696468e-04 -3.31623980e-03  2.77316518e-06  2.51043145e-03
 -6.77201845e-03 -1.22623950e-02 -1.00671948e-02  2.50993777e-01  1.40317782e-01
 -7.31111219e-02  5.61868517e-02  1.11550879e-02 -2.19724693e-02  9.62045029e-03
  2.44010965e-03 -5.27155521e-03 -6.53746987e-04  1.53389381e-03 -4.83723364e-03
 -1.11079243e-02 -1.97810155e-03 -8.52351750e-02 -7.44925559e-02 -1.07764197e-01
 -4.91394638e-02  2.29825972e-02 -4.98644240e-02 -5.16870788e-03  9.34733974e-03
 -1.45213001e-03 -1.48992161e-03  1.17686812e-03  6.34759876e-03 -4.74359192e-03
 -1.09867070e-01 -2.07172637e-02  4.63817108e-03  1.08642209e-02 -3.00558627e-03
 -9.63032181e-02 -9.22372331e-03  6.29781651e-03  1.23589413e-02 -4.23191176e-03
 -9.81731694e-02 -1.24548898e-02  9.15465928e-03 -6.53188877e-03  8.49154630e-03
  1.09472109e-01  9.91574276e-03  5.12555283e-03  1.40954731e-02 -6.95270888e-05
  8.97509301e-02  1.38303472e-02  1.23846438e-02 -2.87080290e-03 -1.97592602e-03
 -5.69631678e-02 -1.21869830e-02 -6.71996422e-03  3.39752912e-03 -3.44874089e-03
  1.07983720e-02 -1.93125934e-01 -1.26911534e-01 -2.31873489e-02 -3.14597664e-02
  5.55366443e-04 -2.21561461e-02  5.22917951e-03 -8.89130624e-03 -1.55962283e-03
 -3.77409990e-04  3.89253470e-04  7.76025163e-04  2.28123372e-03 -2.80510950e-03
  8.68091584e-02  4.29737600e-02 -1.52539545e-01 -9.35185229e-02 -6.80046510e-03
 -5.06766005e-02 -4.09936242e-02 -1.01222458e-04 -7.92018514e-04 -4.46771447e-03
 -2.60551088e-03 -9.76044915e-03  1.34378521e-03 -5.78400453e-03  1.55514516e-01
  9.06431715e-02 -1.67047399e-02  1.23864860e-01 -1.44460156e-02  4.25799720e-03
  4.48971760e-02 -4.41795345e-03 -6.22784285e-04 -9.99548588e-04 -4.58146837e-03
 -2.15273536e-03  7.78277341e-03  3.44305860e-03 -2.10886570e-01 -1.29203642e-01
 -4.28082324e-02  1.41136677e-01  6.98938654e-03 -1.81138169e-02  3.32673223e-02
  9.07144471e-04  1.61394183e-03  2.35417422e-03 -2.71649244e-03 -8.89670661e-03
  8.69163748e-03  6.35872701e-04  5.67902146e-02  5.58869670e-02  2.26372758e-01
  1.42228875e-01 -5.38408246e-02  1.00102770e-01  4.42701938e-02 -2.27863824e-02
  1.32660173e-03  2.73078935e-03 -1.28572622e-03 -1.18451712e-02  3.03138703e-03
  1.81817657e-01  3.70147304e-02 -7.44551725e-03 -2.34197869e-02  2.26784982e-03
 -1.25905315e-01 -2.74057888e-02  5.43406018e-03  1.25206634e-02 -5.11927088e-03
 -9.44461147e-02 -5.95295652e-03  6.48462368e-03 -9.33271327e-03  6.47900949e-03
 -1.67857104e-01 -3.20594460e-02 -9.41727029e-03 -1.46031687e-02  3.04525949e-04
  9.12914016e-02  1.95459517e-02  1.03134832e-02  2.88710379e-03 -1.81339464e-03
  5.98289602e-02  1.21061130e-02  4.92346830e-04 -6.58444820e-03  2.50186796e-03
  6.33080080e-03 -1.31768181e-01 -8.07910309e-02 -1.40894974e-01  3.01936395e-02
 -4.29423661e-02 -5.58312691e-02  1.41667188e-02 -1.35698929e-02 -3.21468176e-03
  3.26161658e-03 -1.44179498e-04  1.15169154e-02  2.70644514e-03 -4.52734944e-03
  2.11764147e-01  1.20002555e-01 -1.01527848e-01  5.98141023e-02 -4.08404902e-02
 -4.10553595e-02  1.14718193e-02 -1.16485503e-02  4.43974437e-03 -2.41786455e-03
 -4.40345195e-04 -1.82917244e-03  4.82038200e-05  2.02868637e-03 -8.22955944e-02
 -2.32930573e-02 -3.80164413e-03  1.80680882e-01 -1.89801773e-02  1.51346809e-03
  4.25717646e-02 -9.60041649e-03 -1.30457184e-03 -1.41177077e-03 -5.21033149e-03
 -3.66474941e-03  6.29311150e-03  2.56253265e-03 -1.01040108e-02 -1.36224829e-02
  1.60116535e-01 -1.72170639e-01 -3.92247791e-02  4.83811023e-02 -6.14231095e-02
 -1.16448307e-02 -2.15179297e-03 -2.77556646e-03  7.51088805e-04  1.07487597e-02
 -9.50133048e-03  1.20994542e-03  3.94879750e-02  6.15624700e-02 -1.94452573e-01
 -1.83071581e-01  3.89518820e-02 -7.57171450e-02 -7.40570640e-02  1.22515200e-02
  1.05673754e-03 -1.29155152e-03  6.10254114e-04  1.10241581e-02 -1.29777625e-03
 -1.91457010e-01 -4.72926378e-02  5.59924363e-03  1.19296014e-02 -5.41002844e-03
 -8.74164556e-02 -2.04755070e-02  1.17190917e-04  9.39970869e-03 -4.37039275e-03
 -1.68598584e-01 -3.63334826e-02  7.03952617e-03 -6.21742566e-03  1.08122854e-02
  3.29863759e-02  4.65457715e-03  3.76861763e-03  7.15253742e-04 -6.48695033e-04
 -4.73630601e-02 -1.10359767e-02 -5.82739231e-03  3.63436090e-03  4.66930116e-04
  1.90039152e-01  4.02715315e-02  9.54641868e-03 -1.32137080e-02  8.63729334e-03
 -8.24781024e-04  3.83343597e-02  4.36642999e-02  7.25466542e-02  1.39461483e-01
 -3.23021349e-02  1.34042069e-02  5.68913045e-02 -1.30825986e-02  2.48891349e-03
 -1.35594635e-03 -2.34655242e-03 -5.21648216e-04 -4.21979080e-03 -1.49797295e-04
 -3.17398942e-02 -2.29281438e-02 -9.19633603e-02  1.50190912e-01 -5.14898412e-02
 -5.40451164e-02  4.84992215e-02 -1.30472559e-02  1.05864251e-03 -1.83992714e-03
 -7.21652531e-04  7.44750502e-03  8.72943812e-03 -4.55721045e-03  3.59175868e-02