Generated by Psi4
        SP                           RHF                       CC-PVDZ
Number of atoms                            I               11
Charge                                     I                0
Multiplicity                               I                1
Number of electrons                        I               38
Number of alpha electrons                  I               19
Number of beta electrons                   I               19
Number of basis functions                  I              100
Number of independent functions            I              100
Atomic numbers                             I   N=          11
           6           6           6           6           8           1
           1           1           1           1           1
Nuclear charges                            R   N=          11
  6.00000000e+00  6.00000000e+00  6.00000000e+00  6.00000000e+00  8.00000000e+00
  1.00000000e+00  1.00000000e+00  1.00000000e+00  1.00000000e+00  1.00000000e+00
  1.00000000e+00
Current cartesian coordinates              R   N=          33
  1.97306960e+00  2.63881456e+00 -1.97923198e-01 -8.43798176e-01  2.39799300e+00
 -1.39411872e-01 -2.10371761e+00  1.91361338e-01  1.16284627e-01 -8.70683158e-01
 -2.31192613e+00  7.22237723e-02  1.39717346e+00 -2.71553828e+00  1.53556886e-01
  2.83677695e+00  1.05156939e+00 -1.22964272e+00  2.60681743e+00  4.44707539e+00
 -9.86281165e-01  2.71118564e+00  2.47958255e+00  1.74941113e+00 -2.22374802e+00
 -3.92862799e+00 -1.34734063e-01 -4.16824191e+00  1.88079885e-01  2.40597973e-01
 -1.96730780e+00  4.13668075e+00 -3.04356693e-01
Integer atomic weights                     I   N=          11
          12          12          12          12          16           1
           1           1           1           1           1
Real atomic weights                        R   N=          11
  1.20000000e+01  1.20000000e+01  1.20000000e+01  1.20000000e+01  1.59949146e+01
  1.00782503e+00  1.00782503e+00  1.00782503e+00  1.00782503e+00  1.00782503e+00
  1.00782503e+00
Number of primitive shells                 I              140
Number of contracted shells                I               48
Pure/Cartesian d shells                    I                0
Pure/Cartesian f shells                    I                0
Highest angular momentum                   I                2
Largest degree of contraction              I                8
Shell types                                I   N=          48
           0           0           0           1           1          -2
           0           0           0           1           1          -2
           0           0           0           1           1          -2
           0           0           0           1           1          -2
           0           0           0           1           1          -2
           0           0           1           0           0           1
           0           0           1           0           0           1
           0           0           1           0           0           1
Number of primitives per shell             I   N=          48
           8           8           1           3           1           1
           8           8           1           3           1           1
           8           8           1           3           1           1
           8           8           1           3           1           1
           8           8           1           3           1           1
           3           1           1           3           1           1
           3           1           1           3           1           1
           3           1           1           3           1           1
Shell to atom map                          I   N=          48
           1           1           1           1           1           1
           2           2           2           2           2           2
           3           3           3           3           3           3
           4           4           4           4           4           4
           5           5           5           5           5           5
           6           6           6           7           7           7
           8           8           8           9           9           9
          10          10          10          11          11          11
Primitive exponents                        R   N=         140
  6.66500000e+03  1.00000000e+03  2.28000000e+02  6.47100000e+01  2.10600000e+01
  7.49500000e+00  2.79700000e+00  5.21500000e-01  6.66500000e+03  1.00000000e+03
  2.28000000e+02  6.47100000e+01  2.10600000e+01  7.49500000e+00  2.79700000e+00
  5.21500000e-01  1.59600000e-01  9.43900000e+00  2.00200000e+00  5.45600000e-01
  1.51700000e-01  5.50000000e-01  6.66500000e+03  1.00000000e+03  2.28000000e+02
  6.47100000e+01  2.10600000e+01  7.49500000e+00  2.79700000e+00  5.21500000e-01
  6.66500000e+03  1.00000000e+03  2.28000000e+02  6.47100000e+01  2.10600000e+01
  7.49500000e+00  2.79700000e+00  5.21500000e-01  1.59600000e-01  9.43900000e+00
  2.00200000e+00  5.45600000e-01  1.51700000e-01  5.50000000e-01  6.66500000e+03
  1.00000000e+03  2.28000000e+02  6.47100000e+01  2.10600000e+01  7.49500000e+00
  2.79700000e+00  5.21500000e-01  6.66500000e+03  1.00000000e+03  2.28000000e+02
  6.47100000e+01  2.10600000e+01  7.49500000e+00  2.79700000e+00  5.21500000e-01
  1.59600000e-01  9.43900000e+00  2.00200000e+00  5.45600000e-01  1.51700000e-01
  5.50000000e-01  6.66500000e+03  1.00000000e+03  2.28000000e+02  6.47100000e+01
  2.10600000e+01  7.49500000e+00  2.79700000e+00  5.21500000e-01  6.66500000e+03
  1.00000000e+03  2.28000000e+02  6.47100000e+01  2.10600000e+01  7.49500000e+00
  2.79700000e+00  5.21500000e-01  1.59600000e-01  9.43900000e+00  2.00200000e+00
  5.45600000e-01  1.51700000e-01  5.50000000e-01  1.17200000e+04  1.75900000e+03
  4.00800000e+02  1.13700000e+02  3.70300000e+01  1.32700000e+01  5.02500000e+00
  1.01300000e+00  1.17200000e+04  1.75900000e+03  4.00800000e+02  1.13700000e+02
  3.70300000e+01  1.32700000e+01  5.02500000e+00  1.01300000e+00  3.02300000e-01
  1.77000000e+01  3.85400000e+00  1.04600000e+00  2.75300000e-01  1.18500000e+00
  1.30100000e+01  1.96200000e+00  4.44600000e-01  1.22000000e-01  7.27000000e-01
  1.30100000e+01  1.96200000e+00  4.44600000e-01  1.22000000e-01  7.27000000e-01
  1.30100000e+01  1.96200000e+00  4.44600000e-01  1.22000000e-01  7.27000000e-01
  1.30100000e+01  1.96200000e+00  4.44600000e-01  1.22000000e-01  7.27000000e-01
  1.30100000e+01  1.96200000e+00  4.44600000e-01  1.22000000e-01  7.27000000e-01
  1.30100000e+01  1.96200000e+00  4.44600000e-01  1.22000000e-01  7.27000000e-01
Contraction coefficients                   R   N=         140
  6.91583963e-04  5.32579615e-03  2.70607210e-02  1.01656846e-01  2.74574824e-01
  4.48294319e-01  2.84902611e-01  1.51948592e-02 -2.93269653e-04 -2.31803547e-03
 -1.14997860e-02 -4.68267270e-02 -1.28466169e-01 -3.01266272e-01 -2.55630702e-01
  1.09379336e+00  1.00000000e+00  5.69792516e-02  3.13207212e-01  7.60376742e-01
  1.00000000e+00  1.00000000e+00  6.91583963e-04  5.32579615e-03  2.70607210e-02
  1.01656846e-01  2.74574824e-01  4.48294319e-01  2.84902611e-01  1.51948592e-02
 -2.93269653e-04 -2.31803547e-03 -1.14997860e-02 -4.68267270e-02 -1.28466169e-01
 -3.01266272e-01 -2.55630702e-01  1.09379336e+00  1.00000000e+00  5.69792516e-02
  3.13207212e-01  7.60376742e-01  1.00000000e+00  1.00000000e+00  6.91583963e-04
  5.32579615e-03  2.70607210e-02  1.01656846e-01  2.74574824e-01  4.48294319e-01
  2.84902611e-01  1.51948592e-02 -2.93269653e-04 -2.31803547e-03 -1.14997860e-02
 -4.68267270e-02 -1.28466169e-01 -3.01266272e-01 -2.55630702e-01  1.09379336e+00
  1.00000000e+00  5.69792516e-02  3.13207212e-01  7.60376742e-01  1.00000000e+00
  1.00000000e+00  6.91583963e-04  5.32579615e-03  2.70607210e-02  1.01656846e-01
  2.74574824e-01  4.48294319e-01  2.84902611e-01  1.51948592e-02 -2.93269653e-04
 -2.31803547e-03 -1.14997860e-02 -4.68267270e-02 -1.28466169e-01 -3.01266272e-01
 -2.55630702e-01  1.09379336e+00  1.00000000e+00  5.69792516e-02  3.13207212e-01
  7.60376742e-01  1.00000000e+00  1.00000000e+00  7.09645947e-04  5.46727229e-03
  2.78231186e-02  1.04747740e-01  2.82920846e-01  4.48495239e-01  2.70816885e-01
  1.54502916e-02 -3.14443412e-04 -2.48213768e-03 -1.23163554e-02 -5.05389173e-02
 -1.39384903e-01 -3.25077495e-01 -2.29848308e-01  1.09537935e+00  1.00000000e+00
  6.26791663e-02  3.33536566e-01  7.41239642e-01  1.00000000e+00  1.00000000e+00
  3.34987264e-02  2.34800801e-01  8.13682958e-01  1.00000000e+00  1.00000000e+00
  3.34987264e-02  2.34800801e-01  8.13682958e-01  1.00000000e+00  1.00000000e+00
  3.34987264e-02  2.34800801e-01  8.13682958e-01  1.00000000e+00  1.00000000e+00
  3.34987264e-02  2.34800801e-01  8.13682958e-01  1.00000000e+00  1.00000000e+00
  3.34987264e-02  2.34800801e-01  8.13682958e-01  1.00000000e+00  1.00000000e+00
  3.34987264e-02  2.34800801e-01  8.13682958e-01  1.00000000e+00  1.00000000e+00
Coordinates of each shell                  R   N=         144
  1.97306960e+00  2.63881456e+00 -1.97923198e-01  1.97306960e+00  2.63881456e+00
 -1.97923198e-01  1.97306960e+00  2.63881456e+00 -1.97923198e-01  1.97306960e+00
  2.63881456e+00 -1.97923198e-01  1.97306960e+00  2.63881456e+00 -1.97923198e-01
  1.97306960e+00  2.63881456e+00 -1.97923198e-01 -8.43798176e-01  2.39799300e+00
 -1.39411872e-01 -8.43798176e-01  2.39799300e+00 -1.39411872e-01 -8.43798176e-01
  2.39799300e+00 -1.39411872e-01 -8.43798176e-01  2.39799300e+00 -1.39411872e-01
 -8.43798176e-01  2.39799300e+00 -1.39411872e-01 -8.43798176e-01  2.39799300e+00
 -1.39411872e-01 -2.10371761e+00  1.91361338e-01  1.16284627e-01 -2.10371761e+00
  1.91361338e-01  1.16284627e-01 -2.10371761e+00  1.91361338e-01  1.16284627e-01
 -2.10371761e+00  1.91361338e-01  1.16284627e-01 -2.10371761e+00  1.91361338e-01
  1.16284627e-01 -2.10371761e+00  1.91361338e-01  1.16284627e-01 -8.70683158e-01
 -2.31192613e+00  7.22237723e-02 -8.70683158e-01 -2.31192613e+00  7.22237723e-02
 -8.70683158e-01 -2.31192613e+00  7.22237723e-02 -8.70683158e-01 -2.31192613e+00
  7.22237723e-02 -8.70683158e-01 -2.31192613e+00  7.22237723e-02 -8.70683158e-01
 -2.31192613e+00  7.22237723e-02  1.39717346e+00 -2.71553828e+00  1.53556886e-01
  1.39717346e+00 -2.71553828e+00  1.53556886e-01  1.39717346e+00 -2.71553828e+00
  1.53556886e-01  1.39717346e+00 -2.71553828e+00  1.53556886e-01  1.39717346e+00
 -2.71553828e+00  1.53556886e-01  1.39717346e+00 -2.71553828e+00  1.53556886e-01
  2.83677695e+00  1.05156939e+00 -1.22964272e+00  2.83677695e+00  1.05156939e+00
 -1.22964272e+00  2.83677695e+00  1.05156939e+00 -1.22964272e+00  2.60681743e+00
  4.44707539e+00 -9.86281165e-01  2.60681743e+00  4.44707539e+00 -9.86281165e-01
  2.60681743e+00  4.44707539e+00 -9.86281165e-01  2.71118564e+00  2.47958255e+00
  1.74941113e+00  2.71118564e+00  2.47958255e+00  1.74941113e+00  2.71118564e+00
  2.47958255e+00  1.74941113e+00 -2.22374802e+00 -3.92862799e+00 -1.34734063e-01
 -2.22374802e+00 -3.92862799e+00 -1.34734063e-01 -2.22374802e+00 -3.92862799e+00
 -1.34734063e-01 -4.16824191e+00  1.88079885e-01  2.40597973e-01 -4.16824191e+00
  1.88079885e-01  2.40597973e-01 -4.16824191e+00  1.88079885e-01  2.40597973e-01
 -1.96730780e+00  4.13668075e+00 -3.04356693e-01 -1.96730780e+00  4.13668075e+00
 -3.04356693e-01 -1.96730780e+00  4.13668075e+00 -3.04356693e-01
Total Energy                               R     -2.312404532570235e+02
Alpha Orbital Energies                     R   N=         100
 -1.91354037e+01 -1.02732553e+01 -1.02232564e+01 -1.01975261e+01 -1.01899174e+01
 -1.03967029e+00 -8.10431757e-01 -7.16586825e-01 -6.28241115e-01 -5.33724679e-01
 -4.97331934e-01 -4.40139865e-01 -4.32310655e-01 -4.21591360e-01 -3.85295818e-01
 -3.78816513e-01 -3.75737224e-01 -2.74044082e-01 -2.49243738e-01 -6.50537100e-02
  5.16446713e-02  6.38500128e-02  8.96748373e-02  1.04903125e-01  1.29403808e-01
  1.45873826e-01  1.58172068e-01  2.16331203e-01  2.62341360e-01  3.22468016e-01
  3.39071873e-01  4.33142271e-01  4.37505405e-01  4.50467238e-01  4.73882362e-01
  4.85151161e-01  5.07075660e-01  5.26507914e-01  5.65184655e-01  5.99012929e-01
  6.15505694e-01  6.27067541e-01  6.38064833e-01  6.49463266e-01  6.69127554e-01
  6.84293951e-01  7.02722251e-01  7.69340745e-01  8.19108072e-01  8.51219523e-01
  9.12348782e-01  9.33851892e-01  9.58776892e-01  1.01230484e+00  1.02412448e+00
  1.04325864e+00  1.07999783e+00  1.14708332e+00  1.18467426e+00  1.19156871e+00
  1.29119899e+00  1.36187076e+00  1.39584424e+00  1.47166291e+00  1.48241763e+00
  1.49435327e+00  1.54707565e+00  1.56522014e+00  1.62057917e+00  1.62747466e+00
  1.65339046e+00  1.65984680e+00  1.66950737e+00  1.69214539e+00  1.73106740e+00
  1.75009938e+00  1.78418282e+00  1.80360339e+00  1.84931946e+00  1.92349278e+00
  1.96707561e+00  1.97070157e+00  2.01615361e+00  2.05988737e+00  2.10145681e+00
  2.23976205e+00  2.31389688e+00  2.33752407e+00  2.39910296e+00  2.41322347e+00
  2.42137577e+00  2.48620154e+00  2.57450279e+00  2.64763709e+00  2.69628242e+00
  2.78844163e+00  2.97792111e+00  3.06631238e+00  3.41917938e+00  3.47657959e+00
Alpha MO coefficients                      R   N=       10000
 -6.45813492e-05 -1.36719789e-04  4.62560274e-05  6.21455069e-05  4.07591501e-05
  1.36727007e-05 -2.33083087e-05 -1.03071193e-04  1.75117983e-04  6.62666565e-05
  3.47464079e-05  4.25001760e-05  7.14694550e-05 -1.00464844e-04 -2.09886310e-04
 -3.73818327e-04  5.47960708e-03 -1.99760910e-05 -1.75651955e-05 -4.76436280e-05
 -9.92806394e-04 -2.29182257e-03  4.05410231e-04 -3.36348860e-05  1.95530872e-05
 -1.48024416e-05 -5.38868653e-05 -5.19090645e-05  2.14732126e-04  3.31095386e-04
 -4.06360018e-03  3.06517612e-05  2.76151385e-04 -1.53389818e-05 -4.57537598e-03
 -3.56539559e-03  2.35772515e-04  1.38817377e-04  3.35775241e-05  7.83680914e-05
 -3.82541690e-04  4.98770985e-04  4.51293399e-04  5.90908900e-04  5.39571412e-03
 -1.02417477e-04 -1.75774287e-04 -2.48831965e-05  6.63958265e-03  5.95092071e-04
  2.02972105e-04 -1.88901279e-05 -8.90669949e-06  7.05052562e-05 -1.15492160e-03
  5.09270823e-04  1.00417112e+00  9.47402592e-03 -1.51286307e-02 -1.83762758e-03
  3.55192554e-04 -8.29423103e-05  3.51181177e-03 -8.39987163e-04  1.45015093e-04
 -1.93786296e-05  4.18795868e-06 -2.49220536e-06  6.72249829e-05  9.21216292e-06
 -1.09112119e-04 -1.00583996e-04  4.23585277e-05  9.05861664e-06  1.42585540e-05
  1.21107078e-04  3.47897103e-04 -7.19895680e-05 -7.28062949e-05  3.95954059e-05
 -9.29148898e-05 -2.51431820e-04  6.47681722e-05  5.87527309e-05  5.50897031e-05
 -1.38784121e-04  9.18102729e-04 -7.63850577e-04  1.15053111e-04 -1.48432340e-05
 -2.70548012e-04 -1.33848855e-03  1.88970804e-04  2.57443580e-04  3.33269394e-06
 -1.84240021e-04  2.37299885e-04  4.43771489e-05  8.48409188e-05 -2.33371921e-05
 -3.64707118e-04 -4.81721334e-04  9.14592295e-04  2.89852708e-04  6.75676927e-05
 -1.49261206e-06 -6.30731406e-04  9.47428328e-05  4.46031503e-05 -9.96240611e-06
 -5.28343647e-05  1.28231312e-05 -1.21458662e-04 -4.26790166e-05 -4.26032722e-04
 -6.26142465e-04  6.55367837e-03 -2.68716528e-04 -2.42622778e-05  3.96761545e-05
 -2.22193953e-03 -3.84218610e-03  4.97996043e-04 -4.08502379e-04 -1.58532863e-04
 -8.21802531e-05  3.09718175e-04  3.69536220e-04  1.59968793e-03 -2.40061088e-04
 -1.98982162e-03 -3.44289145e-04  7.46063363e-04  2.73803782e-05 -2.58912447e-03
 -6.06008565e-03  3.64874826e-04  1.03991465e-03 -1.62373523e-05  7.25020063e-06
  1.13352165e-03  8.55089423e-04  1.00592769e+00  1.52522932e-02 -1.07544840e-02
  7.40672934e-04 -4.88643482e-04 -5.23907391e-05  5.44449538e-03 -2.08413697e-03
  8.76161835e-05 -1.63186710e-03  2.38843636e-04  1.39707659e-04  8.53148687e-04
  1.13103014e-05  3.65421417e-04  9.09331272e-04 -5.95416805e-03  7.44282682e-04
 -2.13413158e-04  1.38673632e-05  3.40173527e-03 -2.12930390e-04  1.47409303e-04
  5.65521089e-04 -5.37692073e-05 -8.38850807e-06 -7.20228972e-04  2.58601905e-04
 -1.06151520e-04 -3.36800320e-05  4.92145722e-05  1.84190756e-05 -1.54022350e-05
 -4.86644627e-05  3.47487153e-04 -5.53524408e-05 -3.11992792e-05  4.91707968e-06
 -5.85695691e-05 -2.60432026e-05  9.88762328e-05  4.49002884e-05 -3.99755321e-05
 -1.65155407e-03  2.46760449e-03 -1.43124413e-03 -1.45185487e-03 -1.92308433e-04
 -5.16658138e-04 -4.81919724e-04  4.78697384e-05  3.12010185e-04 -2.62557055e-05
 -3.17783941e-05  6.10050510e-04  2.31473677e-04  1.03339943e-04 -2.67405307e-05
  3.11321350e-03 -4.21592827e-04  4.44420212e-03  7.19811863e-04  5.59691582e-05
  6.18800430e-05 -2.43510571e-03 -9.08308759e-04 -3.90929660e-04  7.96042572e-04
  7.87232305e-05  2.15804028e-05 -9.94413470e-04 -2.11772509e-05  1.00631623e+00
  1.61157606e-02 -2.01597970e-02 -5.15306668e-04  2.03573616e-04  2.35284703e-07
 -2.29507428e-03  3.85238379e-03 -3.25234738e-04 -1.05020399e-03  7.52603315e-05
 -2.38654612e-04 -5.50323403e-04 -3.68646965e-04  1.27761358e-02 -1.25530299e-03
  4.89202582e-03 -7.35027716e-04 -1.08106188e-03  1.39706621e-04  2.74392046e-03
  2.50970847e-03 -2.71284564e-04  8.71219180e-04  1.19127828e-04  2.49779383e-04
  5.22426444e-04 -9.65242409e-04 -2.67512464e-04 -5.34240706e-04  1.01249275e-03
 -2.35508687e-05 -2.11644948e-04  3.22104719e-05 -3.65630358e-04  1.00145715e-03
 -4.13832538e-05 -3.25670138e-04 -7.25893746e-05 -1.00458978e-05  1.72063214e-04
 -2.55738780e-05 -3.39414550e-05 -7.22764936e-05 -1.36198221e-04  1.20872501e-04
  1.06488465e-05  1.73882133e-05 -1.09494838e-04 -3.15014003e-04  1.96133270e-05
  1.13581412e-05 -2.27281449e-05  3.99582587e-06  1.64858947e-06  2.22314349e-05
 -4.37857814e-04  3.27280990e-04 -7.73803105e-05  9.87578826e-06  6.66258386e-05
 -3.06207367e-04  2.36292044e-04  1.21329396e-04  4.15466431e-05  7.19428099e-05
 -4.80373399e-04  1.17009022e-03 -1.61638981e-04  8.97065776e-06  2.20968053e-05
 -6.73846376e-05  3.53685834e-04  4.58103401e-05 -6.63675139e-05 -1.24734779e-05
  1.40351261e-04  9.50072765e-04  1.45113347e-04 -2.49505684e-04 -6.24513559e-07
 -2.40895721e-03  1.10696849e-03 -1.22776411e-03  1.79319436e-03 -1.63758795e-04
  1.23964472e-03  4.53784583e-04 -1.30885755e-04 -1.05600422e-04 -1.29361841e-04
  9.73301728e-05  8.09207383e-04  8.44349720e-06 -2.46937200e-04  3.04362150e-04
  3.15955539e-05  3.66358652e-05 -4.95823251e-05  1.46221623e-04  1.42540940e-02
  1.74771440e-03 -6.42239202e-03 -5.89626542e-04 -1.20328421e-03  1.42024108e-04
  6.21041229e-04  3.86796416e-03 -1.84885309e-04 -9.17576976e-04 -1.49322030e-04
 -2.47922660e-04 -5.79114705e-04  9.48523954e-04 -1.00648438e+00 -1.65448011e-02
  2.12539841e-02  3.33263427e-04 -2.70625670e-04  1.08076929e-04  5.40573688e-03
  3.07116779e-04 -6.99856506e-04  1.08048718e-03  1.71186737e-04  1.01189078e-04
 -4.36845996e-04 -4.42466660e-04  1.90811270e-03  7.77076182e-04 -5.73218422e-03
 -2.58111218e-04  7.11871018e-04  3.71126099e-05 -4.32851842e-04 -3.46067640e-03
  4.65873069e-05 -6.95301073e-04 -1.24979450e-04  2.52507250e-05 -5.82305666e-04
 -1.20940075e-03 -4.16792973e-05 -7.22212179e-05  8.16640700e-04 -2.15657918e-05
  6.69433276e-05  3.55316059e-05  1.13635002e-04  6.30959980e-04 -5.00311019e-05
  1.27584261e-04 -3.98441883e-05 -1.37847623e-05 -7.74329800e-05 -2.21983793e-04
  1.35601128e-04 -3.38082029e-04 -2.45858576e-05 -7.33084059e-05  5.53719577e-05
 -4.37219122e-05 -3.21867718e-04 -4.06009369e-05  5.50707052e-05  2.59486446e-05
  4.21426610e-05 -1.63762998e-04 -4.68343135e-05 -7.71267822e-05  1.34290785e-04
  2.80739580e-04 -9.72347870e-04 -7.03471737e-05  1.99686459e-04 -3.13719961e-05
  2.49042845e-03 -8.07627973e-04  2.16869697e-03 -1.19005238e-04 -8.69361740e-05
 -1.07943236e-04 -8.99491956e-04 -2.80188125e-04  3.61056635e-05 -2.63735466e-05
  1.00700503e+00  1.74687134e-02 -1.92564653e-02  4.34534948e-04  7.87853160e-05
  1.53193592e-04  2.86759732e-03  3.46688319e-04 -4.94969607e-04  2.17059352e-04
 -9.15980610e-06 -1.23170455e-04 -6.09162093e-04  3.63739468e-07 -3.31772775e-03
 -2.67932692e-04  1.66370649e-03 -4.92245485e-04  5.27928119e-05  3.69353526e-06
  4.19044636e-03  2.34814485e-03 -2.50837369e-04  6.29623986e-04  9.90321571e-05
 -6.41920127e-06 -1.33635167e-03 -4.40655994e-04  5.87902675e-04 -6.36025494e-04
  3.60366269e-03 -2.28691203e-04  5.19706237e-05 -1.33291908e-06  1.13332917e-03
  2.56278379e-03 -3.16043799e-04 -3.64685624e-04  2.38378920e-05 -8.81203334e-05
 -4.53621084e-04 -2.10755105e-04 -1.21747754e-04 -4.97945482e-04  4.40462889e-04
 -6.29043789e-05 -2.75228502e-04 -3.08189616e-05 -1.46252844e-04  5.00702588e-04
  1.06065548e-04 -3.42246275e-05 -2.53794786e-05 -2.12075058e-05  3.24787798e-05
  4.36935918e-05 -9.60104032e-05 -1.87932016e-04  2.84069342e-04  2.26388483e-05
 -1.18521763e-04 -1.71424905e-05 -1.96342623e-04  2.56990032e-04  5.08333111e-05
 -5.40608957e-05  1.53836471e-06  4.31959160e-06  1.45750427e-07 -1.86752494e-06
 -1.12927768e-03  1.99924410e-03  6.33863919e-04 -1.46381900e-03 -9.55514421e-04
 -1.47289879e-03  1.82348038e-03  5.59053355e-04  1.80805690e-03 -7.75142627e-04
 -1.07648861e-03  2.36121003e-03  5.03553556e-04 -1.71153857e-04  1.82425862e-03
  2.23696394e-05  3.97102850e-04  7.99702053e-06  6.49836678e-05 -1.26892781e-05
  3.64979562e-05  4.57622784e-04  6.92316270e-05 -1.93933693e-04  2.28998606e-05
 -4.09316004e-04  1.45448805e-04 -3.87096231e-04 -1.50987402e-04  2.16510163e-05
 -4.90562544e-04  7.56565854e-03  5.36232862e-03 -3.24805070e-03 -3.65711663e-03
 -5.51447786e-05 -2.90338156e-03 -1.74445291e-03  8.33280719e-04 -6.92996616e-04
 -1.46479910e-04 -1.72248611e-04  1.03208039e-04  8.85953850e-04  5.37844979e-04
  1.67554060e-02 -1.25232930e-02  2.55488051e-04 -1.05972924e-02  9.57654173e-04
 -2.00736630e-03  9.60326721e-03 -1.05468187e-03 -4.75471690e-04 -1.82579060e-04
 -4.00779667e-04 -1.51691125e-03  7.48229076e-04 -3.66988640e-03  3.60026976e-02
  3.19394379e-02  2.09799948e-02 -1.95286377e-02 -4.47612393e-04  2.00152813e-02
  1.88766037e-03 -1.43830436e-03 -3.77143672e-03 -2.36633694e-04 -2.26946870e-04
 -3.61080098e-04 -9.05318488e-03 -1.46464292e-02  2.24383169e-01  9.44700797e-02
  1.84575820e-01 -2.45134716e-02  6.59222960e-03  1.22150325e-02 -2.64622284e-03
  1.00057986e-03 -1.37463390e-02  1.43198033e-03 -1.35775217e-03  3.13395279e-02
 -1.35981810e-02 -9.18731866e-03  4.02273844e-01  3.60737024e-01 -1.55209022e-01
  3.09728522e-02 -6.11025770e-03 -3.17070390e-02  7.35709726e-03 -1.86651653e-03
 -5.34068363e-03  6.62114793e-04 -6.83450332e-04  1.21202645e-02 -4.97805295e-03
  6.67045434e-03  3.61081787e-03 -6.74230657e-04 -4.37604815e-04  6.63541347e-04
  1.06379318e-03 -3.37377803e-04  3.05774184e-05 -2.35238398e-05 -6.76601169e-05
  2.47997473e-03  8.43763472e-04 -3.11576300e-04 -3.14873615e-04 -5.24463051e-04
  3.96084717e-02 -3.45636905e-03  1.00845115e-02  5.99033458e-03  9.51736396e-04
  7.05049910e-03  6.12013855e-03  9.36376321e-04 -1.93307624e-03 -6.57701289e-05
  1.84316136e-03 -3.12334566e-03 -1.80714410e-04 -8.39093407e-04  1.16636417e-04
  1.11541582e-02 -1.80578163e-01 -7.46880538e-02  6.67905978e-02  1.30702444e-02
 -4.36928558e-03  2.68878005e-03 -8.58405026e-03  1.86801304e-03  5.74619920e-03
  5.95199774e-04 -7.02398604e-05 -1.00012958e-02 -3.20945822e-03  1.98841192e-02
 -2.90049605e-01 -2.03319103e-01 -3.33706676e-03  6.99963651e-02 -7.27610218e-03
 -3.18791062e-02  2.41799107e-02 -2.64062774e-03  1.00231510e-02  1.14988201e-03
  1.56878642e-03 -2.36057020e-03 -1.03375040e-02  1.71841657e-02 -2.54505223e-01
 -1.39490545e-01 -5.89888171e-02 -5.74677211e-02  1.16804221e-02 -2.60877859e-03
 -2.17707737e-02  3.07785805e-03  6.90651670e-03  1.28206562e-03  1.73739141e-03
  8.79876585e-03 -8.73432945e-03  2.54705389e-03 -6.43750317e-02 -5.13613677e-02
  7.16613410e-02 -8.03532145e-02  2.49652423e-03  2.41339665e-02 -2.26371266e-02
 -3.68909979e-04  2.71296376e-03  5.03527198e-04 -1.19183276e-04  1.34064469e-02
  3.16045327e-03 -3.40498744e-04  7.63868161e-02  7.33607621e-02 -1.19622359e-02
 -1.65891179e-02 -1.18013207e-05  1.33489740e-03 -7.13844880e-03  5.93706540e-04
  1.75836602e-04  2.98126836e-05  8.01794590e-05  1.67804937e-03  1.60992709e-03
 -6.69587148e-02 -2.64691317e-03  4.81007160e-03 -7.56760616e-03 -5.18402126e-03
 -6.09774732e-02 -1.17089612e-03  4.61567879e-03  8.34802153e-03 -3.55148243e-03
 -6.80664875e-02 -3.41883161e-03  4.44070444e-03 -4.17259586e-06  9.15008166e-03
 -1.86321999e-02  3.49621003e-04  3.03424912e-05 -3.47340567e-03 -8.31685829e-05
 -8.34520314e-02 -2.50110608e-03 -1.42170074e-02 -1.78045941e-03  1.05480634e-03
 -9.91664857e-02 -1.32669979e-02 -6.98445560e-03  1.38340883e-02 -1.27334578e-03
  1.43233793e-02 -2.85339001e-01 -1.20971065e-01  1.86851735e-02 -9.60018003e-03
 -3.91129666e-03 -1.63214302e-02 -7.34429158e-03 -5.62881375e-05  1.49952014e-03
 -4.09739406e-05 -1.47623517e-04 -2.96701747e-03  2.28826319e-03  5.39695386e-03
 -5.09464639e-02 -8.66831957e-02 -1.37740620e-01 -9.08222655e-02  9.13978009e-03
 -9.09886971e-02 -6.62715724e-03  2.09088601e-03  3.87734116e-03 -1.87793783e-04
 -9.19801724e-04 -1.75459261e-02  3.93116726e-03 -1.38288089e-02  2.27154481e-01
  1.67593492e-01 -6.26949322e-03 -5.87267247e-02 -2.74590210e-03  3.57965834e-02
 -3.82443280e-02 -1.16736559e-03 -4.58625858e-03 -6.62131576e-06  1.58910807e-04
 -9.75281522e-03 -5.79301660e-03 -3.10273734e-03  1.56429333e-01  6.68123107e-02
 -1.09470715e-01  7.52919081e-02 -1.61376216e-03 -3.82278901e-02  8.03040312e-03
 -1.48083215e-03 -1.66699390e-03 -4.40372833e-04  1.46959756e-04 -9.64545225e-03
 -5.84686996e-03 -2.46767124e-04 -8.36790494e-02 -8.36164727e-02 -2.08467674e-02
  7.62803997e-03  1.05069845e-03 -2.14111540e-02  2.06912587e-03 -1.40622607e-04
 -9.62098859e-04  9.89747534e-05  2.31133767e-04  1.15472193e-03 -2.00431467e-03
 -1.21727790e-01 -1.68946887e-02  6.83748814e-03 -1.28111727e-02 -8.24518754e-03
 -1.33881783e-01 -1.62404614e-02  5.64765298e-03  1.56300034e-02 -7.08941977e-03
 -1.29489271e-01 -1.61887292e-02  5.96524900e-03 -1.81756920e-03  1.61965249e-02
  7.37700967e-02  2.99729364e-03  3.63199156e-03  8.93002825e-03  9.00160294e-04
  1.15806773e-01  2.31287299e-02  1.46569961e-02 -1.19868277e-03 -9.29330011e-04
 -2.94351202e-02 -1.63669355e-02 -4.10323624e-03  8.39742164e-04 -6.47669664e-05
  5.56616078e-03 -1.78076144e-01 -9.78988709e-02 -7.47236914e-02 -4.36836931e-03
 -3.14863447e-03 -3.86704963e-02 -6.12931822e-03  6.23666494e-03 -4.95983420e-03
 -7.13974832e-04 -2.17266563e-04  7.38888833e-03  7.97794185e-04 -5.23171200e-03
  2.10792140e-01  1.00194965e-01 -1.41035756e-01 -1.42316915e-02  6.05798745e-03
 -4.31572072e-02  3.73319211e-04 -7.07214281e-04  2.73662106e-03 -1.12692841e-03
 -7.19289027e-04 -5.40532043e-03  3.68374293e-03 -1.40548364e-03  2.21122080e-03
  1.26101642e-02  8.13235119e-03  2.47277080e-01 -1.09544085e-02  5.48293284e-03
  7.61571337e-02 -2.64202651e-03  7.15157327e-04 -4.12579414e-04 -2.87992540e-03
  1.51550173e-03  1.13097630e-02  2.42315157e-03 -2.33578666e-01 -1.52749138e-01
  1.55248555e-01 -2.60031016e-02  6.14910115e-03  4.74382819e-02 -1.85147308e-02
  1.40085269e-03 -1.11636011e-03  9.05731344e-04 -4.64150498e-04  5.78926454e-03
  1.59997826e-03  1.00671437e-03  1.22372739e-01  1.42918876e-01  5.22977709e-02
 -1.01368135e-02  3.04813759e-03  3.98172255e-02 -6.39748319e-03  2.38920221e-03
  2.55293562e-03 -2.64670070e-04  1.66761795e-05 -2.30312765e-03  6.45931534e-04
 -1.01098281e-01 -7.74691831e-03  3.45745971e-03 -1.00930803e-02 -5.81524390e-03
 -1.04617106e-01 -1.61247530e-02  1.86763926e-03  1.06458173e-02 -5.10882034e-03
 -1.06908465e-01 -2.04740896e-02  3.12994707e-03 -9.71521521e-04  1.12810274e-02
 -1.58452780e-01 -2.85512662e-02 -7.97615616e-03 -1.41152401e-02 -1.60300639e-03
 -4.35973017e-03 -4.81943101e-04 -2.32986684e-04  4.97273788e-03 -2.14939794e-04
  1.47714094e-01  2.52879905e-02  6.77597211e-03 -1.49790305e-02  1.63463540e-03
  1.59139037e-03 -4.47743137e-02 -3.61995275e-02 -1.16489811e-01  8.92936376e-02
 -7.58192740e-03 -3.28520743e-02  3.72513872e-02 -5.36451138e-03 -5.22738324e-03
  4.88946276e-04 -1.59600319e-03  9.56110811e-03 -6.20281378e-03 -2.44835281e-03
  1.43880035e-01  1.01996982e-01  9.66068798e-04  2.22699943e-01 -2.56359552e-02
  2.70289156e-02  6.87409186e-02 -7.97112510e-03  3.97309484e-03  1.28328293e-03
  1.08788909e-03  6.95472544e-04 -6.51841664e-03  2.93144286e-03 -1.53744406e-01
 -1.07477604e-01 -1.51920638e-02 -1.51892813e-04 -6.85742921e-03 -2.06107502e-02
  3.05342872e-02 -5.37260826e-03 -3.92434841e-03  1.60060175e-04 -6.27234080e-04
 -1.33698898e-02  1.21227601e-03  7.42635988e-04  1.59359489e-01  1.22417694e-01
 -5.92306086e-02 -2.35792030e-01 -1.68485620e-02 -4.75889460e-02 -5.28273580e-02
 -3.95670123e-03  5.22416386e-03  4.47140274e-04 -8.04058047e-05 -1.87922389e-04
  1.13633125e-03  4.02307426e-04 -8.72745734e-02 -1.22544914e-01 -1.42863302e-01
 -1.09981695e-01 -8.79608216e-03 -8.40444107e-02 -6.07317888e-02 -4.96617563e-03
 -3.55750210e-03  1.19779685e-03  5.59777086e-04  8.96436515e-03  6.70013240e-03
 -1.08686971e-01 -3.54452644e-02  1.72846535e-03 -4.68555144e-03 -6.03180852e-03
  3.19470764e-03 -4.48160773e-03 -3.33856115e-03  2.16494245e-03 -5.43865008e-06
 -6.38053803e-02 -1.96031865e-02 -7.26393271e-04  2.41102538e-03  5.90661997e-03
  2.27594581e-01  5.95123888e-02  1.17450290e-02  1.26994155e-02  1.91490683e-03
 -8.53367829e-02 -3.08158291e-02 -8.71071296e-03 -8.25480619e-04  4.18916814e-04
  2.17479186e-01  6.49650795e-02  1.08217558e-02 -1.23079380e-02  1.09711456e-03
  2.68323242e-03 -4.89677195e-02 -4.90089907e-02 -1.47023302e-01 -9.86095127e-02
  6.13375723e-03 -3.35498113e-02 -4.15142082e-02 -2.62631989e-03 -5.18137485e-03
 -8.15378687e-04  2.14777326e-03  7.48324761e-03  4.44120125e-03  8.29787791e-04
  8.56080552e-02  5.54300541e-02  1.38263815e-01 -1.15591636e-01  2.17186767e-03
  8.42224544e-02 -3.12717555e-02 -1.52548259e-03  1.63842870e-03  1.65714259e-03
  6.13030138e-04 -9.81513188e-03 -1.07178706e-02  5.65068536e-03 -7.18594298e-02