Generated by Psi4
        SP                           RHF                       CC-PVDZ
Number of atoms                            I               11
Charge                                     I                0
Multiplicity                               I                1
Number of electrons                        I               38
Number of alpha electrons                  I               19
Number of beta electrons                   I               19
Number of basis functions                  I              100
Number of independent functions            I              100
Atomic numbers                             I   N=          11
           6           6           6           6           8           1
           1           1           1           1           1
Nuclear charges                            R   N=          11
  6.00000000e+00  6.00000000e+00  6.00000000e+00  6.00000000e+00  8.00000000e+00
  1.00000000e+00  1.00000000e+00  1.00000000e+00  1.00000000e+00  1.00000000e+00
  1.00000000e+00
Current cartesian coordinates              R   N=          33
  2.00826060e+00  2.68598602e+00 -2.09427614e-01 -8.05794236e-01  2.38454377e+00
 -1.20170501e-01 -2.09494618e+00  1.88220012e-01  4.67405983e-02 -9.07196184e-01
 -2.33131321e+00  7.05741833e-02  1.35680451e+00 -2.73976076e+00  2.00120503e-01
  2.91491922e+00  1.12994322e+00 -1.25918278e+00  2.55557111e+00  4.52813342e+00
 -1.00332546e+00  2.77447470e+00  2.56200621e+00  1.72630010e+00 -2.26607657e+00
 -3.95044317e+00 -6.84237904e-02 -4.16350418e+00  2.24621164e-01  1.28468627e-01
 -1.92042262e+00  4.13124461e+00 -1.72273009e-01
Integer atomic weights                     I   N=          11
          12          12          12          12          16           1
           1           1           1           1           1
Real atomic weights                        R   N=          11
  1.20000000e+01  1.20000000e+01  1.20000000e+01  1.20000000e+01  1.59949146e+01
  1.00782503e+00  1.00782503e+00  1.00782503e+00  1.00782503e+00  1.00782503e+00
  1.00782503e+00
Number of primitive shells                 I              140
Number of contracted shells                I               48
Pure/Cartesian d shells                    I                0
Pure/Cartesian f shells                    I                0
Highest angular momentum                   I                2
Largest degree of contraction              I                8
Shell types                                I   N=          48
           0           0           0           1           1          -2
           0           0           0           1           1          -2
           0           0           0           1           1          -2
           0           0           0           1           1          -2
           0           0           0           1           1          -2
           0           0           1           0           0           1
           0           0           1           0           0           1
           0           0           1           0           0           1
Number of primitives per shell             I   N=          48
           8           8           1           3           1           1
           8           8           1           3           1           1
           8           8           1           3           1           1
           8           8           1           3           1           1
           8           8           1           3           1           1
           3           1           1           3           1           1
           3           1           1           3           1           1
           3           1           1           3           1           1
Shell to atom map                          I   N=          48
           1           1           1           1           1           1
           2           2           2           2           2           2
           3           3           3           3           3           3
           4           4           4           4           4           4
           5           5           5           5           5           5
           6           6           6           7           7           7
           8           8           8           9           9           9
          10          10          10          11          11          11
Primitive exponents                        R   N=         140
  6.66500000e+03  1.00000000e+03  2.28000000e+02  6.47100000e+01  2.10600000e+01
  7.49500000e+00  2.79700000e+00  5.21500000e-01  6.66500000e+03  1.00000000e+03
  2.28000000e+02  6.47100000e+01  2.10600000e+01  7.49500000e+00  2.79700000e+00
  5.21500000e-01  1.59600000e-01  9.43900000e+00  2.00200000e+00  5.45600000e-01
  1.51700000e-01  5.50000000e-01  6.66500000e+03  1.00000000e+03  2.28000000e+02
  6.47100000e+01  2.10600000e+01  7.49500000e+00  2.79700000e+00  5.21500000e-01
  6.66500000e+03  1.00000000e+03  2.28000000e+02  6.47100000e+01  2.10600000e+01
  7.49500000e+00  2.79700000e+00  5.21500000e-01  1.59600000e-01  9.43900000e+00
  2.00200000e+00  5.45600000e-01  1.51700000e-01  5.50000000e-01  6.66500000e+03
  1.00000000e+03  2.28000000e+02  6.47100000e+01  2.10600000e+01  7.49500000e+00
  2.79700000e+00  5.21500000e-01  6.66500000e+03  1.00000000e+03  2.28000000e+02
  6.47100000e+01  2.10600000e+01  7.49500000e+00  2.79700000e+00  5.21500000e-01
  1.59600000e-01  9.43900000e+00  2.00200000e+00  5.45600000e-01  1.51700000e-01
  5.50000000e-01  6.66500000e+03  1.00000000e+03  2.28000000e+02  6.47100000e+01
  2.10600000e+01  7.49500000e+00  2.79700000e+00  5.21500000e-01  6.66500000e+03
  1.00000000e+03  2.28000000e+02  6.47100000e+01  2.10600000e+01  7.49500000e+00
  2.79700000e+00  5.21500000e-01  1.59600000e-01  9.43900000e+00  2.00200000e+00
  5.45600000e-01  1.51700000e-01  5.50000000e-01  1.17200000e+04  1.75900000e+03
  4.00800000e+02  1.13700000e+02  3.70300000e+01  1.32700000e+01  5.02500000e+00
  1.01300000e+00  1.17200000e+04  1.75900000e+03  4.00800000e+02  1.13700000e+02
  3.70300000e+01  1.32700000e+01  5.02500000e+00  1.01300000e+00  3.02300000e-01
  1.77000000e+01  3.85400000e+00  1.04600000e+00  2.75300000e-01  1.18500000e+00
  1.30100000e+01  1.96200000e+00  4.44600000e-01  1.22000000e-01  7.27000000e-01
  1.30100000e+01  1.96200000e+00  4.44600000e-01  1.22000000e-01  7.27000000e-01
  1.30100000e+01  1.96200000e+00  4.44600000e-01  1.22000000e-01  7.27000000e-01
  1.30100000e+01  1.96200000e+00  4.44600000e-01  1.22000000e-01  7.27000000e-01
  1.30100000e+01  1.96200000e+00  4.44600000e-01  1.22000000e-01  7.27000000e-01
  1.30100000e+01  1.96200000e+00  4.44600000e-01  1.22000000e-01  7.27000000e-01
Contraction coefficients                   R   N=         140
  6.91583963e-04  5.32579615e-03  2.70607210e-02  1.01656846e-01  2.74574824e-01
  4.48294319e-01  2.84902611e-01  1.51948592e-02 -2.93269653e-04 -2.31803547e-03
 -1.14997860e-02 -4.68267270e-02 -1.28466169e-01 -3.01266272e-01 -2.55630702e-01
  1.09379336e+00  1.00000000e+00  5.69792516e-02  3.13207212e-01  7.60376742e-01
  1.00000000e+00  1.00000000e+00  6.91583963e-04  5.32579615e-03  2.70607210e-02
  1.01656846e-01  2.74574824e-01  4.48294319e-01  2.84902611e-01  1.51948592e-02
 -2.93269653e-04 -2.31803547e-03 -1.14997860e-02 -4.68267270e-02 -1.28466169e-01
 -3.01266272e-01 -2.55630702e-01  1.09379336e+00  1.00000000e+00  5.69792516e-02
  3.13207212e-01  7.60376742e-01  1.00000000e+00  1.00000000e+00  6.91583963e-04
  5.32579615e-03  2.70607210e-02  1.01656846e-01  2.74574824e-01  4.48294319e-01
  2.84902611e-01  1.51948592e-02 -2.93269653e-04 -2.31803547e-03 -1.14997860e-02
 -4.68267270e-02 -1.28466169e-01 -3.01266272e-01 -2.55630702e-01  1.09379336e+00
  1.00000000e+00  5.69792516e-02  3.13207212e-01  7.60376742e-01  1.00000000e+00
  1.00000000e+00  6.91583963e-04  5.32579615e-03  2.70607210e-02  1.01656846e-01
  2.74574824e-01  4.48294319e-01  2.84902611e-01  1.51948592e-02 -2.93269653e-04
 -2.31803547e-03 -1.14997860e-02 -4.68267270e-02 -1.28466169e-01 -3.01266272e-01
 -2.55630702e-01  1.09379336e+00  1.00000000e+00  5.69792516e-02  3.13207212e-01
  7.60376742e-01  1.00000000e+00  1.00000000e+00  7.09645947e-04  5.46727229e-03
  2.78231186e-02  1.04747740e-01  2.82920846e-01  4.48495239e-01  2.70816885e-01
  1.54502916e-02 -3.14443412e-04 -2.48213768e-03 -1.23163554e-02 -5.05389173e-02
 -1.39384903e-01 -3.25077495e-01 -2.29848308e-01  1.09537935e+00  1.00000000e+00
  6.26791663e-02  3.33536566e-01  7.41239642e-01  1.00000000e+00  1.00000000e+00
  3.34987264e-02  2.34800801e-01  8.13682958e-01  1.00000000e+00  1.00000000e+00
  3.34987264e-02  2.34800801e-01  8.13682958e-01  1.00000000e+00  1.00000000e+00
  3.34987264e-02  2.34800801e-01  8.13682958e-01  1.00000000e+00  1.00000000e+00
  3.34987264e-02  2.34800801e-01  8.13682958e-01  1.00000000e+00  1.00000000e+00
  3.34987264e-02  2.34800801e-01  8.13682958e-01  1.00000000e+00  1.00000000e+00
  3.34987264e-02  2.34800801e-01  8.13682958e-01  1.00000000e+00  1.00000000e+00
Coordinates of each shell                  R   N=         144
  2.00826060e+00  2.68598602e+00 -2.09427614e-01  2.00826060e+00  2.68598602e+00
 -2.09427614e-01  2.00826060e+00  2.68598602e+00 -2.09427614e-01  2.00826060e+00
  2.68598602e+00 -2.09427614e-01  2.00826060e+00  2.68598602e+00 -2.09427614e-01
  2.00826060e+00  2.68598602e+00 -2.09427614e-01 -8.05794236e-01  2.38454377e+00
 -1.20170501e-01 -8.05794236e-01  2.38454377e+00 -1.20170501e-01 -8.05794236e-01
  2.38454377e+00 -1.20170501e-01 -8.05794236e-01  2.38454377e+00 -1.20170501e-01
 -8.05794236e-01  2.38454377e+00 -1.20170501e-01 -8.05794236e-01  2.38454377e+00
 -1.20170501e-01 -2.09494618e+00  1.88220012e-01  4.67405983e-02 -2.09494618e+00
  1.88220012e-01  4.67405983e-02 -2.09494618e+00  1.88220012e-01  4.67405983e-02
 -2.09494618e+00  1.88220012e-01  4.67405983e-02 -2.09494618e+00  1.88220012e-01
  4.67405983e-02 -2.09494618e+00  1.88220012e-01  4.67405983e-02 -9.07196184e-01
 -2.33131321e+00  7.05741833e-02 -9.07196184e-01 -2.33131321e+00  7.05741833e-02
 -9.07196184e-01 -2.33131321e+00  7.05741833e-02 -9.07196184e-01 -2.33131321e+00
  7.05741833e-02 -9.07196184e-01 -2.33131321e+00  7.05741833e-02 -9.07196184e-01
 -2.33131321e+00  7.05741833e-02  1.35680451e+00 -2.73976076e+00  2.00120503e-01
  1.35680451e+00 -2.73976076e+00  2.00120503e-01  1.35680451e+00 -2.73976076e+00
  2.00120503e-01  1.35680451e+00 -2.73976076e+00  2.00120503e-01  1.35680451e+00
 -2.73976076e+00  2.00120503e-01  1.35680451e+00 -2.73976076e+00  2.00120503e-01
  2.91491922e+00  1.12994322e+00 -1.25918278e+00  2.91491922e+00  1.12994322e+00
 -1.25918278e+00  2.91491922e+00  1.12994322e+00 -1.25918278e+00  2.55557111e+00
  4.52813342e+00 -1.00332546e+00  2.55557111e+00  4.52813342e+00 -1.00332546e+00
  2.55557111e+00  4.52813342e+00 -1.00332546e+00  2.77447470e+00  2.56200621e+00
  1.72630010e+00  2.77447470e+00  2.56200621e+00  1.72630010e+00  2.77447470e+00
  2.56200621e+00  1.72630010e+00 -2.26607657e+00 -3.95044317e+00 -6.84237904e-02
 -2.26607657e+00 -3.95044317e+00 -6.84237904e-02 -2.26607657e+00 -3.95044317e+00
 -6.84237904e-02 -4.16350418e+00  2.24621164e-01  1.28468627e-01 -4.16350418e+00
  2.24621164e-01  1.28468627e-01 -4.16350418e+00  2.24621164e-01  1.28468627e-01
 -1.92042262e+00  4.13124461e+00 -1.72273009e-01 -1.92042262e+00  4.13124461e+00
 -1.72273009e-01 -1.92042262e+00  4.13124461e+00 -1.72273009e-01
Total Energy                               R     -2.312414567953105e+02
Alpha Orbital Energies                     R   N=         100
 -1.91347121e+01 -1.02726809e+01 -1.02227426e+01 -1.01973749e+01 -1.01918222e+01
 -1.03921341e+00 -8.09462914e-01 -7.17509596e-01 -6.28701068e-01 -5.33190970e-01
 -4.96466209e-01 -4.41499898e-01 -4.31486689e-01 -4.21455195e-01 -3.85969298e-01
 -3.78880086e-01 -3.74567171e-01 -2.73925566e-01 -2.49546148e-01 -6.53119747e-02
  5.48458467e-02  6.25212039e-02  8.86665868e-02  1.04701485e-01  1.29505935e-01
  1.45921132e-01  1.55508413e-01  2.16377110e-01  2.60657757e-01  3.23744389e-01
  3.40359740e-01  4.30760706e-01  4.38434248e-01  4.52022571e-01  4.76189913e-01
  4.84280136e-01  5.07659396e-01  5.26170507e-01  5.62576339e-01  6.02737673e-01
  6.14257598e-01  6.26688884e-01  6.36663595e-01  6.49347827e-01  6.63716178e-01
  6.84886526e-01  7.01304575e-01  7.66764751e-01  8.26768891e-01  8.53773443e-01
  9.12010059e-01  9.36875190e-01  9.72095027e-01  9.96919392e-01  1.02160272e+00
  1.03699344e+00  1.07827379e+00  1.15348722e+00  1.18385811e+00  1.19584967e+00
  1.29833719e+00  1.36461340e+00  1.39032587e+00  1.45504873e+00  1.47608720e+00
  1.49468664e+00  1.54740721e+00  1.56487619e+00  1.61822845e+00  1.62407041e+00
  1.65009219e+00  1.66191435e+00  1.66965734e+00  1.68966545e+00  1.73058476e+00
  1.75202622e+00  1.78710405e+00  1.80336040e+00  1.84763665e+00  1.92021523e+00
  1.96038975e+00  1.97525997e+00  2.01327125e+00  2.06259570e+00  2.10918323e+00
  2.22987927e+00  2.31282820e+00  2.33377322e+00  2.39810337e+00  2.41347586e+00
  2.42285696e+00  2.48589775e+00  2.57528834e+00  2.64998086e+00  2.69572267e+00
  2.78862987e+00  2.97011644e+00  3.06631727e+00  3.42089326e+00  3.48119170e+00
Alpha MO coefficients                      R   N=       10000
 -5.25987345e-05 -1.15002359e-04  1.51407433e-05  6.37586626e-05  3.04186501e-05
  1.55644563e-05 -1.50746504e-05  9.48730284e-06  1.86159274e-04  5.69331371e-05
  3.07039835e-05  5.30392989e-05  6.35446939e-05 -1.04001054e-04 -2.22776983e-04
 -3.96225980e-04  5.75704727e-03 -2.04828413e-05 -1.30710714e-05 -3.11060123e-05
 -1.09129191e-03 -2.50292861e-03  2.71782690e-04 -3.98182494e-05  2.63148817e-07
 -4.91930937e-06 -4.79977490e-05 -4.01230983e-05  2.21151156e-04  3.39384244e-04
 -4.48982964e-03  1.87985769e-05  2.90933635e-04 -1.70778123e-05 -4.75143201e-03
 -3.59555686e-03  1.17402244e-04  1.44204480e-04  8.21432035e-06  6.52284257e-05
 -3.40575056e-04  5.08617308e-04  4.41915113e-04  5.76385121e-04  5.50536754e-03
 -1.08285250e-04 -1.73046089e-04 -1.36500801e-05  6.66240858e-03  6.72740310e-04
  3.15156654e-04 -4.01017215e-05 -3.96709781e-05  4.34074571e-05 -1.15893725e-03
  5.16286364e-04  1.00417111e+00  9.47339555e-03 -1.51523103e-02 -1.83316265e-03
  3.55210326e-04 -1.21852318e-04  3.50694719e-03 -8.48581321e-04  2.22358864e-04
 -2.03211257e-05  7.17547796e-06 -8.02324140e-07  6.67310117e-05  8.76965820e-06
 -9.35759540e-05 -5.21672164e-05  5.18357767e-05  3.20820771e-05  1.52484604e-07
  1.11981308e-04  3.08401558e-04 -6.81812560e-05 -7.84682340e-05  3.22050288e-05
 -7.17948276e-05 -2.45235722e-04  6.05397324e-05  4.56716906e-05  4.80856170e-05
 -1.40353311e-04  9.52335851e-04 -7.64585509e-04  1.12389941e-04 -3.39340097e-05
 -2.68509644e-04 -1.35296241e-03  1.89056798e-04  2.59898909e-04  9.07637229e-06
 -1.76730821e-04  2.74102172e-04  5.48411080e-05  8.74958337e-05 -1.59071618e-05
 -3.43001672e-04 -4.43911873e-04  8.53784967e-04  2.95967114e-04  5.93681914e-05
 -5.97238896e-06 -5.86840742e-04  2.36587290e-04  8.59880239e-05  1.02399254e-05
 -2.64786836e-05  2.62118830e-05 -1.25828006e-04 -7.13094956e-05 -4.29702949e-04
 -6.35376162e-04  6.92800523e-03 -2.69118264e-04 -2.41388871e-05  2.21612396e-05
 -2.33907200e-03 -4.07171945e-03  3.31460320e-04 -4.36255415e-04 -1.04279912e-04
 -6.08604229e-05  3.27748976e-04  3.78663147e-04  1.64387571e-03 -2.37952611e-04
 -2.37956145e-03 -3.44625614e-04  7.54331639e-04  6.33004358e-07 -2.78128966e-03
 -6.21501293e-03  2.79896957e-04  1.05885161e-03 -3.76946090e-05  4.51136813e-05
  1.15542276e-03  8.25547884e-04  1.00592994e+00  1.52607007e-02 -1.07750870e-02
  7.29726396e-04 -4.86140995e-04  1.78219229e-05  5.44909890e-03 -2.06711662e-03
  1.99106564e-04 -1.64354311e-03  2.61582618e-04  5.66254797e-05  8.07368427e-04
  3.12899808e-05  3.66521475e-04  9.13271065e-04 -5.94562535e-03  7.36019449e-04
 -2.16368632e-04  3.12187214e-05  3.38843648e-03 -2.19111560e-04  2.25939584e-04
  5.61159413e-04 -9.30026618e-05  7.56902152e-06 -7.10569098e-04  2.61234374e-04
 -8.57628136e-05  3.22433901e-05  7.04992683e-05  2.73387919e-05 -1.65839550e-05
 -4.47725535e-05  2.87940133e-04 -5.82654394e-05 -4.19764710e-05  1.91886506e-07
 -5.23187955e-05 -5.12824235e-05  8.99346375e-05  2.93733448e-05 -2.87070051e-05
 -1.65962427e-03  2.48936729e-03 -1.45020115e-03 -1.45482036e-03 -1.31153326e-04
 -4.87824558e-04 -4.77163874e-04  6.60208347e-05  3.24350373e-04 -2.06745370e-05
 -3.44190521e-05  6.51457694e-04  2.36930575e-04  1.08963148e-04 -1.70419074e-05
  3.28458405e-03 -4.42343377e-04  4.37672373e-03  7.36209853e-04  8.14265949e-05
  5.93101242e-05 -2.34141226e-03 -1.04157816e-03 -4.65490166e-04  7.91840038e-04
  1.06019474e-04  7.43741715e-07 -1.02471666e-03 -7.11166904e-06  1.00629489e+00
  1.60872701e-02 -1.98730624e-02 -5.44009379e-04  2.32224050e-04  2.75634386e-05
 -2.19606277e-03  3.64367123e-03 -7.61120262e-05 -1.08384022e-03  2.11122858e-05
 -1.05092840e-04 -5.37674107e-04 -2.64601408e-04  1.30173964e-02 -1.29098016e-03
  4.71467094e-03 -7.70609942e-04 -1.09994289e-03  1.01077062e-04  2.68753725e-03
  2.35711829e-03 -2.36175678e-04  8.86036500e-04  9.05283371e-05  1.63786880e-04
  5.53764598e-04 -9.75630343e-04 -2.65260246e-04 -5.19896917e-04  1.01743847e-03
 -3.74005208e-05 -2.08807713e-04  1.93156641e-05 -2.23347916e-04  1.03315342e-03
 -1.75560547e-06 -3.38862602e-04 -3.11255969e-05 -9.01608698e-06  1.86119823e-04
 -7.48627424e-05 -3.40098448e-05 -7.39520199e-05 -2.13705081e-04  1.23922146e-04
  1.04323583e-06  1.81885475e-05 -6.76120206e-05 -2.73428744e-04  4.75492235e-06
  1.03097021e-05 -1.74910200e-05  4.04100688e-06 -7.42354431e-06  1.59501912e-05
 -4.34679646e-04  1.86627858e-04 -4.43884944e-05  2.45922289e-05  7.05673775e-05
 -3.40902208e-04  2.70779541e-04  8.99568042e-05  7.27878749e-05  6.60522016e-05
 -4.76288431e-04  1.19824149e-03 -1.46843436e-04  1.39433970e-05  1.93538818e-05
 -3.32258027e-05  4.03775904e-04  5.19483083e-05 -5.72346504e-05 -8.96151539e-06
  1.11549508e-04  9.29430258e-04  1.29924536e-04 -2.36163446e-04  8.42791566e-06
 -2.36507376e-03  1.18656304e-03 -1.21374504e-03  1.78568082e-03 -4.47888816e-05
  1.55012659e-03  4.11215450e-04 -1.01801954e-05 -9.01057220e-05 -1.18328618e-04
  8.53543564e-05  7.20712996e-04 -1.36597461e-04 -1.59560557e-04  3.09672423e-04
  5.74473895e-05 -4.01513697e-06 -7.45866297e-05  2.00038662e-04  1.45378092e-02
  1.79234349e-03 -6.75308831e-03 -6.04860011e-04 -1.20880516e-03  9.29179567e-05
  5.77423685e-04  4.11922731e-03 -1.61368694e-04 -9.29195459e-04 -8.43529131e-05
 -1.45982547e-04 -5.30375880e-04  1.00665889e-03 -1.00648596e+00 -1.65551219e-02
  2.15325145e-02  3.16561892e-04 -2.91099839e-04  5.42148316e-05  5.57441506e-03
  3.35957631e-04 -3.59083551e-04  1.08474452e-03  1.17952982e-04  7.97380388e-05
 -3.94213213e-04 -3.99776745e-04  1.96408744e-03  8.06530749e-04 -5.80374692e-03
 -2.59830746e-04  7.40758828e-04  1.30870743e-05 -6.05904294e-04 -3.52117148e-03
  4.65020549e-05 -6.96959955e-04 -6.47535632e-05 -3.44405474e-05 -6.22121725e-04
 -1.19411918e-03 -4.26363339e-05 -7.36923424e-05  8.97972789e-04 -2.72556906e-05
  7.23245530e-05  2.72946015e-05  9.94400813e-05  6.05917405e-04 -4.90137914e-05
  1.31118255e-04 -3.62084962e-05 -1.60900723e-05 -7.16490250e-05 -2.18288081e-04
  1.52413095e-04 -3.66426922e-04 -2.64891221e-05 -5.12535221e-05  5.60597282e-05
 -4.96561784e-05 -2.39261983e-04 -3.56383321e-05  6.59826264e-05  1.72746025e-05
 -1.93424860e-05 -1.39476301e-04 -5.03187363e-05 -6.71374563e-05  1.36709205e-04
  2.49103407e-04 -1.00371559e-03 -8.04519893e-05  2.03551228e-04 -2.73327117e-05
  2.45766737e-03 -7.70317046e-04  2.14568972e-03 -1.55243740e-04 -6.67579742e-05
 -1.05213450e-04 -9.88979406e-04 -2.67361034e-04  3.24106734e-05 -2.58874584e-07
  1.00698043e+00  1.74136201e-02 -1.94237989e-02  4.35166263e-04  1.18105776e-04
  1.70280140e-04  2.94710129e-03  2.70321022e-04 -5.34889671e-04  2.33654860e-04
  2.68421342e-05 -9.91841183e-05 -6.01967974e-04 -9.53919066e-05 -3.52022744e-03
 -2.96145370e-04  1.84719797e-03 -4.90907598e-04  5.82606223e-05  1.65564598e-05
  4.45169086e-03  2.32177568e-03 -1.92532090e-04  6.12323575e-04  1.16842418e-04
  1.33539112e-05 -1.33925782e-03 -5.36845806e-04  9.61484006e-04 -5.61567995e-04
  3.48245800e-03 -2.02875806e-04  7.92758118e-05  5.94562942e-06  9.55517185e-04
  2.62763470e-03 -2.18407179e-04 -3.49971667e-04  1.50970855e-05 -4.81452639e-05
 -5.34525939e-04 -2.09151304e-04 -1.09509419e-04 -4.75839134e-04  6.02471123e-04
 -4.28003760e-05 -2.74568494e-04 -1.65219393e-05 -1.25588990e-04  5.21007086e-04
  6.39734126e-05 -2.07849140e-05 -2.27721587e-05 -5.54981535e-06  3.66323925e-05
  3.86156693e-05 -8.20868797e-05 -1.62562560e-04  2.08577242e-04  1.23032989e-05
 -1.19166879e-04 -1.20347462e-05 -1.35957317e-04  2.44908662e-04  4.15356033e-05
 -4.77460771e-05  1.95387908e-06  2.16797890e-06  5.23145334e-07 -1.29211116e-06
 -1.15250817e-03  1.92628066e-03  6.68572159e-04 -1.44128855e-03 -9.77405508e-04
 -1.38428202e-03  1.87959371e-03  4.76027581e-04  1.80591492e-03 -7.60349707e-04
 -1.10754492e-03  2.36072463e-03  5.38043373e-04 -1.28198987e-04  1.82775972e-03
  1.69922397e-05  3.89061123e-04  6.47745902e-06  6.80147763e-05 -9.31594216e-06
  5.04101342e-05  3.86355221e-04  9.02974883e-05 -2.01758445e-04  1.44251681e-05
 -4.31593979e-04  2.25203015e-04 -3.74678761e-04 -1.22404284e-04  1.93127110e-05
 -4.89047284e-04  6.78660086e-03  5.64268285e-03 -3.13916385e-03 -3.27134876e-03
 -3.43832229e-05 -3.03458393e-03 -2.33588845e-03  9.23639096e-04 -6.50037241e-04
 -1.84997240e-04 -2.02288857e-04  1.52859074e-04  9.16141118e-04  5.64742023e-04
  1.67715196e-02 -1.29310011e-02 -4.18029972e-05 -1.06793510e-02  7.12257555e-04
 -2.14851059e-03  9.90717888e-03 -7.43863139e-04 -4.69868059e-04 -1.39281559e-04
 -3.12658215e-04 -1.63311685e-03  7.38539480e-04 -3.65279851e-03  3.68542672e-02
  3.27850757e-02  2.11073586e-02 -2.03726928e-02  4.70423049e-04  2.01663653e-02
  1.42637021e-03 -6.09190449e-04 -3.81137995e-03  8.36847584e-05 -4.66149531e-04
 -8.55495111e-04 -9.06945976e-03 -1.46421109e-02  2.24851746e-01  9.42616245e-02
  1.84448521e-01 -2.47414028e-02  1.05109214e-02  1.22000742e-02 -2.92464511e-03
  1.08611573e-03 -1.35327342e-02  2.85244188e-03 -1.16185534e-03  3.12113552e-02
 -1.37530771e-02 -9.16308516e-03  4.02077881e-01  3.60212800e-01 -1.55190885e-01
  3.11928636e-02 -9.33788054e-03 -3.16782403e-02  7.18566963e-03 -2.39097780e-03
 -5.26238593e-03  1.17215963e-03 -5.68929416e-04  1.21324299e-02 -5.03381661e-03
  5.48772891e-03  3.12518344e-03 -6.50511112e-04 -4.83046204e-04  6.14238514e-04
  1.00460238e-03 -6.65593795e-05  2.87860444e-05  3.06448809e-06 -5.03351098e-05
  2.07179726e-03  8.65239004e-04 -2.86684624e-04 -2.38407512e-04 -4.74830043e-04
  3.96920076e-02 -3.53796256e-03  1.01148881e-02  6.01666514e-03  7.82088892e-04
  7.17207995e-03  6.04695610e-03  9.59741022e-04 -1.93853665e-03 -3.66455014e-05
  1.82443658e-03 -3.24064291e-03 -2.13874188e-04 -8.38988911e-04  8.45503274e-05
  1.09519107e-02 -1.80290179e-01 -7.47687564e-02  6.58811904e-02  1.30449110e-02
 -4.85468871e-03  2.92682099e-03 -8.57076580e-03  1.38608733e-03  5.65048211e-03
  7.42043207e-04 -2.05440432e-05 -9.86924249e-03 -3.49689095e-03  1.98392777e-02
 -2.91043355e-01 -2.01629890e-01 -9.22276995e-04  6.72335212e-02 -4.37154833e-03
 -3.22356335e-02  2.20449094e-02 -8.95998130e-04  9.97062373e-03  9.30315641e-04
  1.10365491e-03 -2.55851815e-03 -1.10741906e-02  1.71513239e-02 -2.54791588e-01
 -1.41461049e-01 -5.87435483e-02 -5.73789111e-02  6.93863185e-03 -2.85798271e-03
 -2.34929849e-02  1.87572084e-03  6.93713853e-03  8.57335543e-04  1.17424980e-03
  8.76799405e-03 -9.05161832e-03  2.48415558e-03 -6.42144433e-02 -5.16981888e-02
  7.03770778e-02 -8.07224002e-02  4.41938591e-03  2.50032112e-02 -2.25209565e-02
  7.93194474e-04  2.66846345e-03  6.21485332e-04  1.62032810e-04  1.36097644e-02
  2.85532341e-03 -3.43373181e-04  7.61061257e-02  7.26779250e-02 -1.16386708e-02
 -1.65276850e-02 -1.79960725e-04  1.56379692e-03 -6.92136018e-03  5.84713926e-04
  1.83441722e-04  5.53981059e-05  1.47588656e-04  1.63174268e-03  1.61244764e-03
 -6.61769788e-02 -3.06036616e-03  4.95187344e-03 -7.29584118e-03 -5.21487561e-03
 -6.18262373e-02 -1.29068644e-03  4.24772377e-03  8.57785858e-03 -3.64131220e-03
 -6.79054646e-02 -3.50903690e-03  4.58652721e-03  1.50894954e-04  9.06642637e-03
 -1.80607814e-02  8.13194478e-04  6.94865636e-05 -3.39516756e-03  1.06900126e-06
 -8.41225059e-02 -2.44761413e-03 -1.43552343e-02 -1.53184166e-03  7.03042518e-04
 -1.01447715e-01 -1.30259817e-02 -7.05791076e-03  1.41913661e-02 -4.49334293e-04
  1.40429602e-02 -2.86724212e-01 -1.20453128e-01  1.96590308e-02 -1.01771888e-02
 -5.09492112e-03 -1.71013968e-02 -8.35413615e-03  3.74328572e-04  1.48419282e-03
  9.77213570e-05 -1.75621728e-04 -3.11086182e-03  2.22130944e-03  5.37163965e-03
 -5.01047368e-02 -8.58425670e-02 -1.38475483e-01 -9.37597047e-02  7.57075399e-03
 -9.29888943e-02 -8.20770272e-03  2.54101902e-03  3.86239855e-03  2.32334009e-04
 -5.75855915e-04 -1.72434228e-02  3.34533152e-03 -1.39039659e-02  2.27621053e-01
  1.66639801e-01 -5.72620174e-03 -5.64588893e-02 -1.98700922e-04  3.61957122e-02
 -4.01120115e-02 -2.92217134e-04 -4.73880540e-03  9.58088277e-05 -1.82474950e-04
 -9.92971607e-03 -5.23916658e-03 -3.09882340e-03  1.53333096e-01  6.31091112e-02
 -1.07854397e-01  7.78882014e-02 -4.20200772e-03 -3.76528039e-02  7.91608228e-03
 -1.72697134e-03 -1.66097560e-03 -5.31745431e-04 -3.46069331e-05 -1.00491308e-02
 -5.35306581e-03 -2.57229970e-04 -8.43776573e-02 -8.38674852e-02 -1.91559340e-02
  9.30058379e-03  5.77653152e-04 -2.08725783e-02  2.96199512e-03 -5.48195898e-04
 -9.70143279e-04  1.36640265e-04  1.17683222e-04  9.84759757e-04 -2.02984646e-03
 -1.20747357e-01 -1.67179270e-02  7.13758394e-03 -1.25064587e-02 -8.38236519e-03
 -1.33964976e-01 -1.58679634e-02  4.97349964e-03  1.58360511e-02 -7.18340837e-03
 -1.30705274e-01 -1.61347841e-02  6.31479979e-03 -1.57801963e-03  1.61890688e-02
  7.11396006e-02  2.65483051e-03  3.49414737e-03  8.69505070e-03  5.04276732e-04
  1.14965584e-01  2.31841565e-02  1.45867561e-02 -1.38408434e-03 -5.74669614e-04
 -3.02936471e-02 -1.65339245e-02 -4.20258697e-03  9.38548625e-04  1.36334596e-04
  5.36339044e-03 -1.76912401e-01 -9.74352142e-02 -7.38238835e-02 -6.13139421e-03
 -2.98032395e-03 -3.83437974e-02 -6.64055101e-03  6.49777026e-03 -4.92912894e-03
 -8.32966111e-04 -1.82769890e-04  7.27147505e-03  9.38513322e-04 -5.26546135e-03
  2.09176123e-01  9.82658872e-02 -1.40238380e-01 -1.51182480e-02  5.73538368e-03
 -4.21346323e-02 -7.11182549e-04 -4.22298670e-04  2.59970046e-03 -5.77561458e-04
 -4.24732842e-04 -5.10849866e-03  3.16017778e-03 -1.36877869e-03  4.16912100e-05
  1.11201962e-02  1.26339873e-02  2.48720687e-01 -8.80911043e-03  7.32988492e-03
  7.63912933e-02 -1.84699235e-03  5.37245817e-04 -2.73423157e-04 -1.45275682e-03
  1.85283947e-03  1.13157589e-02  2.39628524e-03 -2.36125972e-01 -1.53882907e-01
  1.55742951e-01 -2.76356608e-02  8.15313959e-03  4.82170140e-02 -1.85953052e-02
  2.57952036e-03 -1.12558532e-03  9.21168836e-04 -1.83120653e-04  5.99663200e-03
  1.94980564e-03  9.70653698e-04  1.23133111e-01  1.43742093e-01  5.32857608e-02
 -9.51943041e-03  3.59926334e-03  4.02957153e-02 -6.02394548e-03  2.91556659e-03
  2.56092889e-03 -3.58420104e-04  8.81338667e-05 -2.37447793e-03  7.19078938e-04
 -1.00571324e-01 -8.14759439e-03  3.66554440e-03 -9.79930109e-03 -5.93363902e-03
 -1.02416480e-01 -1.58498219e-02  1.31748328e-03  1.04538412e-02 -5.02215918e-03
 -1.06778588e-01 -2.04068540e-02  3.27286965e-03 -8.30920242e-04  1.12079551e-02
 -1.59349914e-01 -2.84146302e-02 -8.16966541e-03 -1.42760418e-02 -9.96576997e-04
 -5.07694357e-03 -2.47015589e-04 -2.01281855e-04  5.02478803e-03 -1.82440208e-04
  1.46033695e-01  2.52190675e-02  6.59553074e-03 -1.48494928e-02  6.77461555e-04
  1.60088106e-03 -4.89993984e-02 -3.74340880e-02 -1.21349427e-01  8.50897522e-02
 -3.61306756e-03 -3.61694434e-02  3.57991712e-02 -3.17800065e-03 -5.44289180e-03
 -1.54092240e-04 -1.55516128e-03  9.81410700e-03 -5.87175874e-03 -2.18904966e-03
  1.42830945e-01  9.61005846e-02  1.18488429e-04  2.23590772e-01 -1.41143793e-02
  2.44840241e-02  7.06492392e-02 -5.10925247e-03  4.18293416e-03  7.48093680e-04
  7.33311472e-04  1.84628973e-04 -6.82966800e-03  2.72760595e-03 -1.52726897e-01
 -1.03487319e-01 -1.87007972e-02  2.43029259e-03 -4.01969286e-03 -1.89111857e-02
  3.14654285e-02 -3.02205515e-03 -4.19834949e-03  9.81030066e-05 -4.28564963e-04
 -1.33981314e-02  1.57177790e-03  5.49276134e-04  1.57648842e-01  1.20531262e-01
 -6.31880521e-02 -2.38585526e-01 -8.47281151e-03 -4.86804284e-02 -5.41270434e-02
 -3.24380514e-03  5.28766874e-03  7.84246056e-05 -4.58285452e-06 -4.34592655e-05
  1.28356286e-03  2.59462632e-04 -8.63766677e-02 -1.19659317e-01 -1.39566050e-01
 -1.10169574e-01 -7.23869897e-03 -8.27970809e-02 -6.06253544e-02 -4.03597085e-03
 -3.51927650e-03  1.10855541e-03  6.80229037e-04  8.82401410e-03  6.84192446e-03
 -1.10454117e-01 -3.48970423e-02  1.88924848e-03 -4.96712544e-03 -6.18317491e-03
  8.62533260e-04 -4.87230865e-03 -3.49326645e-03  2.30667882e-03 -4.70857279e-05
 -6.49805623e-02 -2.02443027e-02 -7.18671178e-04  2.32160504e-03  6.04892488e-03
  2.29655248e-01  6.01569035e-02  1.18402733e-02  1.28181989e-02  1.32473453e-03
 -8.17409571e-02 -2.92412838e-02 -8.53734527e-03 -5.70443802e-04  2.75405412e-04
  2.17164616e-01  6.38998355e-02  1.07689511e-02 -1.22610235e-02  2.15749106e-04
  2.98550730e-03 -4.68817695e-02 -5.26719132e-02 -1.45387376e-01 -9.78489158e-02
  4.96815979e-03 -3.17887872e-02 -3.97962110e-02 -3.79358174e-03 -5.18987027e-03
 -1.10334265e-03  2.01003252e-03  7.59118131e-03  4.63955584e-03  8.11480162e-04
  8.89363297e-02  5.52459795e-02  1.39753145e-01 -1.10642091e-01 -8.96159495e-04
  8.96823669e-02 -2.69180999e-02 -1.66792644e-03  1.86159397e-03  1.15520861e-03
  4.22586219e-04 -9.79158582e-03 -1.05195368e-02  5.52417524e-03 -7.23246826e-02