[Molden Format]
[Atoms] (AU)
C    1    6           1.9415087478         2.6093789821        -0.1596704241
C    2    6          -0.8748647278         2.4164719598        -0.1499724630
C    3    6          -2.1038786892         0.1999911924         0.1959276369
C    4    6          -0.8404313855        -2.2932015291         0.0683963512
O    5    8           1.4284484071        -2.7122536264         0.0851411766
H    6    1           2.7350674490         1.0093809041        -1.2461208766
H    7    1           2.6796556712         4.3335317264        -1.0036189748
H    8    1           2.6323382329         2.4151726975         1.7795292794
H    9    1          -2.1782293400        -3.9006756660        -0.2073495559
H   10    1          -4.1760296963         0.1311218056         0.3217187493
H   11    1          -2.0062670972         4.1384525395        -0.4558065139
[GTO]
  1 0
 s    8  1.00
     6665.0000000000         0.0006920000
     1000.0000000000         0.0053290000
      228.0000000000         0.0270770000
       64.7100000000         0.1017180000
       21.0600000000         0.2747400000
        7.4950000000         0.4485640000
        2.7970000000         0.2850740000
        0.5215000000         0.0152040000
 s    8  1.00
     6665.0000000000        -0.0001460000
     1000.0000000000        -0.0011540000
      228.0000000000        -0.0057250000
       64.7100000000        -0.0233120000
       21.0600000000        -0.0639550000
        7.4950000000        -0.1499810000
        2.7970000000        -0.1272620000
        0.5215000000         0.5445290000
 s    1  1.00
        0.1596000000         1.0000000000
 p    3  1.00
        9.4390000000         0.0381090000
        2.0020000000         0.2094800000
        0.5456000000         0.5085570000
 p    1  1.00
        0.1517000000         1.0000000000
 d    1  1.00
        0.5500000000         1.0000000000

  2 0
 s    8  1.00
     6665.0000000000         0.0006920000
     1000.0000000000         0.0053290000
      228.0000000000         0.0270770000
       64.7100000000         0.1017180000
       21.0600000000         0.2747400000
        7.4950000000         0.4485640000
        2.7970000000         0.2850740000
        0.5215000000         0.0152040000
 s    8  1.00
     6665.0000000000        -0.0001460000
     1000.0000000000        -0.0011540000
      228.0000000000        -0.0057250000
       64.7100000000        -0.0233120000
       21.0600000000        -0.0639550000
        7.4950000000        -0.1499810000
        2.7970000000        -0.1272620000
        0.5215000000         0.5445290000
 s    1  1.00
        0.1596000000         1.0000000000
 p    3  1.00
        9.4390000000         0.0381090000
        2.0020000000         0.2094800000
        0.5456000000         0.5085570000
 p    1  1.00
        0.1517000000         1.0000000000
 d    1  1.00
        0.5500000000         1.0000000000

  3 0
 s    8  1.00
     6665.0000000000         0.0006920000
     1000.0000000000         0.0053290000
      228.0000000000         0.0270770000
       64.7100000000         0.1017180000
       21.0600000000         0.2747400000
        7.4950000000         0.4485640000
        2.7970000000         0.2850740000
        0.5215000000         0.0152040000
 s    8  1.00
     6665.0000000000        -0.0001460000
     1000.0000000000        -0.0011540000
      228.0000000000        -0.0057250000
       64.7100000000        -0.0233120000
       21.0600000000        -0.0639550000
        7.4950000000        -0.1499810000
        2.7970000000        -0.1272620000
        0.5215000000         0.5445290000
 s    1  1.00
        0.1596000000         1.0000000000
 p    3  1.00
        9.4390000000         0.0381090000
        2.0020000000         0.2094800000
        0.5456000000         0.5085570000
 p    1  1.00
        0.1517000000         1.0000000000
 d    1  1.00
        0.5500000000         1.0000000000

  4 0
 s    8  1.00
     6665.0000000000         0.0006920000
     1000.0000000000         0.0053290000
      228.0000000000         0.0270770000
       64.7100000000         0.1017180000
       21.0600000000         0.2747400000
        7.4950000000         0.4485640000
        2.7970000000         0.2850740000
        0.5215000000         0.0152040000
 s    8  1.00
     6665.0000000000        -0.0001460000
     1000.0000000000        -0.0011540000
      228.0000000000        -0.0057250000
       64.7100000000        -0.0233120000
       21.0600000000        -0.0639550000
        7.4950000000        -0.1499810000
        2.7970000000        -0.1272620000
        0.5215000000         0.5445290000
 s    1  1.00
        0.1596000000         1.0000000000
 p    3  1.00
        9.4390000000         0.0381090000
        2.0020000000         0.2094800000
        0.5456000000         0.5085570000
 p    1  1.00
        0.1517000000         1.0000000000
 d    1  1.00
        0.5500000000         1.0000000000

  5 0
 s    8  1.00
    11720.0000000000         0.0007100000
     1759.0000000000         0.0054700000
      400.8000000000         0.0278370000
      113.7000000000         0.1048000000
       37.0300000000         0.2830620000
       13.2700000000         0.4487190000
        5.0250000000         0.2709520000
        1.0130000000         0.0154580000
 s    8  1.00
    11720.0000000000        -0.0001600000
     1759.0000000000        -0.0012630000
      400.8000000000        -0.0062670000
      113.7000000000        -0.0257160000
       37.0300000000        -0.0709240000
       13.2700000000        -0.1654110000
        5.0250000000        -0.1169550000
        1.0130000000         0.5573680000
 s    1  1.00
        0.3023000000         1.0000000000
 p    3  1.00
       17.7000000000         0.0430180000
        3.8540000000         0.2289130000
        1.0460000000         0.5087280000
 p    1  1.00
        0.2753000000         1.0000000000
 d    1  1.00
        1.1850000000         1.0000000000

  6 0
 s    3  1.00
       13.0100000000         0.0196850000
        1.9620000000         0.1379770000
        0.4446000000         0.4781480000
 s    1  1.00
        0.1220000000         1.0000000000
 p    1  1.00
        0.7270000000         1.0000000000

  7 0
 s    3  1.00
       13.0100000000         0.0196850000
        1.9620000000         0.1379770000
        0.4446000000         0.4781480000
 s    1  1.00
        0.1220000000         1.0000000000
 p    1  1.00
        0.7270000000         1.0000000000

  8 0
 s    3  1.00
       13.0100000000         0.0196850000
        1.9620000000         0.1379770000
        0.4446000000         0.4781480000
 s    1  1.00
        0.1220000000         1.0000000000
 p    1  1.00
        0.7270000000         1.0000000000

  9 0
 s    3  1.00
       13.0100000000         0.0196850000
        1.9620000000         0.1379770000
        0.4446000000         0.4781480000
 s    1  1.00
        0.1220000000         1.0000000000
 p    1  1.00
        0.7270000000         1.0000000000

  10 0
 s    3  1.00
       13.0100000000         0.0196850000
        1.9620000000         0.1379770000
        0.4446000000         0.4781480000
 s    1  1.00
        0.1220000000         1.0000000000
 p    1  1.00
        0.7270000000         1.0000000000

  11 0
 s    3  1.00
       13.0100000000         0.0196850000
        1.9620000000         0.1379770000
        0.4446000000         0.4781480000
 s    1  1.00
        0.1220000000         1.0000000000
 p    1  1.00
        0.7270000000         1.0000000000

[5D7F]
[9G]

[MO]
 Sym= A
 Ene=        -1.9135121770e+01
 Spin= Alpha
 Occup=         2.0000000000e+00
  1        -7.5060648407e-05
  2        -1.5506968474e-04
  3         7.5081769088e-05
  4         6.3209193801e-05
  5         4.7889957040e-05
  6         1.4021455725e-05
  7        -4.1949930347e-05
  8        -1.7535126205e-04
  9         1.4670957145e-04
 10         7.3811272290e-05
 11         4.0577915336e-05
 12         3.3937746967e-05
 13         6.8723840390e-05
 14        -9.2983298816e-05
 15        -1.9662336200e-04
 16        -3.5020347707e-04
 17         5.1937653675e-03
 18        -2.1750137977e-05
 19        -2.2619617695e-05
 20        -6.4769609873e-05
 21        -8.7588412210e-04
 22        -2.1165719829e-03
 23         5.4092719989e-04
 24        -2.9985786345e-05
 25         4.3632376919e-05
 26        -2.6171875258e-05
 27        -5.3346694757e-05
 28        -5.7857782014e-05
 29         2.0769271089e-04
 30         3.2282761835e-04
 31        -3.5982794484e-03
 32         3.9133251756e-05
 33         2.6182137311e-04
 34        -6.9281714108e-06
 35        -4.3611509013e-03
 36        -3.5649824164e-03
 37         3.1738153562e-04
 38         1.2751388111e-04
 39         6.3694163133e-05
 40         9.3713862554e-05
 41        -4.1347466820e-04
 42         4.8094666703e-04
 43         4.5955194467e-04
 44         6.0433346431e-04
 45         5.2272849528e-03
 46        -9.3592302458e-05
 47        -1.8652679432e-04
 48        -3.6627329485e-05
 49         6.5729913383e-03
 50         3.8409862946e-04
 51         4.7986390682e-05
 52         2.2514545866e-07
 53         3.1105661803e-05
 54         1.0228498925e-04
 55        -1.1391595997e-03
 56         5.2359766742e-04
 57         1.0041631284e+00
 58         9.4586653370e-03
 59        -1.5056300925e-02
 60        -1.8358776845e-03
 61         3.6962650977e-04
 62        -2.9428644376e-05
 63         3.5030212633e-03
 64        -8.4279023822e-04
 65         4.0664878591e-05
 66        -1.7475831476e-05
 67        -1.1069423103e-07
 68        -4.6479216759e-06
 69         6.5998242020e-05
 70         6.6123794517e-06
 71        -1.1916552974e-04
 72        -1.4905256661e-04
 73         4.2115487417e-05
 74        -1.3439434273e-05
 75         2.6223992621e-05
 76         1.1855583463e-04
 77         3.6170477095e-04
 78        -7.1957349984e-05
 79        -5.9817916672e-05
 80         4.8324738008e-05
 81        -1.1063841491e-04
 82        -2.3678126595e-04
 83         6.5544746654e-05
 84         6.4048711857e-05
 85         5.8955517194e-05
 86        -1.8008606397e-04
 87         8.4678805356e-04
 88        -7.6178086046e-04
 89         1.0932752336e-04
 90         6.4985995122e-06
 91        -2.9157623621e-04
 92        -1.2845867993e-03
 93         1.7890301326e-04
 94         2.4581817261e-04
 95        -4.2951128254e-06
 96        -1.7929292878e-04
 97         2.2465606266e-04
 98         3.6203898799e-05
 99         8.1334772205e-05
100        -3.2093231346e-05
 Sym= A
 Ene=        -1.0273123233e+01
 Spin= Alpha
 Occup=         2.0000000000e+00
  1        -3.7482666583e-04
  2        -5.0334831104e-04
  3         9.0789854359e-04
  4         2.7996718350e-04
  5         7.3142173465e-05
  6         1.9328443173e-07
  7        -6.7607666864e-04
  8         7.4110029212e-07
  9         3.9217797554e-06
 10        -2.8046385950e-05
 11        -8.5689568291e-05
 12         1.1314923812e-06
 13        -1.1058925533e-04
 14        -1.9410770002e-05
 15        -4.2943404780e-04
 16        -6.2184511624e-04
 17         6.1697058082e-03
 18        -2.6718050193e-04
 19        -2.1857911253e-05
 20         5.5340365767e-05
 21        -2.0487600103e-03
 22        -3.6414050393e-03
 23         6.4994824864e-04
 24        -3.7633344387e-04
 25        -2.1175990560e-04
 26        -9.8951211709e-05
 27         2.8261889383e-04
 28         3.5565322956e-04
 29         1.5850023029e-03
 30        -2.4155983036e-04
 31        -1.6356060949e-03
 32        -3.4415725344e-04
 33         7.4319299740e-04
 34         5.9258508433e-05
 35        -2.4412115670e-03
 36        -5.8419056535e-03
 37         4.1319567583e-04
 38         1.0164602735e-03
 39         1.8409165704e-05
 40        -3.9029011428e-05
 41         1.1155569086e-03
 42         8.7254951306e-04
 43         1.0059288663e+00
 44         1.5252023393e-02
 45        -1.0724692272e-02
 46         7.2340346948e-04
 47        -5.2025126653e-04
 48        -1.3769071770e-04
 49         5.3625045938e-03
 50        -2.1187417979e-03
 51        -5.1825446865e-05
 52        -1.6159304781e-03
 53         1.9024304862e-04
 54         2.3580839539e-04
 55         8.5581535007e-04
 56        -2.0116114897e-05
 57         3.6440204018e-04
 58         9.0306180844e-04
 59        -5.8973422791e-03
 60         7.4349628963e-04
 61        -2.1264816875e-04
 62        -9.0777694671e-06
 63         3.3853031924e-03
 64        -2.2764164037e-04
 65         4.4824771705e-05
 66         5.6695413716e-04
 67        -2.9957665971e-06
 68        -2.6725336875e-05
 69        -7.2467058397e-04
 70         2.6125148539e-04
 71        -1.1980184221e-04
 72        -5.7744115038e-05
 73         2.2106575887e-05
 74        -7.8009289770e-07
 75        -7.8157018779e-06
 76        -5.0822589529e-05
 77         3.7946258308e-04
 78        -4.8392928475e-05
 79        -2.0641203786e-05
 80         1.0986698927e-05
 81        -6.1671874952e-05
 82         1.8664353838e-05
 83         1.0888336042e-04
 84         5.4972512661e-05
 85        -5.5944168304e-05
 86        -1.6941323145e-03
 87         2.4596110786e-03
 88        -1.4262223314e-03
 89        -1.4445255931e-03
 90        -2.5651271262e-04
 91        -5.5944878120e-04
 92        -4.8261244180e-04
 93         2.5180033690e-05
 94         2.6703874220e-04
 95        -3.1553922065e-05
 96        -1.6640368791e-05
 97         5.8410074331e-04
 98         2.2399935619e-04
 99         9.5811316776e-05
100        -3.4804966970e-05
 Sym= A
 Ene=        -1.0224411436e+01
 Spin= Alpha
 Occup=         2.0000000000e+00
  1         2.8952467417e-03
  2        -3.8302419339e-04
  3         4.4064835783e-03
  4         7.1133477856e-04
  5         2.9225996353e-05
  6         6.2302703345e-05
  7        -2.5206796581e-03
  8        -7.2038795357e-04
  9        -3.2628740752e-04
 10         8.1846142174e-04
 11         3.4152158939e-05
 12         3.1568910199e-05
 13        -9.5681231382e-04
 14        -5.7526241646e-05
 15         1.0063307327e+00
 16         1.6134860178e-02
 17        -2.0383925190e-02
 18        -4.7719394545e-04
 19         1.5729748410e-04
 20        -3.6584198803e-05
 21        -2.3733954443e-03
 22         3.9838223772e-03
 23        -6.1460854398e-04
 24        -9.9864427432e-04
 25         1.5395683861e-04
 26        -3.9841668832e-04
 27        -5.5769307561e-04
 28        -4.6726566301e-04
 29         1.2740572427e-02
 30        -1.1884840540e-03
 31         4.8775708650e-03
 32        -6.9998382083e-04
 33        -1.0627736036e-03
 34         1.7167655936e-04
 35         2.7153828825e-03
 36         2.7486039580e-03
 37        -2.8375080965e-04
 38         8.5998843235e-04
 39         1.4079755753e-04
 40         3.2909140461e-04
 41         4.9760977835e-04
 42        -9.6623108596e-04
 43        -2.7305501384e-04
 44        -5.6174198321e-04
 45         1.1685230143e-03
 46        -8.6232783219e-06
 47        -2.1233077309e-04
 48         4.2383867667e-05
 49        -5.4626974098e-04
 50         1.0449892030e-03
 51        -7.9364537098e-05
 52        -3.1358106356e-04
 53        -1.1398845634e-04
 54        -1.2851953112e-05
 55         1.5963840493e-04
 56         1.6512594314e-05
 57        -3.2827374255e-05
 58        -6.8676622833e-05
 59        -6.8604303608e-05
 60         1.1939154196e-04
 61         2.1398170604e-05
 62         1.2930547629e-05
 63        -1.4523425941e-04
 64        -3.6977671950e-04
 65         4.5980516420e-05
 66         1.3512812856e-05
 67        -2.7716691216e-05
 68         4.1434581059e-06
 69         9.1854208954e-06
 70         3.0097648743e-05
 71        -4.3240892570e-04
 72         5.4668357997e-04
 73        -1.4694859843e-04
 74        -2.4155437608e-05
 75         6.4278176606e-05
 76        -2.6916294767e-04
 77         1.8765216094e-04
 78         1.5860008517e-04
 79         9.5026442136e-06
 80         9.7460375809e-05
 81        -4.8038104743e-04
 82         1.1543900293e-03
 83        -1.7188190406e-04
 84         1.9533773265e-06
 85         1.8766659710e-05
 86        -1.0529248067e-04
 87         2.9862226004e-04
 88         4.5986127902e-05
 89        -7.8986728779e-05
 90        -1.7141558646e-05
 91         1.7704773033e-04
 92         9.4122698659e-04
 93         1.6183592024e-04
 94        -2.7061772416e-04
 95         3.3279937013e-07
 96        -2.4388306892e-03
 97         1.0388734406e-03
 98        -1.2389576401e-03
 99         1.7878144029e-03
100        -3.2028142541e-04
 Sym= A
 Ene=        -1.0198938121e+01
 Spin= Alpha
 Occup=         2.0000000000e+00
  1         9.6641655739e-04
  2         5.0567386185e-04
  3        -3.2032877060e-04
  4        -1.1301087597e-04
  5        -1.4521032168e-04
  6         1.0634924730e-04
  7         9.7772709966e-04
  8         1.4810688477e-04
  9        -3.7695686135e-04
 10         2.9523153362e-04
 11         2.7900244520e-06
 12         8.5499291456e-05
 13        -3.9916980350e-05
 14         8.2990839180e-05
 15         1.4152021910e-02
 16         1.6966812830e-03
 17        -5.9960607797e-03
 18        -5.7600785825e-04
 19        -1.2010981592e-03
 20         1.9365999649e-04
 21         7.6355466291e-04
 22         3.5931093502e-03
 23        -1.5794438619e-04
 24        -8.9454487691e-04
 25        -2.0819384391e-04
 26        -3.7295309080e-04
 27        -6.3016773813e-04
 28         8.9129021065e-04
 29        -1.0064612267e+00
 30        -1.6487812930e-02
 31         2.1026233413e-02
 32         3.1646839133e-04
 33        -2.3829193952e-04
 34         2.0343830311e-04
 35         5.1832700036e-03
 36         2.4963793445e-04
 37        -1.0762240515e-03
 38         1.0675773406e-03
 39         1.7174515948e-04
 40         1.1903772705e-04
 41        -4.5147107733e-04
 42        -5.4585217444e-04
 43         1.8799356217e-03
 44         7.4534252037e-04
 45        -5.6598685627e-03
 46        -2.4680145301e-04
 47         6.7264086673e-04
 48         6.3416945262e-05
 49        -2.4214809805e-04
 50        -3.4487992331e-03
 51         4.4079968796e-05
 52        -6.8206692076e-04
 53        -1.9073538758e-04
 54         1.0265553231e-04
 55        -5.3417335306e-04
 56        -1.2222007607e-03
 57        -4.1394600995e-05
 58        -7.2482944162e-05
 59         7.0052236042e-04
 60        -8.5574405715e-06
 61         5.8297105076e-05
 62         4.2811173353e-05
 63         1.4144018917e-04
 64         6.7186877047e-04
 65        -5.0302211580e-05
 66         1.2455166602e-04
 67        -4.1490539926e-05
 68        -9.3259879962e-06
 69        -9.2597252057e-05
 70        -2.2630977580e-04
 71         9.5251989131e-05
 72        -3.3317130638e-04
 73        -2.0538995613e-05
 74        -1.0698377229e-04
 75         4.1741636763e-05
 76        -4.8433106098e-05
 77        -4.1589578665e-04
 78        -4.8897971208e-05
 79         5.0128998173e-05
 80         3.4736177837e-05
 81         1.1009334884e-04
 82        -1.9581311155e-04
 83        -4.0348673440e-05
 84        -8.5310460164e-05
 85         1.3418759249e-04
 86         3.1622809455e-04
 87        -9.5771942799e-04
 88        -6.6324006325e-05
 89         2.0226927760e-04
 90        -3.2773775464e-05
 91         2.4427297292e-03
 92        -8.4454472584e-04
 93         2.1752041669e-03
 94        -6.7039124739e-05
 95        -4.6820966474e-05
 96        -9.7159175132e-05
 97        -7.8737048769e-04
 98        -2.9758389346e-04
 99         3.1663376236e-05
100        -5.8418954381e-05
 Sym= A
 Ene=        -1.0187453053e+01
 Spin= Alpha
 Occup=         2.0000000000e+00
  1         1.0070790189e+00
  2         1.7628421749e-02
  3        -1.9151702941e-02
  4         4.4110113977e-04
  5         6.8213127752e-05
  6         1.2370895088e-04
  7         2.8107693826e-03
  8         4.4053488824e-04
  9        -2.4702437939e-04
 10         3.8084125145e-04
 11        -6.6427174840e-05
 12        -2.0365448264e-04
 13        -5.2873185609e-04
 14         1.7498800361e-04
 15        -3.0467138665e-03
 16        -2.1652641691e-04
 17         1.3331658618e-03
 18        -4.9358614408e-04
 19         4.3565527277e-05
 20        -1.4931697794e-05
 21         3.9424557212e-03
 22         2.5244958802e-03
 23        -3.7594779314e-04
 24         6.3954665822e-04
 25         3.9429918112e-05
 26        -1.8603453863e-05
 27        -1.3329071902e-03
 28        -3.3342798253e-04
 29         2.3972298232e-04
 30        -7.2409627646e-04
 31         3.8782422505e-03
 32        -2.5740937324e-04
 33         1.9299447676e-05
 34        -5.5249963627e-06
 35         1.4023392993e-03
 36         2.5937794279e-03
 37        -4.0582087218e-04
 38        -3.7611470479e-04
 39         3.0940346513e-05
 40        -1.2238998307e-04
 41        -3.5551109089e-04
 42        -2.0166921487e-04
 43        -1.3188420157e-04
 44        -5.0837817314e-04
 45         2.8693232346e-04
 46        -7.9451015067e-05
 47        -2.6970383590e-04
 48        -4.5646887855e-05
 49        -1.9604960309e-04
 50         4.7613757051e-04
 51         1.4837915378e-04
 52        -5.1604923789e-05
 53        -3.0064939364e-05
 54        -3.7447536823e-05
 55         3.6922274632e-05
 56         4.4693719592e-05
 57        -1.0636354492e-04
 58        -2.0658844225e-04
 59         3.5239801568e-04
 60         3.3173748936e-05
 61        -1.1359485034e-04
 62        -2.4566609358e-05
 63        -2.4635456202e-04
 64         2.4926965655e-04
 65         7.0035527776e-05
 66        -5.6219681505e-05
 67         4.7207601916e-08
 68         8.3221872566e-06
 69         8.5247327903e-09
 70        -2.0890550730e-06
 71        -9.8016989302e-04
 72         2.1071861392e-03
 73         5.4536344369e-04
 74        -1.4488551208e-03
 75        -9.3832625943e-04
 76        -1.5834372437e-03
 77         1.7982921524e-03
 78         6.4871978778e-04
 79         1.7970389171e-03
 80        -8.4205009217e-04
 81        -1.2491979847e-03
 82         2.3564449434e-03
 83         5.1808081078e-04
 84        -2.2853592845e-04
 85         1.8904044450e-03
 86         2.6679053423e-05
 87         3.9701342790e-04
 88         1.3635495438e-05
 89         6.0740289089e-05
 90        -1.7216440429e-05
 91         2.3603918603e-05
 92         5.5576215461e-04
 93         4.4260935825e-05
 94        -1.8857602346e-04
 95         3.2457753867e-05
 96        -3.9360984355e-04
 97         3.1802279720e-05
 98        -3.9975314731e-04
 99        -1.8421603572e-04
100         2.4736780739e-05
 Sym= A
 Ene=        -1.0388839799e+00
 Spin= Alpha
 Occup=         2.0000000000e+00
  1        -4.7108310861e-04
  2         8.2390892206e-03
  3         4.7668859074e-03
  4        -3.3587240466e-03
  5        -3.9350016479e-03
  6        -1.4552964845e-04
  7        -2.3637963939e-03
  8        -1.1599456387e-03
  9         7.9302584454e-04
 10        -7.1161312892e-04
 11        -8.6604643231e-05
 12        -1.3920022128e-04
 13         6.9735242239e-05
 14         8.4274245733e-04
 15         4.9617100090e-04
 16         1.6636525736e-02
 17        -1.1506263292e-02
 18         5.2824941680e-04
 19        -1.0454363079e-02
 20         1.1853890992e-03
 21        -1.6495271057e-03
 22         9.2370746185e-03
 23        -1.3858871289e-03
 24        -4.7199577238e-04
 25        -2.2982854673e-04
 26        -4.8735701770e-04
 27        -1.4046011816e-03
 28         7.4127603916e-04
 29        -3.6805034497e-03
 30         3.5110285964e-02
 31         3.0799606889e-02
 32         2.0660546452e-02
 33        -1.8771230483e-02
 34        -1.5418794277e-03
 35         1.9376772825e-02
 36         2.3246575050e-03
 37        -2.1803886357e-03
 38        -3.6677571789e-03
 39        -6.5064015616e-04
 40         5.3408400974e-05
 41        -8.9060493780e-06
 42        -8.9778582561e-03
 43        -1.4697686988e-02
 44         2.2395618330e-01
 45         9.5065973344e-02
 46         1.8400238279e-01
 47        -2.6047885328e-02
 48         1.3325590749e-03
 49         1.2674693490e-02
 50        -1.9301792844e-03
 51         8.6474982533e-04
 52        -1.3928273226e-02
 53        -4.1987351702e-04
 54        -1.5286660513e-03
 55         3.1188259911e-02
 56        -1.4020911957e-02
 57        -9.1718592221e-03
 58         4.0238030234e-01
 59         3.6112894289e-01
 60        -1.5477106627e-01
 61         3.1935462955e-02
 62        -1.7584791143e-03
 63        -3.1743015406e-02
 64         7.5335645341e-03
 65        -1.1012274804e-03
 66        -5.3918396492e-03
 67        -1.6598506018e-05
 68        -7.8354350104e-04
 69         1.1975560117e-02
 70        -5.1253054491e-03
 71         7.6881402517e-03
 72         4.0085020520e-03
 73        -7.0233597249e-04
 74        -3.9541827665e-04
 75         7.2465775456e-04
 76         1.1694388504e-03
 77        -6.3613694809e-04
 78         5.6003515234e-06
 79        -5.3763522717e-05
 80        -8.3401795820e-05
 81         2.8677530526e-03
 82         6.6753118771e-04
 83        -3.3298150051e-04
 84        -3.6168534147e-04
 85        -5.5969587099e-04
 86         4.0761038969e-02
 87        -3.0806317611e-03
 88         1.0058398854e-02
 89         6.1325804803e-03
 90         1.1308176695e-03
 91         7.0511653211e-03
 92         5.9533593144e-03
 93         1.0142057170e-03
 94        -1.8595963760e-03
 95        -9.1764791372e-05
 96         1.8251526479e-03
 97        -2.9758521288e-03
 98        -1.6289317034e-04
 99        -8.2847886770e-04
100         1.5231215779e-04
 Sym= A
 Ene=        -8.1156828472e-01
 Spin= Alpha
 Occup=         2.0000000000e+00
  1         1.1678321156e-02
  2        -1.8299287494e-01
  3        -7.4827010473e-02
  4         6.7947167406e-02
  5         1.3298741297e-02
  6        -2.8064235237e-03
  7         1.9922182152e-03
  8        -7.8729257317e-03
  9         2.0805427467e-03
 10         6.0020370221e-03
 11         2.4495023710e-04
 12        -1.8392081115e-04
 13        -1.0028445485e-02
 14        -2.9526573418e-03
 15         1.9844606700e-02
 16        -2.8917143345e-01
 17        -2.0503016745e-01
 18        -7.2813167522e-03
 19         7.2046516769e-02
 20        -1.0252441387e-02
 21        -3.2870609245e-02
 22         2.5160184353e-02
 23        -4.4136131310e-03
 24         1.0000154595e-02
 25         1.2572495082e-03
 26         2.0242776811e-03
 27        -2.2893327400e-03
 28        -9.5265699598e-03
 29         1.6924021417e-02
 30        -2.5264179553e-01
 31        -1.3824185546e-01
 32        -5.9277773907e-02
 33        -5.7180188112e-02
 34         1.7050768354e-02
 35        -2.2204605253e-03
 36        -2.0789263953e-02
 37         4.2546871705e-03
 38         6.8418075747e-03
 39         1.7832444566e-03
 40         2.2821857008e-03
 41         8.7224127460e-03
 42        -8.4194081560e-03
 43         2.5887658710e-03
 44        -6.4030715790e-02
 45        -5.0797483638e-02
 46         7.1728883768e-02
 47        -7.9727744482e-02
 48        -5.8552696581e-05
 49         2.2847058706e-02
 50        -2.2855497801e-02
 51        -1.6859320451e-03
 52         2.7116961688e-03
 53         3.2662253909e-04
 54        -4.5166431404e-04
 55         1.3056672714e-02
 56         3.2272078043e-03
 57        -3.5240887893e-04
 58         7.6100913026e-02
 59         7.3594150570e-02
 60        -1.2317708365e-02
 61        -1.6186747124e-02
 62         2.0277755647e-04
 63         1.0047730692e-03
 64        -7.1487328850e-03
 65         5.8638175595e-04
 66         1.5921118242e-04
 67        -1.2358699936e-05
 68        -1.1207003494e-05
 69         1.7269338940e-03
 70         1.5511697771e-03
 71        -6.8475129673e-02
 72        -2.0515990851e-03
 73         4.5405049986e-03
 74        -7.8810820855e-03
 75        -5.3812970586e-03
 76        -6.1509174257e-02
 77        -1.5775184673e-03
 78         5.1183721279e-03
 79         8.1323155118e-03
 80        -3.6441302109e-03
 81        -7.0367705043e-02
 82        -3.1183466620e-03
 83         4.4523762190e-03
 84        -2.1881560092e-04
 85         9.5250414734e-03
 86        -1.8872744575e-02
 87        -2.4116750278e-04
 88         1.6576930475e-05
 89        -3.5050639575e-03
 90        -1.8473498027e-04
 91        -8.0740339779e-02
 92        -2.2383654660e-03
 93        -1.3756853264e-02
 94        -2.0866477329e-03
 95         1.1455574070e-03
 96        -9.6493223784e-02
 97        -1.3254313970e-02
 98        -6.8723806223e-03
 99         1.3359965696e-02
100        -2.2459826556e-03
 Sym= A
 Ene=        -7.1616204538e-01
 Spin= Alpha
 Occup=         2.0000000000e+00
  1         1.4831986039e-02
  2        -2.8274474802e-01
  3        -1.2053521723e-01
  4         1.7065408793e-02
  5        -9.3881368153e-03
  6        -6.8918281760e-04
  7        -1.5271992200e-02
  8        -5.8300676915e-03
  9        -1.5474338825e-03
 10         1.5380221168e-03
 11        -2.9421511991e-04
 12        -1.1116854293e-04
 13        -2.6920646052e-03
 14         2.3233821612e-03
 15         5.1957501103e-03
 16        -4.8997626819e-02
 17        -8.4741824720e-02
 18        -1.3707221507e-01
 19        -8.8482419839e-02
 20         1.0156291684e-02
 21        -8.7833767024e-02
 22        -6.9574818256e-03
 23         1.5800911386e-03
 24         3.7451128984e-03
 25        -6.1701833272e-04
 26        -1.2537848433e-03
 27        -1.7927108702e-02
 28         4.4612368243e-03
 29        -1.3582306819e-02
 30         2.2870228446e-01
 31         1.6804797907e-01
 32        -6.1963041043e-03
 33        -6.0575127237e-02
 34        -6.6526360450e-03
 35         3.3594569482e-02
 36        -3.5244089606e-02
 37        -2.0057423450e-03
 38        -4.4098233902e-03
 39        -1.7887335147e-04
 40         6.0846383891e-04
 41        -9.7330078132e-03
 42        -6.1845659010e-03
 43        -3.2366394120e-03
 44         1.5912853258e-01
 45         7.2102278160e-02
 46        -1.1116641489e-01
 47         7.3888269561e-02
 48         1.4931606532e-03
 49        -3.8916669134e-02
 50         9.4759164873e-03
 51        -1.1068357243e-03