Generated by Psi4
        SP                           RHF                       CC-PVDZ
Number of atoms                            I               11
Charge                                     I                0
Multiplicity                               I                1
Number of electrons                        I               38
Number of alpha electrons                  I               19
Number of beta electrons                   I               19
Number of basis functions                  I              100
Number of independent functions            I              100
Atomic numbers                             I   N=          11
           6           6           6           6           8           1
           1           1           1           1           1
Nuclear charges                            R   N=          11
  6.00000000e+00  6.00000000e+00  6.00000000e+00  6.00000000e+00  8.00000000e+00
  1.00000000e+00  1.00000000e+00  1.00000000e+00  1.00000000e+00  1.00000000e+00
  1.00000000e+00
Current cartesian coordinates              R   N=          33
  1.64648618e+00  3.00599298e+00  3.03153092e-01 -7.90326468e-01  2.41162376e+00
 -1.64178390e-01 -2.04195216e+00 -1.15557656e-02  2.89791575e-01 -8.93644107e-01
 -2.28565462e+00  1.02739983e-01  1.57635797e+00 -2.67554910e+00 -4.10496008e-01
  2.36077582e+00 -1.02312903e+00 -6.92588485e-01  2.43341674e+00  4.82818444e+00
 -2.72107906e-01  2.90374270e+00  1.74088765e+00  1.35629143e+00 -1.91552649e+00
 -4.07029474e+00  2.58478076e-01 -4.07826647e+00 -1.85230725e-02  6.30546971e-01
 -1.96259246e+00  3.85163667e+00 -1.09430452e+00
Integer atomic weights                     I   N=          11
          12          12          12          12          16           1
           1           1           1           1           1
Real atomic weights                        R   N=          11
  1.20000000e+01  1.20000000e+01  1.20000000e+01  1.20000000e+01  1.59949146e+01
  1.00782503e+00  1.00782503e+00  1.00782503e+00  1.00782503e+00  1.00782503e+00
  1.00782503e+00
Number of primitive shells                 I              140
Number of contracted shells                I               48
Pure/Cartesian d shells                    I                0
Pure/Cartesian f shells                    I                0
Highest angular momentum                   I                2
Largest degree of contraction              I                8
Shell types                                I   N=          48
           0           0           0           1           1          -2
           0           0           0           1           1          -2
           0           0           0           1           1          -2
           0           0           0           1           1          -2
           0           0           0           1           1          -2
           0           0           1           0           0           1
           0           0           1           0           0           1
           0           0           1           0           0           1
Number of primitives per shell             I   N=          48
           8           8           1           3           1           1
           8           8           1           3           1           1
           8           8           1           3           1           1
           8           8           1           3           1           1
           8           8           1           3           1           1
           3           1           1           3           1           1
           3           1           1           3           1           1
           3           1           1           3           1           1
Shell to atom map                          I   N=          48
           1           1           1           1           1           1
           2           2           2           2           2           2
           3           3           3           3           3           3
           4           4           4           4           4           4
           5           5           5           5           5           5
           6           6           6           7           7           7
           8           8           8           9           9           9
          10          10          10          11          11          11
Primitive exponents                        R   N=         140
  6.66500000e+03  1.00000000e+03  2.28000000e+02  6.47100000e+01  2.10600000e+01
  7.49500000e+00  2.79700000e+00  5.21500000e-01  6.66500000e+03  1.00000000e+03
  2.28000000e+02  6.47100000e+01  2.10600000e+01  7.49500000e+00  2.79700000e+00
  5.21500000e-01  1.59600000e-01  9.43900000e+00  2.00200000e+00  5.45600000e-01
  1.51700000e-01  5.50000000e-01  6.66500000e+03  1.00000000e+03  2.28000000e+02
  6.47100000e+01  2.10600000e+01  7.49500000e+00  2.79700000e+00  5.21500000e-01
  6.66500000e+03  1.00000000e+03  2.28000000e+02  6.47100000e+01  2.10600000e+01
  7.49500000e+00  2.79700000e+00  5.21500000e-01  1.59600000e-01  9.43900000e+00
  2.00200000e+00  5.45600000e-01  1.51700000e-01  5.50000000e-01  6.66500000e+03
  1.00000000e+03  2.28000000e+02  6.47100000e+01  2.10600000e+01  7.49500000e+00
  2.79700000e+00  5.21500000e-01  6.66500000e+03  1.00000000e+03  2.28000000e+02
  6.47100000e+01  2.10600000e+01  7.49500000e+00  2.79700000e+00  5.21500000e-01
  1.59600000e-01  9.43900000e+00  2.00200000e+00  5.45600000e-01  1.51700000e-01
  5.50000000e-01  6.66500000e+03  1.00000000e+03  2.28000000e+02  6.47100000e+01
  2.10600000e+01  7.49500000e+00  2.79700000e+00  5.21500000e-01  6.66500000e+03
  1.00000000e+03  2.28000000e+02  6.47100000e+01  2.10600000e+01  7.49500000e+00
  2.79700000e+00  5.21500000e-01  1.59600000e-01  9.43900000e+00  2.00200000e+00
  5.45600000e-01  1.51700000e-01  5.50000000e-01  1.17200000e+04  1.75900000e+03
  4.00800000e+02  1.13700000e+02  3.70300000e+01  1.32700000e+01  5.02500000e+00
  1.01300000e+00  1.17200000e+04  1.75900000e+03  4.00800000e+02  1.13700000e+02
  3.70300000e+01  1.32700000e+01  5.02500000e+00  1.01300000e+00  3.02300000e-01
  1.77000000e+01  3.85400000e+00  1.04600000e+00  2.75300000e-01  1.18500000e+00
  1.30100000e+01  1.96200000e+00  4.44600000e-01  1.22000000e-01  7.27000000e-01
  1.30100000e+01  1.96200000e+00  4.44600000e-01  1.22000000e-01  7.27000000e-01
  1.30100000e+01  1.96200000e+00  4.44600000e-01  1.22000000e-01  7.27000000e-01
  1.30100000e+01  1.96200000e+00  4.44600000e-01  1.22000000e-01  7.27000000e-01
  1.30100000e+01  1.96200000e+00  4.44600000e-01  1.22000000e-01  7.27000000e-01
  1.30100000e+01  1.96200000e+00  4.44600000e-01  1.22000000e-01  7.27000000e-01
Contraction coefficients                   R   N=         140
  6.91583963e-04  5.32579615e-03  2.70607210e-02  1.01656846e-01  2.74574824e-01
  4.48294319e-01  2.84902611e-01  1.51948592e-02 -2.93269653e-04 -2.31803547e-03
 -1.14997860e-02 -4.68267270e-02 -1.28466169e-01 -3.01266272e-01 -2.55630702e-01
  1.09379336e+00  1.00000000e+00  5.69792516e-02  3.13207212e-01  7.60376742e-01
  1.00000000e+00  1.00000000e+00  6.91583963e-04  5.32579615e-03  2.70607210e-02
  1.01656846e-01  2.74574824e-01  4.48294319e-01  2.84902611e-01  1.51948592e-02
 -2.93269653e-04 -2.31803547e-03 -1.14997860e-02 -4.68267270e-02 -1.28466169e-01
 -3.01266272e-01 -2.55630702e-01  1.09379336e+00  1.00000000e+00  5.69792516e-02
  3.13207212e-01  7.60376742e-01  1.00000000e+00  1.00000000e+00  6.91583963e-04
  5.32579615e-03  2.70607210e-02  1.01656846e-01  2.74574824e-01  4.48294319e-01
  2.84902611e-01  1.51948592e-02 -2.93269653e-04 -2.31803547e-03 -1.14997860e-02
 -4.68267270e-02 -1.28466169e-01 -3.01266272e-01 -2.55630702e-01  1.09379336e+00
  1.00000000e+00  5.69792516e-02  3.13207212e-01  7.60376742e-01  1.00000000e+00
  1.00000000e+00  6.91583963e-04  5.32579615e-03  2.70607210e-02  1.01656846e-01
  2.74574824e-01  4.48294319e-01  2.84902611e-01  1.51948592e-02 -2.93269653e-04
 -2.31803547e-03 -1.14997860e-02 -4.68267270e-02 -1.28466169e-01 -3.01266272e-01
 -2.55630702e-01  1.09379336e+00  1.00000000e+00  5.69792516e-02  3.13207212e-01
  7.60376742e-01  1.00000000e+00  1.00000000e+00  7.09645947e-04  5.46727229e-03
  2.78231186e-02  1.04747740e-01  2.82920846e-01  4.48495239e-01  2.70816885e-01
  1.54502916e-02 -3.14443412e-04 -2.48213768e-03 -1.23163554e-02 -5.05389173e-02
 -1.39384903e-01 -3.25077495e-01 -2.29848308e-01  1.09537935e+00  1.00000000e+00
  6.26791663e-02  3.33536566e-01  7.41239642e-01  1.00000000e+00  1.00000000e+00
  3.34987264e-02  2.34800801e-01  8.13682958e-01  1.00000000e+00  1.00000000e+00
  3.34987264e-02  2.34800801e-01  8.13682958e-01  1.00000000e+00  1.00000000e+00
  3.34987264e-02  2.34800801e-01  8.13682958e-01  1.00000000e+00  1.00000000e+00
  3.34987264e-02  2.34800801e-01  8.13682958e-01  1.00000000e+00  1.00000000e+00
  3.34987264e-02  2.34800801e-01  8.13682958e-01  1.00000000e+00  1.00000000e+00
  3.34987264e-02  2.34800801e-01  8.13682958e-01  1.00000000e+00  1.00000000e+00
Coordinates of each shell                  R   N=         144
  1.64648618e+00  3.00599298e+00  3.03153092e-01  1.64648618e+00  3.00599298e+00
  3.03153092e-01  1.64648618e+00  3.00599298e+00  3.03153092e-01  1.64648618e+00
  3.00599298e+00  3.03153092e-01  1.64648618e+00  3.00599298e+00  3.03153092e-01
  1.64648618e+00  3.00599298e+00  3.03153092e-01 -7.90326468e-01  2.41162376e+00
 -1.64178390e-01 -7.90326468e-01  2.41162376e+00 -1.64178390e-01 -7.90326468e-01
  2.41162376e+00 -1.64178390e-01 -7.90326468e-01  2.41162376e+00 -1.64178390e-01
 -7.90326468e-01  2.41162376e+00 -1.64178390e-01 -7.90326468e-01  2.41162376e+00
 -1.64178390e-01 -2.04195216e+00 -1.15557656e-02  2.89791575e-01 -2.04195216e+00
 -1.15557656e-02  2.89791575e-01 -2.04195216e+00 -1.15557656e-02  2.89791575e-01
 -2.04195216e+00 -1.15557656e-02  2.89791575e-01 -2.04195216e+00 -1.15557656e-02
  2.89791575e-01 -2.04195216e+00 -1.15557656e-02  2.89791575e-01 -8.93644107e-01
 -2.28565462e+00  1.02739983e-01 -8.93644107e-01 -2.28565462e+00  1.02739983e-01
 -8.93644107e-01 -2.28565462e+00  1.02739983e-01 -8.93644107e-01 -2.28565462e+00
  1.02739983e-01 -8.93644107e-01 -2.28565462e+00  1.02739983e-01 -8.93644107e-01
 -2.28565462e+00  1.02739983e-01  1.57635797e+00 -2.67554910e+00 -4.10496008e-01
  1.57635797e+00 -2.67554910e+00 -4.10496008e-01  1.57635797e+00 -2.67554910e+00
 -4.10496008e-01  1.57635797e+00 -2.67554910e+00 -4.10496008e-01  1.57635797e+00
 -2.67554910e+00 -4.10496008e-01  1.57635797e+00 -2.67554910e+00 -4.10496008e-01
  2.36077582e+00 -1.02312903e+00 -6.92588485e-01  2.36077582e+00 -1.02312903e+00
 -6.92588485e-01  2.36077582e+00 -1.02312903e+00 -6.92588485e-01  2.43341674e+00
  4.82818444e+00 -2.72107906e-01  2.43341674e+00  4.82818444e+00 -2.72107906e-01
  2.43341674e+00  4.82818444e+00 -2.72107906e-01  2.90374270e+00  1.74088765e+00
  1.35629143e+00  2.90374270e+00  1.74088765e+00  1.35629143e+00  2.90374270e+00
  1.74088765e+00  1.35629143e+00 -1.91552649e+00 -4.07029474e+00  2.58478076e-01
 -1.91552649e+00 -4.07029474e+00  2.58478076e-01 -1.91552649e+00 -4.07029474e+00
  2.58478076e-01 -4.07826647e+00 -1.85230725e-02  6.30546971e-01 -4.07826647e+00
 -1.85230725e-02  6.30546971e-01 -4.07826647e+00 -1.85230725e-02  6.30546971e-01
 -1.96259246e+00  3.85163667e+00 -1.09430452e+00 -1.96259246e+00  3.85163667e+00
 -1.09430452e+00 -1.96259246e+00  3.85163667e+00 -1.09430452e+00
Total Energy                               R     -2.312255733869342e+02
Alpha Orbital Energies                     R   N=         100
 -1.91740689e+01 -1.02504781e+01 -1.02064265e+01 -1.01909993e+01 -1.01824566e+01
 -1.06434322e+00 -8.01588515e-01 -7.31418229e-01 -6.28851693e-01 -5.78946069e-01
 -4.99073219e-01 -4.77965336e-01 -4.47932769e-01 -4.09539890e-01 -3.94203720e-01
 -3.75757622e-01 -3.47660536e-01 -2.99745818e-01 -2.18160240e-01 -2.59477454e-02
  5.61745186e-02  7.23297984e-02  8.05854710e-02  1.00838437e-01  1.25740262e-01
  1.41421626e-01  1.64501293e-01  2.21352971e-01  3.00349217e-01  3.21386997e-01
  3.49617625e-01  4.33918675e-01  4.45993753e-01  4.74587163e-01  4.78541542e-01
  4.94094425e-01  5.11473784e-01  5.34623824e-01  5.54435754e-01  5.64905087e-01
  5.81666547e-01  6.12668638e-01  6.27573342e-01  6.57980857e-01  6.74349721e-01
  7.19189954e-01  7.68485601e-01  7.93788992e-01  8.80039092e-01  9.07851185e-01
  9.40489015e-01  9.55350723e-01  9.63199672e-01  1.00094579e+00  1.03792072e+00
  1.05206116e+00  1.09495245e+00  1.10427130e+00  1.16334374e+00  1.19200112e+00
  1.22045585e+00  1.31924207e+00  1.36496527e+00  1.43307009e+00  1.45410454e+00
  1.48186736e+00  1.50494116e+00  1.52843231e+00  1.55494411e+00  1.58794691e+00
  1.60444208e+00  1.64643840e+00  1.68441005e+00  1.71596028e+00  1.73230746e+00
  1.75452134e+00  1.75786376e+00  1.82135432e+00  1.89512055e+00  1.92316702e+00
  1.98002948e+00  1.98821158e+00  2.03395427e+00  2.07745372e+00  2.09988701e+00
  2.17128002e+00  2.21782788e+00  2.26117029e+00  2.38633727e+00  2.40113422e+00
  2.42165162e+00  2.57435356e+00  2.73541530e+00  2.77826313e+00  2.87633040e+00
  2.95542503e+00  3.01823765e+00  3.17752676e+00  3.43761981e+00  3.69437471e+00
Alpha MO coefficients                      R   N=       10000
 -8.07203011e-05 -1.38619702e-04  1.26289418e-03 -1.05509153e-04  7.52850626e-05
  2.30257476e-05 -2.66976389e-04 -1.36885517e-03  1.51629284e-04 -7.00649174e-05
  1.44719866e-05  4.12364122e-05 -4.93148297e-05  7.74499893e-05  2.16915500e-04
  3.73679945e-04 -5.64565587e-03 -3.86827727e-06  4.65228228e-06  6.50209217e-05
  1.88755751e-04  2.98923777e-03 -8.95430778e-04  7.14381972e-05 -1.25686368e-04
  1.02812547e-04 -7.98932645e-06  1.77893609e-05 -1.90959226e-04 -2.77374482e-04
  4.91963809e-03  6.05085295e-05 -2.75334046e-04  7.03927529e-06  4.68214376e-03
  3.08746072e-03 -1.06918477e-03 -1.59052374e-04 -1.37375568e-04  6.83783175e-05
  3.78552020e-04 -3.97124295e-04 -1.92442759e-04 -3.50935601e-04 -5.77829851e-03
 -3.27559212e-04  2.18484794e-04  1.01472806e-04 -5.83045115e-03 -1.55988572e-03
  1.20137529e-03  4.10361613e-04  5.94285382e-06  6.99556514e-05  7.15322084e-04
 -3.98452689e-04 -1.00408012e+00 -9.35034646e-03  1.40719307e-02  8.93557037e-04
 -1.43884194e-03 -7.16616403e-05 -3.22022018e-03  1.42933958e-03  6.11844640e-04
  1.82095270e-05 -9.03148016e-07  7.94499793e-05  1.43875666e-04 -2.59043484e-04
 -2.83421492e-04 -3.60480264e-04 -2.17396099e-04 -9.62182104e-04  4.79840836e-05
  5.52853155e-05  3.02041851e-04  3.80421767e-05  6.30409779e-05  8.78222638e-06
 -2.36605502e-04 -1.85582869e-04  3.02331444e-06 -2.92663660e-05 -1.68122362e-05
  4.11505574e-04 -9.19523550e-04  6.32599808e-04  1.51168472e-04 -1.25202590e-04
  1.69958714e-04  1.24980501e-03 -2.23245861e-04 -2.05029690e-04  6.22253608e-05
  8.57002874e-05 -6.21302876e-04 -3.49640443e-05 -1.08851153e-04  2.71325992e-05
 -2.79598348e-04 -3.41355643e-04  1.08768404e-03  1.47307953e-04  7.87896967e-05
  7.26616012e-05 -1.25873153e-03  5.12753682e-04 -6.33403596e-04 -7.34992143e-05
 -1.64121198e-05 -2.78816722e-05  5.37680248e-05 -3.98123324e-05 -4.97639438e-04
 -7.09905756e-04  4.90623053e-03 -1.16621116e-04  1.47770992e-05  1.77234045e-06
 -2.38277722e-03 -4.15670486e-03  7.57614558e-04 -3.54465558e-04 -9.33440997e-05
 -1.02257398e-04  7.77735206e-06  1.86173484e-04  4.60095693e-03 -1.01080402e-03
  7.55105232e-05 -5.78698946e-04  1.35886411e-03  9.41598818e-05 -1.96512390e-03
 -6.47089788e-03  7.56639525e-04  1.07845046e-03  2.38029113e-04 -5.60150711e-05
  5.66475535e-04  9.08491395e-04  1.00591986e+00  1.53117779e-02 -1.25399180e-02
  5.61908721e-04 -4.83454707e-04 -1.89771165e-04  5.02603217e-03 -2.34108292e-03
 -9.94568678e-04 -1.64477743e-03 -5.04323600e-04  4.04577750e-05 -3.46770463e-04
  6.28275763e-06  7.16937452e-04  1.29499617e-03 -4.89724490e-03  2.61749864e-04
 -2.05580149e-04 -3.45067533e-05  3.24999069e-03 -2.45515857e-04 -7.04568507e-04
  6.93924061e-04  4.31857808e-04 -2.06190822e-05 -7.63766744e-04  1.89969333e-04
  5.07376359e-04 -4.36333594e-04 -6.25662867e-04 -2.48842231e-05  1.20834465e-04
 -5.62774104e-05  1.59791680e-04 -2.59791040e-05 -5.51113623e-05  3.04637748e-05
  7.83800846e-06  9.40676519e-04  1.01385961e-05  6.28205100e-05 -2.96131842e-05
 -2.20927564e-03  2.33720342e-03 -1.54403047e-03 -1.61358912e-03  2.54435045e-04
 -1.35721081e-04 -2.53686887e-04  3.05629238e-04  2.92646930e-04 -7.62327812e-05
 -5.39212562e-05  5.49221060e-04  1.71824514e-04  1.31010693e-04 -3.07740052e-05
  2.20150513e-02 -1.12292768e-03  4.78705119e-03  1.32729968e-03  3.36773515e-04
  1.61105224e-04 -2.06974307e-03 -1.82054394e-03  3.78630684e-04  7.60349715e-04
 -5.31929728e-04 -2.57478341e-05 -1.06832471e-03 -3.97553082e-04  1.00618270e+00
  1.62504706e-02 -1.92522998e-02 -1.23705736e-04  1.98088140e-04 -2.59450956e-04
 -1.70688138e-03  3.22704917e-03 -1.72138499e-03 -7.43725534e-04  6.98832332e-04
 -6.51687067e-04  2.27585971e-04 -1.76240335e-05  5.47847517e-03 -4.53380421e-04
  1.17297991e-03 -4.67854280e-04 -6.29868135e-04  1.43387987e-04  8.26723278e-04
  3.87900337e-03  2.58742217e-04  7.99744968e-04  2.96716593e-05  5.76518358e-04
  1.10816194e-03 -9.61695073e-04 -3.49452492e-04 -6.95449577e-04  4.06832313e-03
 -1.08812192e-04 -1.56869434e-04  1.28299559e-04 -6.12522809e-04  2.75188330e-03
 -2.59571400e-04 -4.27066447e-04 -3.13995869e-04  6.46255017e-05  4.16250833e-04
 -3.21863234e-04  8.71149417e-05  1.26645912e-04 -1.21621683e-03  1.63479982e-04
 -4.12694363e-05 -2.63989488e-05  1.38198489e-04 -6.72765746e-04  7.99500341e-05
  8.26267571e-05  2.61988253e-05  1.79377691e-05 -1.69966303e-05  1.39102118e-05
  2.81323066e-04  6.03209563e-04 -2.80424560e-04 -7.91604630e-05 -2.09671750e-05
 -5.24740351e-05  8.97568601e-04  1.44582787e-04 -1.11623889e-04  7.62228898e-05
 -2.68850191e-04 -2.15255226e-04  3.66665384e-05  2.40339354e-04 -1.09482301e-04
  1.08820641e-04  7.91221818e-04  1.81776208e-04 -5.00121860e-05  2.54038461e-06
 -2.97542709e-04  4.37492997e-04 -7.29797849e-05 -3.86361751e-04 -5.78603339e-05
 -2.27545954e-03  1.19961908e-03 -1.14706007e-03  1.49916482e-03 -9.52477584e-04
  1.00617585e+00  1.63396640e-02 -1.52728592e-02  2.77957992e-04 -5.68313053e-05
  2.84138257e-05  2.21408536e-03  7.43427435e-04  7.33878715e-04 -1.03853836e-03
  7.15708013e-04 -1.18974685e-03  4.20469843e-05  3.26414137e-04 -2.32316256e-02
 -1.44060188e-03  1.01051649e-03 -1.33172084e-03 -3.27282285e-04 -2.71033291e-04
  2.93596814e-03  2.48768939e-03 -3.25812136e-05  9.99521145e-04 -5.83912609e-04
  1.83566719e-04 -9.94220116e-04 -7.70051925e-04 -1.01894102e-03 -5.17221591e-04
  3.50565621e-03 -8.40152887e-05  5.03987885e-05 -6.50991185e-05  1.92599025e-03
  2.47940396e-03 -5.00541072e-04 -3.74771520e-04  7.68995971e-05 -2.42482963e-04
 -3.38770396e-04  2.90614989e-05  1.07609071e-05 -2.07306898e-04 -6.14559720e-04
  6.42394944e-07 -1.34452166e-04 -5.06214595e-05 -1.31403003e-03 -1.66273218e-04
  2.99985987e-04  6.07190965e-05  9.77708369e-05 -9.00162090e-05 -4.34630503e-05
  1.04658075e-04  9.99068224e-06  3.34453383e-05  4.11078178e-04  1.20007903e-04
  6.74307976e-05 -3.64226423e-05 -6.56858019e-04 -1.69499268e-04  1.00365754e-04
 -3.22045070e-05 -3.30894000e-05 -2.66681988e-05  7.80009429e-05  5.71437092e-05
  1.70284494e-04  1.26784698e-03 -1.21289873e-04  4.28834282e-04  8.53050908e-05
 -2.30494793e-03  1.88709169e-03  7.50482311e-04  2.01419483e-03 -7.05427020e-04
 -2.11774637e-03  1.49104879e-03  1.21732365e-03 -1.48509617e-03  1.21276230e-03
 -8.24477443e-05 -4.24901308e-05  4.15372811e-05  1.95170090e-05 -2.07117320e-05
  1.10188475e-04  5.75503162e-04  1.31486349e-05 -1.31661737e-04  4.36187140e-05
  7.98843516e-05  2.59699704e-04  1.59954847e-05 -3.15342031e-04  1.09113657e-04
  3.07522074e-04 -4.46868021e-04  2.73471978e-03  7.14745240e-05  1.05786798e-04
 -8.61099755e-05 -2.05951112e-03 -4.09033769e-04 -3.78353302e-05 -2.56724973e-04
  5.19274186e-04 -2.98252874e-04  2.74413542e-04 -4.84561647e-04 -5.87572630e-03
 -7.00891703e-04  3.08195322e-03  2.13023723e-04  7.09461291e-04 -1.78837239e-04
 -2.03864290e-03 -3.86889390e-03 -2.67227359e-05  9.07060802e-04  4.94578023e-04
  3.51207645e-04  5.59956506e-04 -1.31689308e-03  1.00664232e+00  1.67370686e-02
 -2.18847626e-02 -2.20984363e-04 -1.57010979e-04 -9.78460491e-05 -5.16007634e-03
 -2.46589867e-04  1.55162102e-03 -1.07353782e-03 -3.95987263e-04 -7.51497945e-06
  2.69124085e-04 -2.02560036e-04 -5.85709545e-03 -1.59998044e-03  6.74558316e-03
  6.36452014e-04 -1.23590426e-03 -9.15960494e-05  3.34199367e-04  4.23364131e-03
 -3.34336829e-04  8.40804115e-04  1.58979349e-04 -2.03929877e-04  7.05029946e-04
  1.01628417e-03  3.43320301e-05  4.84586753e-05 -9.74614810e-04  3.04170116e-05
 -5.84661617e-05 -2.87624526e-06 -1.05900712e-04 -7.01980226e-04  6.41696783e-05
 -5.81307721e-05 -4.16029989e-05 -1.19826041e-05  9.37586289e-05  8.01482363e-05
  2.69999591e-04  4.35737219e-05 -1.41606843e-04 -1.60649220e-04  2.30658364e-05
  1.15400625e-04  5.02194234e-04  1.39421433e-04 -1.47575938e-04  5.00154257e-05
 -6.96777375e-04  5.02891667e-04  1.85586010e-04 -1.24269833e-04  1.19765162e-04
  1.56393468e-04  1.23187801e-03  2.90489781e-04 -2.17510312e-05 -1.62931473e-05
 -2.37322108e-03  8.32921409e-04 -2.10907269e-03 -5.53288439e-05  2.83942019e-04
 -3.39237350e-04  7.18938806e-04  1.98153341e-04  2.87598653e-04  7.16020001e-05
  1.42588860e-04  8.48870405e-03 -4.44504179e-03 -1.91133384e-03 -5.12481754e-03
 -6.67586290e-04  2.70490675e-03  5.19991663e-03 -1.93003552e-03 -2.50983637e-04
 -5.44848246e-04  6.92815097e-04 -7.95254845e-04  9.60392024e-04 -1.17522725e-04
  1.31785873e-02  2.21850277e-03  1.55851097e-03 -8.68583913e-03  9.38387830e-04
  6.06970910e-03  3.12785449e-03  2.50369602e-04 -1.38895024e-03 -1.40313930e-04
 -4.15243171e-04 -1.35345095e-03  3.77796825e-04 -1.32639566e-03  3.55581818e-02
 -3.96407280e-03  2.13926600e-02 -1.83791073e-02 -4.30400022e-03  5.34708384e-03
  1.48545189e-02 -2.12456969e-03 -2.25807959e-03 -1.05990371e-03  1.53289311e-03
  1.99037362e-03 -8.05672307e-03 -1.27862323e-02  1.54573866e-01  8.50145483e-02
  1.26118151e-01 -5.27166680e-03 -2.71945890e-02  5.30488593e-03  2.39930945e-02
 -1.16413696e-03 -1.10926394e-02 -1.07733367e-02  8.34748159e-04  2.83269272e-02
 -4.65073335e-03 -6.67349277e-03  4.23948077e-01  3.73539838e-01 -7.34973053e-02
  8.94306216e-02  9.99282595e-03 -3.12150468e-02 -1.46269696e-03  6.74027130e-03
 -6.35073086e-03 -3.37555419e-03 -3.00629311e-04  4.04606316e-03 -1.75902736e-03
  1.69679639e-01  5.01965866e-03 -1.87682141e-02 -2.95062123e-02  6.60479729e-03
  3.78729837e-05 -3.92885420e-03  5.07631797e-05  9.99865605e-05 -1.56999479e-04
  7.57361870e-03  4.54007313e-03 -1.14154489e-03 -6.36020519e-04 -8.97514081e-04
  3.47069304e-02  5.48366207e-03  8.26406553e-03  4.57587354e-03 -1.50014097e-03
  5.19744673e-03  1.92807896e-03  4.87636469e-04 -2.25909844e-03  7.19642554e-06
  1.64747378e-03 -1.07577605e-03 -3.06331115e-04 -4.52504896e-04 -9.09527037e-05
  1.47336047e-02 -1.92573954e-01 -1.04849376e-01  8.31180260e-02  2.92781336e-02
  1.38036563e-02  8.69261709e-03 -2.78151857e-03  8.28009099e-03  4.82484549e-03
 -2.29975631e-03 -3.30441338e-03 -7.82248671e-03 -6.01780243e-03  1.93225963e-02
 -2.78324297e-01 -1.78096343e-01 -3.81671153e-02  4.02608348e-02 -1.85939667e-02
 -1.86650277e-02  2.05005094e-02 -1.37261540e-02  1.04883010e-02 -8.34496232e-04
  1.25740467e-03 -1.53911371e-03 -1.09693633e-02  1.81470378e-02 -2.40756609e-01
 -1.42395432e-01 -5.42772052e-02 -1.59792732e-02  1.49685311e-02 -1.93804988e-02
 -1.20622796e-02  9.60085308e-03  8.67166822e-03  1.66578403e-03  2.58099837e-03
  9.50338333e-03 -5.38460129e-03  5.44487258e-03 -1.23377221e-01 -6.62967780e-02
  6.07279716e-02 -8.53342362e-02 -1.00547799e-02  2.34707968e-02 -1.25150602e-02
 -6.73937618e-03  3.32391510e-03 -1.67283548e-03 -5.18970517e-04  1.21585160e-02
  4.04829484e-03  1.09117416e-03  8.85029244e-02  8.18289634e-02  2.64392917e-02
  2.07597018e-03 -7.07718013e-03  1.62168293e-02 -7.79853363e-03 -3.30173012e-03
  7.86870258e-04  4.03763413e-04 -6.87203536e-04 -1.04011077e-03  2.89679977e-03
  3.32736910e-02  3.72149351e-03 -1.98186218e-03 -9.12967049e-03  2.33117358e-04
 -5.98198493e-02 -5.57206324e-04  5.86328211e-03  8.81752501e-03 -2.18105220e-03
 -6.95285810e-02 -4.64144429e-03  8.16268500e-03 -5.59033615e-03  5.83730380e-03
 -3.27618946e-02  1.13782584e-03 -4.63831970e-04 -5.79836068e-03  2.05534671e-04
 -8.12078432e-02 -8.59739189e-03 -1.30253851e-02 -9.43616683e-04  2.07214946e-03
 -9.54610626e-02 -1.21196816e-02 -8.49109871e-03  1.07733317e-02 -6.41716861e-03
  1.61835425e-02 -2.26648836e-01 -1.26667962e-01  5.40843970e-02  9.36463064e-03
  1.36521665e-02  2.52466773e-03  1.08858920e-03  2.81510998e-03  3.10704093e-03
 -2.56455498e-03 -2.23383267e-03 -5.44111510e-03  6.03139090e-05  8.79777130e-03
 -1.33742105e-01 -1.00836697e-01 -1.09381692e-01 -7.63964192e-02 -6.51043531e-03
 -4.76575483e-02 -1.28147013e-02 -6.47436253e-03  2.36453637e-03 -4.10555406e-03
 -2.54751781e-03 -1.44957300e-02  4.15629039e-04 -1.33416552e-02  1.98875313e-01
  1.29703686e-01  9.70680476e-03 -1.19821901e-01 -4.33522315e-03  1.84851289e-02
 -3.35326649e-02 -2.31920180e-04 -3.39528998e-03  1.94121367e-04  1.97004436e-03
 -6.89702387e-03 -1.20739046e-02 -1.00298648e-02  2.51988564e-01  1.40217815e-01
 -7.30309208e-02  5.93686301e-02  1.11115205e-02 -2.27229222e-02  9.88584679e-03
  2.71840435e-03 -5.28086203e-03 -2.94751902e-04  1.34063989e-03 -5.38986970e-03
 -1.09596830e-02 -1.97750270e-03 -8.85897806e-02 -7.86811984e-02 -1.09308501e-01
 -4.49250618e-02  2.51511693e-02 -5.02738028e-02 -3.37573650e-03  1.01138068e-02
 -1.51960129e-03 -1.45564679e-03  1.29742184e-03  5.96638234e-03 -5.02888509e-03
 -1.08461732e-01 -2.05479031e-02  5.02474366e-03  1.15623070e-02 -3.17393279e-03
 -9.55983504e-02 -9.58819253e-03  6.05392659e-03  1.25552485e-02 -3.51807163e-03
 -9.55095334e-02 -1.22396569e-02  9.09320819e-03 -6.69275599e-03  7.82926772e-03
  1.09146499e-01  9.63373308e-03  5.24033348e-03  1.40494036e-02 -7.63129664e-04
  8.99930623e-02  1.36627768e-02  1.22800540e-02 -3.05209936e-03 -2.25173069e-03
 -5.73440519e-02 -1.16495316e-02 -6.71688065e-03  3.43879200e-03 -3.60813662e-03
  1.04491437e-02 -1.90222889e-01 -1.23919866e-01 -2.24053702e-02 -3.04728022e-02
  2.39184579e-04 -2.14092610e-02  4.40330444e-03 -8.39118324e-03 -1.53217074e-03
 -3.14935596e-04  4.87705492e-04  4.91724702e-04  2.32189623e-03 -2.67209128e-03
  8.46172370e-02  4.12634186e-02 -1.47686991e-01 -9.55354657e-02 -8.98472052e-03
 -4.92491224e-02 -4.02550122e-02 -9.35156578e-04 -9.68177715e-04 -4.61414430e-03
 -2.58733877e-03 -9.58278100e-03  1.49950487e-03 -6.04101957e-03  1.58583111e-01
  9.34656016e-02 -1.70084235e-02  1.19184293e-01 -1.30658887e-02  5.70754016e-03
  4.41351639e-02 -5.33579722e-03 -8.29344130e-04 -1.09888839e-03 -4.05989519e-03
 -2.12879851e-03  7.44580045e-03  3.18199479e-03 -2.07803592e-01 -1.26220592e-01
 -4.71722667e-02  1.44394200e-01  4.52799572e-03 -1.91433729e-02  3.45480828e-02
  9.02088459e-04  1.86161131e-03  2.25614432e-03 -2.91697637e-03 -8.75961134e-03
  9.41027070e-03  5.53713344e-04  5.45702043e-02  5.39007162e-02  2.34676592e-01
  1.40051283e-01 -6.04897721e-02  1.02481638e-01  4.33097851e-02 -2.53247847e-02
  1.27653767e-03  2.83667903e-03 -1.57316245e-03 -1.18353107e-02  3.69223063e-03
  1.87947820e-01  3.80698738e-02 -8.33285906e-03 -2.32946134e-02  2.88625853e-03
 -1.23398168e-01 -2.65743734e-02  5.11451143e-03  1.26746527e-02 -4.33252728e-03
 -9.26249743e-02 -6.29385382e-03  6.47948742e-03 -9.41049905e-03  5.86337237e-03
 -1.65093817e-01 -3.12347568e-02 -9.44083740e-03 -1.42507316e-02  1.21164475e-03
  9.35075796e-02  2.02671411e-02  1.04958938e-02  2.66444408e-03 -2.11145551e-03
  5.66338668e-02  1.11587170e-02  4.83177267e-04 -6.37456519e-03  2.38991957e-03
  6.66437877e-03 -1.38330766e-01 -8.45263228e-02 -1.40414038e-01  2.27973961e-02
 -4.25572819e-02 -5.60223202e-02  1.29285613e-02 -1.44944832e-02 -3.07002810e-03
  3.43106076e-03 -1.78444096e-05  1.08972837e-02  2.95135359e-03 -4.25871845e-03
  2.12121818e-01  1.22683845e-01 -1.04883774e-01  5.10505504e-02 -4.12153978e-02
 -4.44819070e-02  7.56549894e-03 -1.19068026e-02  4.18608460e-03 -2.54133884e-03
 -6.30876209e-04 -2.17607964e-03 -1.73118268e-04  1.99583046e-03 -7.77525062e-02
 -2.17944182e-02 -4.54980347e-03  1.85538451e-01 -2.05809644e-02  1.13836842e-03
  4.16303801e-02 -8.99009966e-03 -1.38807568e-03 -1.34891851e-03 -4.71645996e-03
 -3.72690958e-03  6.08478931e-03  2.66387091e-03 -1.36138111e-02 -1.66121027e-02
  1.57791596e-01 -1.75922115e-01 -3.55801340e-02  4.76307157e-02 -6.26714238e-02
 -1.06235178e-02 -2.22797190e-03 -2.70581784e-03  1.16060653e-03  1.02174009e-02
 -9.84904808e-03  1.26433044e-03  3.82377991e-02  5.88494772e-02 -1.97033238e-01
 -1.75816023e-01  4.50613044e-02 -7.61372419e-02 -7.14226223e-02  1.48816530e-02
  1.00497008e-03 -1.36742319e-03  8.69844768e-04  1.06475374e-02 -1.62804835e-03
 -1.87995855e-01 -4.78863003e-02  6.10236161e-03  1.25590062e-02 -5.43027312e-03
 -9.49834051e-02 -2.28954530e-02  2.90100967e-04  1.01826311e-02 -4.07596871e-03
 -1.68372327e-01 -3.63323230e-02  7.28396229e-03 -7.01958797e-03  1.01140530e-02
  3.12397501e-02  4.11091010e-03  3.56806738e-03  4.18849583e-04 -7.52996620e-04
 -4.30289121e-02 -1.00660146e-02 -5.33984669e-03  3.90736278e-03  4.90551942e-04
  1.86674401e-01  3.95804661e-02  9.28272692e-03 -1.29512750e-02  8.55169608e-03
 -6.95668357e-04  3.51395870e-02  4.04868823e-02  6.26161907e-02  1.42646687e-01
 -2.94624080e-02  1.12671026e-02  5.80072952e-02 -1.21932433e-02  2.15230413e-03
 -1.30206628e-03 -2.28049515e-03 -4.00365778e-04 -3.94973833e-03 -4.25862090e-04
 -2.87020678e-02 -1.35288506e-02 -8.96269174e-02  1.50696096e-01 -5.01007937e-02
 -5.29046588e-02  4.57835138e-02 -1.18131011e-02  1.00087282e-03 -1.70970079e-03
 -8.89985654e-04  6.89661343e-03  8.33571528e-03 -4.03110533e-03  2.91828000e-02