Generated by Psi4
        SP                           RHF                       CC-PVDZ
Number of atoms                            I               11
Charge                                     I                0
Multiplicity                               I                1
Number of electrons                        I               38
Number of alpha electrons                  I               19
Number of beta electrons                   I               19
Number of basis functions                  I              100
Number of independent functions            I              100
Atomic numbers                             I   N=          11
           6           6           6           6           8           1
           1           1           1           1           1
Nuclear charges                            R   N=          11
  6.00000000e+00  6.00000000e+00  6.00000000e+00  6.00000000e+00  8.00000000e+00
  1.00000000e+00  1.00000000e+00  1.00000000e+00  1.00000000e+00  1.00000000e+00
  1.00000000e+00
Current cartesian coordinates              R   N=          33
  2.02201037e+00  2.71158602e+00 -2.15539858e-01 -7.88766227e-01  2.38465637e+00
 -1.07370140e-01 -2.08679503e+00  1.90886259e-01  1.21310948e-02 -9.23271226e-01
 -2.34134066e+00  7.05517890e-02  1.33764685e+00 -2.76426562e+00  2.20290758e-01
  2.94613006e+00  1.18243153e+00 -1.27124749e+00  2.52729846e+00  4.56687344e+00
 -1.00882850e+00  2.81508647e+00  2.61969633e+00  1.71509292e+00 -2.30125770e+00
 -3.94862713e+00 -2.92031304e-02 -4.15524682e+00  2.43909347e-01  6.21922076e-02
 -1.90512022e+00  4.13162495e+00 -1.03837108e-01
Integer atomic weights                     I   N=          11
          12          12          12          12          16           1
           1           1           1           1           1
Real atomic weights                        R   N=          11
  1.20000000e+01  1.20000000e+01  1.20000000e+01  1.20000000e+01  1.59949146e+01
  1.00782503e+00  1.00782503e+00  1.00782503e+00  1.00782503e+00  1.00782503e+00
  1.00782503e+00
Number of primitive shells                 I              140
Number of contracted shells                I               48
Pure/Cartesian d shells                    I                0
Pure/Cartesian f shells                    I                0
Highest angular momentum                   I                2
Largest degree of contraction              I                8
Shell types                                I   N=          48
           0           0           0           1           1          -2
           0           0           0           1           1          -2
           0           0           0           1           1          -2
           0           0           0           1           1          -2
           0           0           0           1           1          -2
           0           0           1           0           0           1
           0           0           1           0           0           1
           0           0           1           0           0           1
Number of primitives per shell             I   N=          48
           8           8           1           3           1           1
           8           8           1           3           1           1
           8           8           1           3           1           1
           8           8           1           3           1           1
           8           8           1           3           1           1
           3           1           1           3           1           1
           3           1           1           3           1           1
           3           1           1           3           1           1
Shell to atom map                          I   N=          48
           1           1           1           1           1           1
           2           2           2           2           2           2
           3           3           3           3           3           3
           4           4           4           4           4           4
           5           5           5           5           5           5
           6           6           6           7           7           7
           8           8           8           9           9           9
          10          10          10          11          11          11
Primitive exponents                        R   N=         140
  6.66500000e+03  1.00000000e+03  2.28000000e+02  6.47100000e+01  2.10600000e+01
  7.49500000e+00  2.79700000e+00  5.21500000e-01  6.66500000e+03  1.00000000e+03
  2.28000000e+02  6.47100000e+01  2.10600000e+01  7.49500000e+00  2.79700000e+00
  5.21500000e-01  1.59600000e-01  9.43900000e+00  2.00200000e+00  5.45600000e-01
  1.51700000e-01  5.50000000e-01  6.66500000e+03  1.00000000e+03  2.28000000e+02
  6.47100000e+01  2.10600000e+01  7.49500000e+00  2.79700000e+00  5.21500000e-01
  6.66500000e+03  1.00000000e+03  2.28000000e+02  6.47100000e+01  2.10600000e+01
  7.49500000e+00  2.79700000e+00  5.21500000e-01  1.59600000e-01  9.43900000e+00
  2.00200000e+00  5.45600000e-01  1.51700000e-01  5.50000000e-01  6.66500000e+03
  1.00000000e+03  2.28000000e+02  6.47100000e+01  2.10600000e+01  7.49500000e+00
  2.79700000e+00  5.21500000e-01  6.66500000e+03  1.00000000e+03  2.28000000e+02
  6.47100000e+01  2.10600000e+01  7.49500000e+00  2.79700000e+00  5.21500000e-01
  1.59600000e-01  9.43900000e+00  2.00200000e+00  5.45600000e-01  1.51700000e-01
  5.50000000e-01  6.66500000e+03  1.00000000e+03  2.28000000e+02  6.47100000e+01
  2.10600000e+01  7.49500000e+00  2.79700000e+00  5.21500000e-01  6.66500000e+03
  1.00000000e+03  2.28000000e+02  6.47100000e+01  2.10600000e+01  7.49500000e+00
  2.79700000e+00  5.21500000e-01  1.59600000e-01  9.43900000e+00  2.00200000e+00
  5.45600000e-01  1.51700000e-01  5.50000000e-01  1.17200000e+04  1.75900000e+03
  4.00800000e+02  1.13700000e+02  3.70300000e+01  1.32700000e+01  5.02500000e+00
  1.01300000e+00  1.17200000e+04  1.75900000e+03  4.00800000e+02  1.13700000e+02
  3.70300000e+01  1.32700000e+01  5.02500000e+00  1.01300000e+00  3.02300000e-01
  1.77000000e+01  3.85400000e+00  1.04600000e+00  2.75300000e-01  1.18500000e+00
  1.30100000e+01  1.96200000e+00  4.44600000e-01  1.22000000e-01  7.27000000e-01
  1.30100000e+01  1.96200000e+00  4.44600000e-01  1.22000000e-01  7.27000000e-01
  1.30100000e+01  1.96200000e+00  4.44600000e-01  1.22000000e-01  7.27000000e-01
  1.30100000e+01  1.96200000e+00  4.44600000e-01  1.22000000e-01  7.27000000e-01
  1.30100000e+01  1.96200000e+00  4.44600000e-01  1.22000000e-01  7.27000000e-01
  1.30100000e+01  1.96200000e+00  4.44600000e-01  1.22000000e-01  7.27000000e-01
Contraction coefficients                   R   N=         140
  6.91583963e-04  5.32579615e-03  2.70607210e-02  1.01656846e-01  2.74574824e-01
  4.48294319e-01  2.84902611e-01  1.51948592e-02 -2.93269653e-04 -2.31803547e-03
 -1.14997860e-02 -4.68267270e-02 -1.28466169e-01 -3.01266272e-01 -2.55630702e-01
  1.09379336e+00  1.00000000e+00  5.69792516e-02  3.13207212e-01  7.60376742e-01
  1.00000000e+00  1.00000000e+00  6.91583963e-04  5.32579615e-03  2.70607210e-02
  1.01656846e-01  2.74574824e-01  4.48294319e-01  2.84902611e-01  1.51948592e-02
 -2.93269653e-04 -2.31803547e-03 -1.14997860e-02 -4.68267270e-02 -1.28466169e-01
 -3.01266272e-01 -2.55630702e-01  1.09379336e+00  1.00000000e+00  5.69792516e-02
  3.13207212e-01  7.60376742e-01  1.00000000e+00  1.00000000e+00  6.91583963e-04
  5.32579615e-03  2.70607210e-02  1.01656846e-01  2.74574824e-01  4.48294319e-01
  2.84902611e-01  1.51948592e-02 -2.93269653e-04 -2.31803547e-03 -1.14997860e-02
 -4.68267270e-02 -1.28466169e-01 -3.01266272e-01 -2.55630702e-01  1.09379336e+00
  1.00000000e+00  5.69792516e-02  3.13207212e-01  7.60376742e-01  1.00000000e+00
  1.00000000e+00  6.91583963e-04  5.32579615e-03  2.70607210e-02  1.01656846e-01
  2.74574824e-01  4.48294319e-01  2.84902611e-01  1.51948592e-02 -2.93269653e-04
 -2.31803547e-03 -1.14997860e-02 -4.68267270e-02 -1.28466169e-01 -3.01266272e-01
 -2.55630702e-01  1.09379336e+00  1.00000000e+00  5.69792516e-02  3.13207212e-01
  7.60376742e-01  1.00000000e+00  1.00000000e+00  7.09645947e-04  5.46727229e-03
  2.78231186e-02  1.04747740e-01  2.82920846e-01  4.48495239e-01  2.70816885e-01
  1.54502916e-02 -3.14443412e-04 -2.48213768e-03 -1.23163554e-02 -5.05389173e-02
 -1.39384903e-01 -3.25077495e-01 -2.29848308e-01  1.09537935e+00  1.00000000e+00
  6.26791663e-02  3.33536566e-01  7.41239642e-01  1.00000000e+00  1.00000000e+00
  3.34987264e-02  2.34800801e-01  8.13682958e-01  1.00000000e+00  1.00000000e+00
  3.34987264e-02  2.34800801e-01  8.13682958e-01  1.00000000e+00  1.00000000e+00
  3.34987264e-02  2.34800801e-01  8.13682958e-01  1.00000000e+00  1.00000000e+00
  3.34987264e-02  2.34800801e-01  8.13682958e-01  1.00000000e+00  1.00000000e+00
  3.34987264e-02  2.34800801e-01  8.13682958e-01  1.00000000e+00  1.00000000e+00
  3.34987264e-02  2.34800801e-01  8.13682958e-01  1.00000000e+00  1.00000000e+00
Coordinates of each shell                  R   N=         144
  2.02201037e+00  2.71158602e+00 -2.15539858e-01  2.02201037e+00  2.71158602e+00
 -2.15539858e-01  2.02201037e+00  2.71158602e+00 -2.15539858e-01  2.02201037e+00
  2.71158602e+00 -2.15539858e-01  2.02201037e+00  2.71158602e+00 -2.15539858e-01
  2.02201037e+00  2.71158602e+00 -2.15539858e-01 -7.88766227e-01  2.38465637e+00
 -1.07370140e-01 -7.88766227e-01  2.38465637e+00 -1.07370140e-01 -7.88766227e-01
  2.38465637e+00 -1.07370140e-01 -7.88766227e-01  2.38465637e+00 -1.07370140e-01
 -7.88766227e-01  2.38465637e+00 -1.07370140e-01 -7.88766227e-01  2.38465637e+00
 -1.07370140e-01 -2.08679503e+00  1.90886259e-01  1.21310948e-02 -2.08679503e+00
  1.90886259e-01  1.21310948e-02 -2.08679503e+00  1.90886259e-01  1.21310948e-02
 -2.08679503e+00  1.90886259e-01  1.21310948e-02 -2.08679503e+00  1.90886259e-01
  1.21310948e-02 -2.08679503e+00  1.90886259e-01  1.21310948e-02 -9.23271226e-01
 -2.34134066e+00  7.05517890e-02 -9.23271226e-01 -2.34134066e+00  7.05517890e-02
 -9.23271226e-01 -2.34134066e+00  7.05517890e-02 -9.23271226e-01 -2.34134066e+00
  7.05517890e-02 -9.23271226e-01 -2.34134066e+00  7.05517890e-02 -9.23271226e-01
 -2.34134066e+00  7.05517890e-02  1.33764685e+00 -2.76426562e+00  2.20290758e-01
  1.33764685e+00 -2.76426562e+00  2.20290758e-01  1.33764685e+00 -2.76426562e+00
  2.20290758e-01  1.33764685e+00 -2.76426562e+00  2.20290758e-01  1.33764685e+00
 -2.76426562e+00  2.20290758e-01  1.33764685e+00 -2.76426562e+00  2.20290758e-01
  2.94613006e+00  1.18243153e+00 -1.27124749e+00  2.94613006e+00  1.18243153e+00
 -1.27124749e+00  2.94613006e+00  1.18243153e+00 -1.27124749e+00  2.52729846e+00
  4.56687344e+00 -1.00882850e+00  2.52729846e+00  4.56687344e+00 -1.00882850e+00
  2.52729846e+00  4.56687344e+00 -1.00882850e+00  2.81508647e+00  2.61969633e+00
  1.71509292e+00  2.81508647e+00  2.61969633e+00  1.71509292e+00  2.81508647e+00
  2.61969633e+00  1.71509292e+00 -2.30125770e+00 -3.94862713e+00 -2.92031304e-02
 -2.30125770e+00 -3.94862713e+00 -2.92031304e-02 -2.30125770e+00 -3.94862713e+00
 -2.92031304e-02 -4.15524682e+00  2.43909347e-01  6.21922076e-02 -4.15524682e+00
  2.43909347e-01  6.21922076e-02 -4.15524682e+00  2.43909347e-01  6.21922076e-02
 -1.90512022e+00  4.13162495e+00 -1.03837108e-01 -1.90512022e+00  4.13162495e+00
 -1.03837108e-01 -1.90512022e+00  4.13162495e+00 -1.03837108e-01
Total Energy                               R     -2.312416164843981e+02
Alpha Orbital Energies                     R   N=         100
 -1.91347438e+01 -1.02728342e+01 -1.02227209e+01 -1.01974262e+01 -1.01923945e+01
 -1.03871866e+00 -8.09142935e-01 -7.18071466e-01 -6.29169468e-01 -5.32695186e-01
 -4.96175739e-01 -4.42097981e-01 -4.31355213e-01 -4.21159255e-01 -3.86153401e-01
 -3.79227099e-01 -3.74534712e-01 -2.73740845e-01 -2.49868868e-01 -6.56600236e-02
  5.58722460e-02  6.17070061e-02  8.81606086e-02  1.04357020e-01  1.29752230e-01
  1.46012864e-01  1.54857899e-01  2.16150738e-01  2.59958759e-01  3.23781193e-01
  3.40658373e-01  4.29657606e-01  4.38240300e-01  4.52548105e-01  4.77098157e-01
  4.84093843e-01  5.08280585e-01  5.26209683e-01  5.61463904e-01  6.04495727e-01
  6.13455756e-01  6.26456600e-01  6.35409863e-01  6.48732667e-01  6.62570212e-01
  6.85404450e-01  7.00986830e-01  7.65538896e-01  8.28286627e-01  8.55138337e-01
  9.11748175e-01  9.34847443e-01  9.78554727e-01  9.90584718e-01  1.02021914e+00
  1.03736059e+00  1.07796831e+00  1.15648453e+00  1.18125020e+00  1.19870432e+00
  1.29766832e+00  1.36400593e+00  1.38843969e+00  1.44549062e+00  1.47405473e+00
  1.49338555e+00  1.54712721e+00  1.56478197e+00  1.61842868e+00  1.62162695e+00
  1.64778625e+00  1.66491647e+00  1.67101191e+00  1.68914315e+00  1.72799944e+00
  1.75205053e+00  1.78863979e+00  1.80463247e+00  1.84714505e+00  1.91897584e+00
  1.95765669e+00  1.97717831e+00  2.01513018e+00  2.06556316e+00  2.11079508e+00
  2.22594331e+00  2.31062265e+00  2.33362146e+00  2.39598148e+00  2.41288871e+00
  2.42529195e+00  2.48978745e+00  2.57762380e+00  2.65122057e+00  2.69505071e+00
  2.78704568e+00  2.96496378e+00  3.06601066e+00  3.42020300e+00  3.48041877e+00
Alpha MO coefficients                      R   N=       10000
 -4.39329469e-05 -9.90191510e-05 -3.00958587e-05  6.51629855e-05  2.28915719e-05
  1.48975754e-05 -1.18567045e-06  8.22865988e-05  1.86847607e-04  5.13083749e-05
  2.69812250e-05  5.95276298e-05  5.83612436e-05 -1.05161357e-04 -2.30081184e-04
 -4.08433107e-04  5.90417400e-03 -1.91717870e-05 -1.04752690e-05 -2.15840597e-05
 -1.11206253e-03 -2.60806782e-03  1.91646313e-04 -4.39359616e-05 -9.26937735e-06
  4.24753222e-07 -4.37670781e-05 -3.83174003e-05  2.25430429e-04  3.46659556e-04
 -4.62713839e-03  1.97046871e-05  2.92520326e-04 -1.70607914e-05 -4.82621600e-03
 -3.63136744e-03  4.79166374e-05  1.45642580e-04 -5.31637165e-06  5.70588974e-05
 -3.22669825e-04  5.12717186e-04  4.41213389e-04  5.76086942e-04  5.49145320e-03
 -1.09575291e-04 -1.72021675e-04 -6.94595306e-06  6.70068506e-03  6.50030260e-04
  3.61629354e-04 -4.36699305e-05 -5.42215531e-05  2.74257319e-05 -1.14792636e-03
  5.28631232e-04  1.00417069e+00  9.47135691e-03 -1.51669319e-02 -1.82792296e-03
  3.64489379e-04 -1.37540811e-04  3.50119224e-03 -8.69836911e-04  2.54262682e-04
 -2.06821088e-05  8.31909032e-06 -1.81949756e-08  6.55633451e-05  8.12726624e-06
 -8.14468533e-05 -2.54498638e-05  5.52604771e-05  4.06425080e-05 -5.80391520e-06
  1.05947674e-04  2.78349866e-04 -6.59842181e-05 -7.99281271e-05  2.75363585e-05
 -5.49381797e-05 -2.35882073e-04  5.59635784e-05  3.58612150e-05  4.30180418e-05
 -1.24756177e-04  9.71111166e-04 -7.62442265e-04  1.21460409e-04 -4.24116485e-05
 -2.69744040e-04 -1.36367158e-03  1.89167411e-04  2.61283598e-04  1.09799283e-05
 -1.73923884e-04  2.98103447e-04  5.79009417e-05  8.95350583e-05 -1.18971441e-05
 -3.31125414e-04 -4.26055880e-04  8.34827974e-04  2.97343914e-04  5.56447413e-05
 -1.04344555e-05 -5.81009241e-04  2.91946003e-04  1.15130042e-04  1.80056321e-05
 -1.22487102e-05  3.40559558e-05 -1.26549863e-04 -7.90566839e-05 -4.26141960e-04
 -6.30379192e-04  7.03661999e-03 -2.69075675e-04 -2.76885732e-05  1.21235015e-05
 -2.40175792e-03 -4.13452965e-03  2.32567150e-04 -4.44137137e-04 -7.46163225e-05
 -4.70302000e-05  3.38465234e-04  3.89844743e-04  1.62945078e-03 -2.34977853e-04
 -2.46085247e-03 -3.39328240e-04  7.47187550e-04 -1.26435500e-05 -2.81801895e-03
 -6.30276751e-03  2.25273622e-04  1.05809109e-03 -4.68443415e-05  6.42442092e-05
  1.17836681e-03  8.01460769e-04  1.00592490e+00  1.52478751e-02 -1.08371936e-02
  7.16620516e-04 -4.91330961e-04  5.32125726e-05  5.46261662e-03 -2.11295561e-03
  2.51397931e-04 -1.64132902e-03  2.63832383e-04  9.50695329e-06  8.15196856e-04
  3.13996269e-05  3.68096202e-04  9.14909967e-04 -5.94783039e-03  7.34109937e-04
 -2.22655066e-04  3.92141412e-05  3.37798930e-03 -2.41416092e-04  2.57824311e-04
  5.59078124e-04 -1.09850571e-04  1.63962496e-05 -7.05845461e-04  2.72429612e-04
 -7.50054075e-05  7.34665547e-05  7.82329306e-05  3.17012628e-05 -1.51179619e-05
 -4.19638307e-05  2.65028103e-04 -5.90042911e-05 -4.63133921e-05 -2.80744620e-06
 -4.93861118e-05 -6.14456995e-05  8.31317602e-05  2.05148022e-05 -2.39549024e-05
 -1.64876482e-03  2.49858888e-03 -1.46403222e-03 -1.44459249e-03 -9.52592695e-05
 -4.82819358e-04 -4.65370282e-04  6.74764115e-05  3.27201444e-04 -1.67557166e-05
 -3.36014928e-05  6.55675091e-04  2.40318220e-04  1.08383451e-04 -1.16664329e-05
  3.32756001e-03 -4.57960080e-04  4.36127644e-03  7.46825260e-04  9.54073677e-05
  5.78290799e-05 -2.31050649e-03 -1.10740796e-03 -4.92985744e-04  7.95948728e-04
  1.25501146e-04 -6.65410478e-06 -1.04136466e-03 -2.44306126e-06  1.00628331e+00
  1.60677112e-02 -1.97796959e-02 -5.49426247e-04  2.36397078e-04  3.65770347e-05
 -2.15535880e-03  3.57019132e-03  5.69676186e-05 -1.09285002e-03 -2.70795565e-06
 -3.95818200e-05 -5.18774870e-04 -2.20134193e-04  1.30620764e-02 -1.30273806e-03
  4.65630575e-03 -7.82312670e-04 -1.10700568e-03  7.73273497e-05  2.66817837e-03
  2.32153824e-03 -2.22783557e-04  8.91443215e-04  7.23537059e-05  1.13891471e-04
  5.74762692e-04 -9.76225361e-04 -2.61039673e-04 -5.09330076e-04  1.03671412e-03
 -4.13290185e-05 -2.06210290e-04  1.12548115e-05 -1.72025619e-04  1.03971003e-03
  1.92085055e-05 -3.42730613e-04 -7.72359383e-06 -9.14981240e-06  1.92891524e-04
 -1.02276840e-04 -3.25708632e-05 -7.19520881e-05 -2.51156295e-04  1.24816051e-04
 -2.52920529e-06  1.75136519e-05 -4.27318319e-05 -2.58628756e-04 -6.32715162e-07
  1.14365433e-05 -1.43422462e-05  4.21375175e-06 -1.21283045e-05  1.38727306e-05
 -4.31403365e-04  1.26768450e-04 -2.56686198e-05  3.67781695e-05  7.80029227e-05
 -3.52939363e-04  2.94117202e-04  7.37795887e-05  8.31240706e-05  6.47822794e-05
 -4.76003821e-04  1.19979733e-03 -1.28197012e-04  1.76286537e-05  1.80980296e-05
 -2.04918820e-05  4.17631659e-04  5.44683599e-05 -5.25033547e-05 -7.36700333e-06
  9.64693432e-05  9.23754902e-04  1.22110552e-04 -2.30329935e-04  1.51244771e-05
 -2.33390946e-03  1.20922320e-03 -1.20808676e-03  1.77468201e-03  1.05903355e-05
  1.66116338e-03  3.95678049e-04  7.73734312e-06 -8.33106028e-05 -1.11791849e-04
  7.93105303e-05  7.10163895e-04 -1.90830718e-04 -1.23251080e-04  3.14536717e-04
  7.59903251e-05 -2.35665906e-05 -8.61050442e-05  2.20133833e-04  1.45961048e-02
  1.80702290e-03 -6.83060847e-03 -6.10456701e-04 -1.21410154e-03  6.63894627e-05
  5.81516685e-04  4.19785602e-03 -1.36148351e-04 -9.32434896e-04 -4.56754966e-05
 -9.69266605e-05 -5.10647450e-04  1.03105441e-03 -1.00648377e+00 -1.65508653e-02
  2.15797218e-02  3.23480592e-04 -3.06758554e-04  3.22093517e-05  5.58386862e-03
  3.57601204e-04 -1.76720148e-04  1.08772180e-03  7.99764689e-05  6.81164956e-05
 -3.73737514e-04 -3.89385258e-04  1.94983804e-03  8.10694813e-04 -5.78834299e-03
 -2.53246114e-04  7.47823184e-04 -6.57631772e-08 -6.87650450e-04 -3.51164606e-03
  4.78943378e-05 -6.91715441e-04 -3.19164010e-05 -6.43256969e-05 -6.39710909e-04
 -1.18863756e-03 -4.54500111e-05 -7.88541550e-05  9.30362246e-04 -2.69199292e-05
  7.47482238e-05  2.20900878e-05  9.62048145e-05  5.98343134e-04 -4.71505743e-05
  1.31965635e-04 -3.31735609e-05 -1.64503837e-05 -7.40528955e-05 -2.17781223e-04
  1.65079344e-04 -3.91212653e-04 -2.56757662e-05 -4.13584697e-05  5.68075334e-05
 -4.97310933e-05 -2.06036394e-04 -3.50433484e-05  6.92550612e-05  1.40218496e-05
 -5.15899005e-05 -1.25867911e-04 -4.99510272e-05 -6.06300416e-05  1.39302178e-04
  2.46109480e-04 -1.00664422e-03 -7.41000079e-05  2.05101945e-04 -2.27869274e-05
  2.44550059e-03 -7.74394451e-04  2.13784728e-03 -1.71955524e-04 -4.44028626e-05
 -9.80327534e-05 -1.01470905e-03 -2.60533249e-04  2.85890317e-05  1.24471455e-05
  1.00698228e+00  1.74190900e-02 -1.94497462e-02  4.52219909e-04  1.31194809e-04
  1.39152357e-04  2.93811082e-03  1.91542988e-04 -5.51373562e-04  2.20111038e-04
  3.23866130e-05 -5.47651978e-05 -5.87980408e-04 -1.44786796e-04 -3.57574678e-03
 -3.03707529e-04  1.82667953e-03 -4.95587216e-04  5.85255791e-05  2.42822382e-05
  4.51690924e-03  2.34975508e-03 -1.65903576e-04  6.14293388e-04  1.26116981e-04
  2.20389821e-05 -1.34055916e-03 -5.76899867e-04  1.09530176e-03 -5.34542761e-04
  3.47966408e-03 -1.92585234e-04  9.16298934e-05  1.08593930e-05  9.17566150e-04
  2.66858556e-03 -1.64898906e-04 -3.45714706e-04  7.65719038e-06 -2.45818943e-05
 -5.63778871e-04 -2.05757483e-04 -1.03166085e-04 -4.61083887e-04  6.58362985e-04
 -3.27855331e-05 -2.74262168e-04 -8.64637473e-06 -1.14017283e-04  5.30290646e-04
  3.98563901e-05 -1.52737062e-05 -2.24055280e-05  3.78627682e-06  4.22098115e-05
  3.69724870e-05 -7.26271803e-05 -1.44955554e-04  1.63724936e-04  8.72679137e-06
 -1.15609918e-04 -1.02289500e-05 -1.09066880e-04  2.23087814e-04  4.10611209e-05
 -4.32232946e-05  1.52560050e-06  1.68457450e-06  1.56353209e-06 -5.03795740e-07
 -1.23249208e-03  1.91693635e-03  6.99850657e-04 -1.44546575e-03 -1.00361183e-03
 -1.34312760e-03  1.92580634e-03  4.36734461e-04  1.80412010e-03 -7.56591222e-04
 -1.09568350e-03  2.34205245e-03  5.57507290e-04 -9.58430269e-05  1.81466407e-03
  1.64202995e-05  3.88459174e-04  6.60398072e-06  6.92966981e-05 -7.57501902e-06
  5.59326876e-05  3.66553531e-04  9.68637322e-05 -2.05852643e-04  1.00407887e-05
 -4.34552064e-04  2.42084001e-04 -3.68336955e-04 -1.14300105e-04  2.01549240e-05
 -4.82971342e-04  6.37933536e-03  5.70252119e-03 -3.06438466e-03 -3.05786973e-03
 -3.06793328e-05 -3.05668442e-03 -2.57973134e-03  1.00167547e-03 -6.15312982e-04
 -1.99702105e-04 -2.25194040e-04  1.83260035e-04  9.21940678e-04  5.97181494e-04
  1.66063763e-02 -1.32376284e-02 -1.70143084e-04 -1.05916717e-02  5.63912753e-04
 -2.19856797e-03  1.00672087e-02 -5.84598305e-04 -4.48828533e-04 -1.17519812e-04
 -2.59231356e-04 -1.68079885e-03  7.34712054e-04 -3.63278529e-03  3.68567584e-02
  3.28622444e-02  2.08545843e-02 -2.06071658e-02  9.23509870e-04  2.01733717e-02
  1.39475036e-03 -1.49801234e-04 -3.79333201e-03  2.36623500e-04 -5.81930733e-04
 -1.08097414e-03 -9.04479963e-03 -1.45844533e-02  2.24871906e-01  9.44608171e-02
  1.84163085e-01 -2.59343734e-02  1.21360945e-02  1.20580421e-02 -3.08755094e-03
  1.08538797e-03 -1.34476709e-02  3.47291016e-03 -1.04310270e-03  3.09747818e-02
 -1.41677048e-02 -9.11609267e-03  4.02233384e-01  3.60360544e-01 -1.54909427e-01
  3.20615449e-02 -1.06709492e-02 -3.16523321e-02  7.26004091e-03 -2.58594321e-03
 -5.21555079e-03  1.38651151e-03 -5.02710693e-04  1.20660805e-02 -5.18615207e-03
  4.93103199e-03  2.92573973e-03 -6.41141164e-04 -4.86698461e-04  5.88811906e-04
  9.80179205e-04  5.29836182e-05  2.64774059e-05  1.30079522e-05 -4.10035854e-05
  1.82168055e-03  8.39586847e-04 -2.66411076e-04 -1.89591691e-04 -4.39253017e-04
  3.95081526e-02 -3.61536761e-03  1.01844776e-02  5.88709739e-03  6.67346770e-04
  7.21819267e-03  6.03137379e-03  9.61754079e-04 -1.95299860e-03 -1.56077463e-05
  1.80186366e-03 -3.29324662e-03 -2.27681622e-04 -8.35828965e-04  6.77556944e-05
  1.09738640e-02 -1.81057334e-01 -7.48520310e-02  6.54707111e-02  1.30112784e-02
 -4.81594303e-03  3.03812236e-03 -8.47087197e-03  1.05363723e-03  5.62166171e-03
  8.29384038e-04  3.27112152e-05 -9.78176818e-03 -3.62676351e-03  1.98036936e-02
 -2.91501519e-01 -2.01262081e-01 -4.16812902e-04  6.59897344e-02 -2.62610609e-03
 -3.24841754e-02  2.09882556e-02  9.07450153e-05  9.97529500e-03  8.42904507e-04
  8.55583187e-04 -2.69173623e-03 -1.13742179e-02  1.70939434e-02 -2.54371933e-01
 -1.42013017e-01 -5.82147842e-02 -5.76246730e-02  4.54591180e-03 -3.00267017e-03
 -2.40473129e-02  1.17497110e-03  6.93123367e-03  6.42905196e-04  8.76786587e-04
  8.74718854e-03 -9.17317404e-03  2.45416581e-03 -6.39608339e-02 -5.16659234e-02
  6.90314173e-02 -8.04165433e-02  5.26564368e-03  2.50906180e-02 -2.24624415e-02
  1.39235379e-03  2.64732007e-03  6.57237924e-04  3.17439878e-04  1.35761481e-02
  2.65070643e-03 -3.35239092e-04  7.53083618e-02  7.17446284e-02 -1.13894528e-02
 -1.61832852e-02 -2.24502830e-04  1.64845330e-03 -6.70430429e-03  5.67508667e-04
  1.85127539e-04  6.34741235e-05  1.76771206e-04  1.60515748e-03  1.58448877e-03
 -6.68977861e-02 -3.33116166e-03  5.10012653e-03 -7.23014674e-03 -5.28486053e-03
 -6.28255649e-02 -1.48623389e-03  4.06987960e-03  8.74432464e-03 -3.69538484e-03
 -6.76101619e-02 -3.60180270e-03  4.70532055e-03  2.82811847e-04  9.01386905e-03
 -1.80594443e-02  9.83612598e-04  2.69336192e-05 -3.38292667e-03  3.62401372e-05
 -8.44712627e-02 -2.48228279e-03 -1.44018901e-02 -1.44338701e-03  4.64285158e-04
 -1.02178569e-01 -1.28677017e-02 -7.11805574e-03  1.42881710e-02 -2.37224747e-05
  1.40186089e-02 -2.87261822e-01 -1.19458964e-01  1.91659538e-02 -1.07194876e-02
 -4.88078633e-03 -1.74792376e-02 -8.51529920e-03  4.68721853e-04  1.45752992e-03
  1.88091247e-04 -1.80188625e-04 -3.09100642e-03  2.20520701e-03  5.28878045e-03
 -4.82974652e-02 -8.45633086e-02 -1.38905076e-01 -9.49784314e-02  6.92521675e-03
 -9.39595078e-02 -9.10753944e-03  2.89913499e-03  3.85651660e-03  5.44181236e-04
 -3.83697510e-04 -1.71207130e-02  3.08205028e-03 -1.39681761e-02  2.28206349e-01
  1.66474884e-01 -5.86366931e-03 -5.46116959e-02  1.04786153e-03  3.63973927e-02
 -4.08072389e-02  1.48640602e-04 -4.82008293e-03  1.48940573e-04 -3.33890298e-04
 -1.00335751e-02 -4.90810199e-03 -3.06060443e-03  1.51625199e-01  6.14177136e-02
 -1.06729439e-01  7.90433537e-02 -5.41983450e-03 -3.73405110e-02  7.83378455e-03
 -1.77939569e-03 -1.65837577e-03 -5.54569467e-04 -1.21817149e-04 -1.01852505e-02
 -5.08550717e-03 -2.88150955e-04 -8.44182484e-02 -8.35624504e-02 -1.81229804e-02
  1.00696589e-02  3.50928638e-04 -2.04313605e-02  3.54717473e-03 -7.14955194e-04
 -9.66078911e-04  1.48587517e-04  5.74180501e-05  8.75952445e-04 -2.03274588e-03
 -1.21656355e-01 -1.68004393e-02  7.33995716e-03 -1.24766459e-02 -8.49975726e-03
 -1.34699059e-01 -1.60713446e-02  4.61725664e-03  1.59829992e-02 -7.22955280e-03
 -1.30559365e-01 -1.60476465e-02  6.51330341e-03 -1.38420646e-03  1.61350301e-02
  7.01872220e-02  2.47056847e-03  3.51789576e-03  8.58450798e-03  3.01242604e-04
  1.15116112e-01  2.33146505e-02  1.46040922e-02 -1.45366147e-03 -3.20157453e-04
 -2.96727973e-02 -1.64347830e-02 -4.18145730e-03  8.66919776e-04  2.38671919e-04
  5.33137375e-03 -1.75347235e-01 -9.62178319e-02 -7.43571949e-02 -6.95341388e-03
 -1.93971420e-03 -3.81592174e-02 -6.70415457e-03  6.58978110e-03 -4.90750554e-03
 -8.73480579e-04 -1.79263754e-04  7.28584335e-03  1.03111771e-03 -5.25002282e-03
  2.08967479e-01  9.79693975e-02 -1.38829779e-01 -1.56260009e-02  5.56229670e-03
 -4.14167213e-02 -9.83554902e-04 -1.52912286e-04  2.53670240e-03 -2.29860985e-04
 -2.69029115e-04 -4.97950531e-03  2.92877761e-03 -1.33201012e-03 -1.38706604e-03
  9.95754689e-03  1.49140536e-02  2.49058425e-01 -7.58793810e-03  8.12393139e-03
  7.64676988e-02 -1.45040867e-03  4.83972034e-04 -1.74976002e-04 -6.97837074e-04
  2.00378294e-03  1.12180968e-02  2.33335592e-03 -2.37608088e-01 -1.54686606e-01
  1.55960572e-01 -2.91599778e-02  8.96054214e-03  4.85282408e-02 -1.87386503e-02
  3.14180353e-03 -1.09918966e-03  8.96621627e-04 -2.58931505e-05  6.07655524e-03
  2.01122716e-03  9.51655838e-04  1.23454068e-01  1.44141851e-01  5.37458957e-02
 -9.53172346e-03  3.80243507e-03  4.05145561e-02 -6.02169064e-03  3.10356811e-03
  2.55989651e-03 -3.97948549e-04  1.26410907e-04 -2.40842700e-03  7.81683343e-04
 -1.01303891e-01 -8.48171559e-03  3.76833233e-03 -9.69443325e-03 -6.01891197e-03
 -1.01426276e-01 -1.58801235e-02  1.01598878e-03  1.03604369e-02 -4.95016038e-03
 -1.05816709e-01 -2.02698804e-02  3.33056816e-03 -6.92676885e-04  1.11241470e-02
 -1.60012673e-01 -2.82599594e-02 -8.38866577e-03 -1.42786895e-02 -6.46232399e-04
 -5.88574329e-03 -2.69413142e-04 -2.28626812e-04  5.06224500e-03 -1.61556304e-04
  1.45084883e-01  2.50605381e-02  6.56442831e-03 -1.47467277e-02  2.11288261e-04
  1.67004482e-03 -5.08962052e-02 -3.81731559e-02 -1.25342905e-01  8.33230202e-02
  1.83641057e-05 -3.78560029e-02  3.49490503e-02 -1.93280221e-03 -5.53578767e-03
 -4.84548270e-04 -1.59154043e-03  9.94890292e-03 -5.68970356e-03 -2.06501088e-03
  1.43014296e-01  9.42448469e-02  1.40097705e-03  2.23972347e-01 -7.92920673e-03
  2.44713784e-02  7.18164361e-02 -3.31946884e-03  4.26674107e-03  5.15396084e-04
  5.14322533e-04 -4.06903684e-05 -7.08167116e-03  2.68013202e-03 -1.53424252e-01
 -1.02383835e-01 -1.79983179e-02  2.28642111e-03 -2.21076902e-03 -1.77581048e-02
  3.19046668e-02 -1.73527398e-03 -4.31472622e-03  8.59871957e-05 -3.25440921e-04
 -1.34364664e-02  1.73681867e-03  5.28979784e-04  1.57517715e-01  1.20270261e-01
 -6.59707641e-02 -2.37243152e-01 -3.67308751e-03 -4.93368049e-02 -5.40220510e-02
 -2.64674275e-03  5.31290057e-03 -9.95052624e-05  6.58874033e-05 -1.92025986e-06
  1.51857454e-03  1.86944763e-04 -8.64582141e-02 -1.19121860e-01 -1.38979280e-01
 -1.08009878e-01 -5.97526289e-03 -8.27564296e-02 -5.92318659e-02 -3.32275588e-03
 -3.53461377e-03  1.01913193e-03  7.16875010e-04  8.82894847e-03  6.71923604e-03
 -1.13003053e-01 -3.52920084e-02  1.98753290e-03 -5.21662794e-03 -6.31859352e-03
 -7.38031885e-04 -5.23230984e-03 -3.61505844e-03  2.43855549e-03 -2.78133777e-05
 -6.47730567e-02 -2.03043915e-02 -7.56297970e-04  2.30341948e-03  6.10423029e-03
  2.29502081e-01  6.01923405e-02  1.19714948e-02  1.27005868e-02  9.75933711e-04
 -8.24287834e-02 -2.92713800e-02 -8.60389500e-03 -5.03306163e-04  1.84426424e-04
  2.16622044e-01  6.35120936e-02  1.07782064e-02 -1.21476513e-02 -2.05062785e-04
  3.08205307e-03 -4.51453784e-02 -5.25190900e-02 -1.44837728e-01 -9.93441898e-02
  4.82864498e-03 -3.14177229e-02 -3.98871591e-02 -4.43434506e-03 -5.18621896e-03
 -1.30714426e-03  1.94827447e-03  7.58080317e-03  4.80097961e-03  8.75844170e-04
  8.94645507e-02  5.34561934e-02  1.41687898e-01 -1.10515111e-01 -1.90644709e-03
  9.14796675e-02 -2.51533199e-02 -1.29836699e-03  1.95229346e-03  8.17194362e-04
  2.92352992e-04 -9.69114064e-03 -1.04277451e-02  5.38538406e-03 -7.11454743e-02