Generated by Psi4
        SP                           RHF                       CC-PVDZ
Number of atoms                            I               11
Charge                                     I                0
Multiplicity                               I                1
Number of electrons                        I               38
Number of alpha electrons                  I               19
Number of beta electrons                   I               19
Number of basis functions                  I              100
Number of independent functions            I              100
Atomic numbers                             I   N=          11
           6           6           6           6           8           1
           1           1           1           1           1
Nuclear charges                            R   N=          11
  6.00000000e+00  6.00000000e+00  6.00000000e+00  6.00000000e+00  8.00000000e+00
  1.00000000e+00  1.00000000e+00  1.00000000e+00  1.00000000e+00  1.00000000e+00
  1.00000000e+00
Current cartesian coordinates              R   N=          33
  1.95957170e+00  2.62802136e+00 -1.96080680e-01 -8.55746209e-01  2.39675000e+00
 -1.47501094e-01 -2.10054074e+00  1.87213149e-01  1.60120600e-01 -8.60578976e-01
 -2.30231704e+00  7.44523041e-02  1.41001004e+00 -2.70027845e+00  1.24730792e-01
  2.77590943e+00  9.89602711e-01 -1.20278378e+00  2.64164327e+00  4.42654186e+00
 -9.74300323e-01  2.67130668e+00  2.43138874e+00  1.74801712e+00 -2.20472511e+00
 -3.91327817e+00 -1.70095793e-01 -4.16339031e+00  1.52746850e-01  2.93422467e-01
 -1.98414229e+00  4.12346440e+00 -3.75877935e-01
Integer atomic weights                     I   N=          11
          12          12          12          12          16           1
           1           1           1           1           1
Real atomic weights                        R   N=          11
  1.20000000e+01  1.20000000e+01  1.20000000e+01  1.20000000e+01  1.59949146e+01
  1.00782503e+00  1.00782503e+00  1.00782503e+00  1.00782503e+00  1.00782503e+00
  1.00782503e+00
Number of primitive shells                 I              140
Number of contracted shells                I               48
Pure/Cartesian d shells                    I                0
Pure/Cartesian f shells                    I                0
Highest angular momentum                   I                2
Largest degree of contraction              I                8
Shell types                                I   N=          48
           0           0           0           1           1          -2
           0           0           0           1           1          -2
           0           0           0           1           1          -2
           0           0           0           1           1          -2
           0           0           0           1           1          -2
           0           0           1           0           0           1
           0           0           1           0           0           1
           0           0           1           0           0           1
Number of primitives per shell             I   N=          48
           8           8           1           3           1           1
           8           8           1           3           1           1
           8           8           1           3           1           1
           8           8           1           3           1           1
           8           8           1           3           1           1
           3           1           1           3           1           1
           3           1           1           3           1           1
           3           1           1           3           1           1
Shell to atom map                          I   N=          48
           1           1           1           1           1           1
           2           2           2           2           2           2
           3           3           3           3           3           3
           4           4           4           4           4           4
           5           5           5           5           5           5
           6           6           6           7           7           7
           8           8           8           9           9           9
          10          10          10          11          11          11
Primitive exponents                        R   N=         140
  6.66500000e+03  1.00000000e+03  2.28000000e+02  6.47100000e+01  2.10600000e+01
  7.49500000e+00  2.79700000e+00  5.21500000e-01  6.66500000e+03  1.00000000e+03
  2.28000000e+02  6.47100000e+01  2.10600000e+01  7.49500000e+00  2.79700000e+00
  5.21500000e-01  1.59600000e-01  9.43900000e+00  2.00200000e+00  5.45600000e-01
  1.51700000e-01  5.50000000e-01  6.66500000e+03  1.00000000e+03  2.28000000e+02
  6.47100000e+01  2.10600000e+01  7.49500000e+00  2.79700000e+00  5.21500000e-01
  6.66500000e+03  1.00000000e+03  2.28000000e+02  6.47100000e+01  2.10600000e+01
  7.49500000e+00  2.79700000e+00  5.21500000e-01  1.59600000e-01  9.43900000e+00
  2.00200000e+00  5.45600000e-01  1.51700000e-01  5.50000000e-01  6.66500000e+03
  1.00000000e+03  2.28000000e+02  6.47100000e+01  2.10600000e+01  7.49500000e+00
  2.79700000e+00  5.21500000e-01  6.66500000e+03  1.00000000e+03  2.28000000e+02
  6.47100000e+01  2.10600000e+01  7.49500000e+00  2.79700000e+00  5.21500000e-01
  1.59600000e-01  9.43900000e+00  2.00200000e+00  5.45600000e-01  1.51700000e-01
  5.50000000e-01  6.66500000e+03  1.00000000e+03  2.28000000e+02  6.47100000e+01
  2.10600000e+01  7.49500000e+00  2.79700000e+00  5.21500000e-01  6.66500000e+03
  1.00000000e+03  2.28000000e+02  6.47100000e+01  2.10600000e+01  7.49500000e+00
  2.79700000e+00  5.21500000e-01  1.59600000e-01  9.43900000e+00  2.00200000e+00
  5.45600000e-01  1.51700000e-01  5.50000000e-01  1.17200000e+04  1.75900000e+03
  4.00800000e+02  1.13700000e+02  3.70300000e+01  1.32700000e+01  5.02500000e+00
  1.01300000e+00  1.17200000e+04  1.75900000e+03  4.00800000e+02  1.13700000e+02
  3.70300000e+01  1.32700000e+01  5.02500000e+00  1.01300000e+00  3.02300000e-01
  1.77000000e+01  3.85400000e+00  1.04600000e+00  2.75300000e-01  1.18500000e+00
  1.30100000e+01  1.96200000e+00  4.44600000e-01  1.22000000e-01  7.27000000e-01
  1.30100000e+01  1.96200000e+00  4.44600000e-01  1.22000000e-01  7.27000000e-01
  1.30100000e+01  1.96200000e+00  4.44600000e-01  1.22000000e-01  7.27000000e-01
  1.30100000e+01  1.96200000e+00  4.44600000e-01  1.22000000e-01  7.27000000e-01
  1.30100000e+01  1.96200000e+00  4.44600000e-01  1.22000000e-01  7.27000000e-01
  1.30100000e+01  1.96200000e+00  4.44600000e-01  1.22000000e-01  7.27000000e-01
Contraction coefficients                   R   N=         140
  6.91583963e-04  5.32579615e-03  2.70607210e-02  1.01656846e-01  2.74574824e-01
  4.48294319e-01  2.84902611e-01  1.51948592e-02 -2.93269653e-04 -2.31803547e-03
 -1.14997860e-02 -4.68267270e-02 -1.28466169e-01 -3.01266272e-01 -2.55630702e-01
  1.09379336e+00  1.00000000e+00  5.69792516e-02  3.13207212e-01  7.60376742e-01
  1.00000000e+00  1.00000000e+00  6.91583963e-04  5.32579615e-03  2.70607210e-02
  1.01656846e-01  2.74574824e-01  4.48294319e-01  2.84902611e-01  1.51948592e-02
 -2.93269653e-04 -2.31803547e-03 -1.14997860e-02 -4.68267270e-02 -1.28466169e-01
 -3.01266272e-01 -2.55630702e-01  1.09379336e+00  1.00000000e+00  5.69792516e-02
  3.13207212e-01  7.60376742e-01  1.00000000e+00  1.00000000e+00  6.91583963e-04
  5.32579615e-03  2.70607210e-02  1.01656846e-01  2.74574824e-01  4.48294319e-01
  2.84902611e-01  1.51948592e-02 -2.93269653e-04 -2.31803547e-03 -1.14997860e-02
 -4.68267270e-02 -1.28466169e-01 -3.01266272e-01 -2.55630702e-01  1.09379336e+00
  1.00000000e+00  5.69792516e-02  3.13207212e-01  7.60376742e-01  1.00000000e+00
  1.00000000e+00  6.91583963e-04  5.32579615e-03  2.70607210e-02  1.01656846e-01
  2.74574824e-01  4.48294319e-01  2.84902611e-01  1.51948592e-02 -2.93269653e-04
 -2.31803547e-03 -1.14997860e-02 -4.68267270e-02 -1.28466169e-01 -3.01266272e-01
 -2.55630702e-01  1.09379336e+00  1.00000000e+00  5.69792516e-02  3.13207212e-01
  7.60376742e-01  1.00000000e+00  1.00000000e+00  7.09645947e-04  5.46727229e-03
  2.78231186e-02  1.04747740e-01  2.82920846e-01  4.48495239e-01  2.70816885e-01
  1.54502916e-02 -3.14443412e-04 -2.48213768e-03 -1.23163554e-02 -5.05389173e-02
 -1.39384903e-01 -3.25077495e-01 -2.29848308e-01  1.09537935e+00  1.00000000e+00
  6.26791663e-02  3.33536566e-01  7.41239642e-01  1.00000000e+00  1.00000000e+00
  3.34987264e-02  2.34800801e-01  8.13682958e-01  1.00000000e+00  1.00000000e+00
  3.34987264e-02  2.34800801e-01  8.13682958e-01  1.00000000e+00  1.00000000e+00
  3.34987264e-02  2.34800801e-01  8.13682958e-01  1.00000000e+00  1.00000000e+00
  3.34987264e-02  2.34800801e-01  8.13682958e-01  1.00000000e+00  1.00000000e+00
  3.34987264e-02  2.34800801e-01  8.13682958e-01  1.00000000e+00  1.00000000e+00
  3.34987264e-02  2.34800801e-01  8.13682958e-01  1.00000000e+00  1.00000000e+00
Coordinates of each shell                  R   N=         144
  1.95957170e+00  2.62802136e+00 -1.96080680e-01  1.95957170e+00  2.62802136e+00
 -1.96080680e-01  1.95957170e+00  2.62802136e+00 -1.96080680e-01  1.95957170e+00
  2.62802136e+00 -1.96080680e-01  1.95957170e+00  2.62802136e+00 -1.96080680e-01
  1.95957170e+00  2.62802136e+00 -1.96080680e-01 -8.55746209e-01  2.39675000e+00
 -1.47501094e-01 -8.55746209e-01  2.39675000e+00 -1.47501094e-01 -8.55746209e-01
  2.39675000e+00 -1.47501094e-01 -8.55746209e-01  2.39675000e+00 -1.47501094e-01
 -8.55746209e-01  2.39675000e+00 -1.47501094e-01 -8.55746209e-01  2.39675000e+00
 -1.47501094e-01 -2.10054074e+00  1.87213149e-01  1.60120600e-01 -2.10054074e+00
  1.87213149e-01  1.60120600e-01 -2.10054074e+00  1.87213149e-01  1.60120600e-01
 -2.10054074e+00  1.87213149e-01  1.60120600e-01 -2.10054074e+00  1.87213149e-01
  1.60120600e-01 -2.10054074e+00  1.87213149e-01  1.60120600e-01 -8.60578976e-01
 -2.30231704e+00  7.44523041e-02 -8.60578976e-01 -2.30231704e+00  7.44523041e-02
 -8.60578976e-01 -2.30231704e+00  7.44523041e-02 -8.60578976e-01 -2.30231704e+00
  7.44523041e-02 -8.60578976e-01 -2.30231704e+00  7.44523041e-02 -8.60578976e-01
 -2.30231704e+00  7.44523041e-02  1.41001004e+00 -2.70027845e+00  1.24730792e-01
  1.41001004e+00 -2.70027845e+00  1.24730792e-01  1.41001004e+00 -2.70027845e+00
  1.24730792e-01  1.41001004e+00 -2.70027845e+00  1.24730792e-01  1.41001004e+00
 -2.70027845e+00  1.24730792e-01  1.41001004e+00 -2.70027845e+00  1.24730792e-01
  2.77590943e+00  9.89602711e-01 -1.20278378e+00  2.77590943e+00  9.89602711e-01
 -1.20278378e+00  2.77590943e+00  9.89602711e-01 -1.20278378e+00  2.64164327e+00
  4.42654186e+00 -9.74300323e-01  2.64164327e+00  4.42654186e+00 -9.74300323e-01
  2.64164327e+00  4.42654186e+00 -9.74300323e-01  2.67130668e+00  2.43138874e+00
  1.74801712e+00  2.67130668e+00  2.43138874e+00  1.74801712e+00  2.67130668e+00
  2.43138874e+00  1.74801712e+00 -2.20472511e+00 -3.91327817e+00 -1.70095793e-01
 -2.20472511e+00 -3.91327817e+00 -1.70095793e-01 -2.20472511e+00 -3.91327817e+00
 -1.70095793e-01 -4.16339031e+00  1.52746850e-01  2.93422467e-01 -4.16339031e+00
  1.52746850e-01  2.93422467e-01 -4.16339031e+00  1.52746850e-01  2.93422467e-01
 -1.98414229e+00  4.12346440e+00 -3.75877935e-01 -1.98414229e+00  4.12346440e+00
 -3.75877935e-01 -1.98414229e+00  4.12346440e+00 -3.75877935e-01
Total Energy                               R     -2.312394080072936e+02
Alpha Orbital Energies                     R   N=         100
 -1.91350752e+01 -1.02725415e+01 -1.02236675e+01 -1.01971202e+01 -1.01893974e+01
 -1.03961073e+00 -8.11398866e-01 -7.16970543e-01 -6.28413187e-01 -5.34641029e-01
 -4.97578743e-01 -4.40634287e-01 -4.32897579e-01 -4.21143516e-01 -3.85151580e-01
 -3.79837807e-01 -3.75105609e-01 -2.73787440e-01 -2.48826108e-01 -6.48724787e-02
  5.01295169e-02  6.45638308e-02  9.02892330e-02  1.05785979e-01  1.30094499e-01
  1.45259677e-01  1.59614057e-01  2.17079649e-01  2.63626419e-01  3.22495723e-01
  3.38834292e-01  4.34353266e-01  4.36250867e-01  4.50845023e-01  4.71456799e-01
  4.84705620e-01  5.07309245e-01  5.26488401e-01  5.67531503e-01  5.96845577e-01
  6.17597144e-01  6.26350389e-01  6.39592953e-01  6.50853546e-01  6.71720880e-01
  6.82902409e-01  7.03352432e-01  7.70770167e-01  8.15997880e-01  8.49864145e-01
  9.13430612e-01  9.26675180e-01  9.56353177e-01  1.01824389e+00  1.02700841e+00
  1.04935423e+00  1.08278244e+00  1.14317905e+00  1.18181800e+00  1.19176847e+00
  1.29151772e+00  1.36443755e+00  1.39782026e+00  1.47429114e+00  1.48943255e+00
  1.49442893e+00  1.54827175e+00  1.56565690e+00  1.61814578e+00  1.63121564e+00
  1.65558126e+00  1.65661442e+00  1.67152143e+00  1.69257521e+00  1.73289625e+00
  1.75346140e+00  1.78721174e+00  1.80272307e+00  1.85103054e+00  1.92068523e+00
  1.96539620e+00  1.97280685e+00  2.01489844e+00  2.06555632e+00  2.10160547e+00
  2.24250420e+00  2.31692525e+00  2.34137802e+00  2.40385396e+00  2.41145137e+00
  2.42063508e+00  2.48487897e+00  2.57262475e+00  2.64903818e+00  2.69812724e+00
  2.79386855e+00  2.98147079e+00  3.06703336e+00  3.42093648e+00  3.47782668e+00
Alpha MO coefficients                      R   N=       10000
 -6.87721349e-05 -1.43742992e-04  6.97299797e-05  6.50137096e-05  4.27055831e-05
  1.05574685e-05 -3.65805976e-05 -1.45166755e-04  1.63195782e-04  7.44534774e-05
  3.30900811e-05  3.56794974e-05  7.58422365e-05 -1.00263759e-04 -2.03535899e-04
 -3.63331236e-04  5.33244222e-03 -2.22920709e-05 -1.80034628e-05 -5.79439592e-05
 -9.40863643e-04 -2.20388109e-03  4.84501284e-04 -3.03606787e-05  2.98190899e-05
 -1.99455753e-05 -5.01199017e-05 -5.19906728e-05  2.04083464e-04  3.13245165e-04
 -3.88378395e-03  2.48062821e-05  2.77047923e-04 -1.24245930e-05 -4.49500804e-03
 -3.54910526e-03  2.91448541e-04  1.28209302e-04  4.96418638e-05  8.70550432e-05
 -3.94313841e-04  4.98096417e-04  4.54722525e-04  5.96554308e-04  5.33449094e-03
 -9.86931473e-05 -1.78395848e-04 -3.21666914e-05  6.62288052e-03  5.81597014e-04
  1.32830221e-04 -1.18678712e-05  9.79589535e-06  8.80636846e-05 -1.16153155e-03
  5.09071459e-04  1.00416887e+00  9.47080630e-03 -1.50974250e-02 -1.83886078e-03
  3.53338636e-04 -5.93047086e-05  3.50705458e-03 -8.29766338e-04  9.66903390e-05
 -1.92753108e-05  2.08220125e-06 -3.40164774e-06  6.80723205e-05  9.76499223e-06
 -1.15504937e-04 -1.16452216e-04  3.37116289e-05 -1.85287615e-05  2.85544913e-05
  1.21675337e-04  3.55403955e-04 -7.40644915e-05 -6.88397410e-05  4.35640912e-05
 -1.06515277e-04 -2.47743059e-04  6.78674258e-05  6.29044332e-05  5.81478033e-05
 -1.48902633e-04  9.15858431e-04 -7.67368437e-04  1.13896579e-04 -3.53344092e-06
 -2.79793543e-04 -1.31929525e-03  1.84898976e-04  2.50880480e-04 -1.91014080e-07
 -1.79177454e-04  2.28786604e-04  4.23894705e-05  8.15715228e-05 -2.82812537e-05
 -3.69240223e-04 -4.88521673e-04  8.91328761e-04  2.87339468e-04  7.11727931e-05
  8.53048133e-07 -6.20105746e-04  5.96893310e-05  1.80443218e-05 -1.66372744e-05
 -6.85997347e-05  2.51621405e-06 -1.16088061e-04 -4.08080123e-05 -4.30730109e-04
 -6.30376771e-04  6.48396475e-03 -2.71018266e-04 -2.58700727e-05  4.92498712e-05
 -2.11265113e-03 -3.80276144e-03  5.97791309e-04 -3.96933380e-04 -1.89614094e-04
 -9.56128887e-05  2.91384263e-04  3.59286421e-04  1.65573474e-03 -2.56177908e-04
 -1.91336887e-03 -3.50601948e-04  7.64823310e-04  4.40377878e-05 -2.58536491e-03
 -5.96973006e-03  4.09836084e-04  1.04259519e-03  1.49742530e-06 -1.49779693e-05
  1.11969229e-03  8.61178418e-04  1.00594689e+00  1.52981334e-02 -1.07254550e-02
  7.24420845e-04 -4.88151159e-04 -9.70697232e-05  5.43082747e-03 -2.04991815e-03
  2.06098760e-05 -1.63992681e-03  2.20793926e-04  1.92517629e-04  8.53466375e-04
  1.28543157e-05  3.66476620e-04  9.09398890e-04 -5.94686346e-03  7.45319718e-04
 -2.10082836e-04  2.42954492e-06  3.40936580e-03 -2.05592477e-04  9.65569351e-05
  5.68550583e-04 -2.84489214e-05 -1.81178146e-05 -7.26188988e-04  2.54895122e-04
 -1.11849107e-04 -6.44142317e-05  2.87976595e-05  3.54990841e-06 -1.42133250e-05
 -5.19925687e-05  3.55623616e-04 -5.30195259e-05 -2.63264185e-05  8.66873056e-06
 -6.22260760e-05 -9.13038517e-06  1.04320610e-04  5.20663853e-05 -4.46419377e-05
 -1.68970127e-03  2.48468037e-03 -1.43480863e-03 -1.46215483e-03 -2.29381355e-04
 -5.26720103e-04 -4.94843456e-04  4.90324370e-05  2.85664099e-04 -3.05928138e-05
 -2.73254607e-05  6.14589510e-04  2.25601010e-04  1.02549186e-04 -3.26714528e-05
  3.07934946e-03 -4.02323047e-04  4.37864886e-03  7.18392643e-04  4.43991960e-05
  6.06672814e-05 -2.42668219e-03 -8.42627565e-04 -3.43137087e-04  7.87685442e-04
  7.55705057e-05  2.93950812e-05 -9.81164911e-04 -5.46401084e-05  1.00633737e+00
  1.61458780e-02 -2.02323857e-02 -5.13456168e-04  1.89154870e-04 -1.52923942e-05
 -2.28670161e-03  3.90436893e-03 -4.66531553e-04 -1.03540120e-03  1.07665653e-04
 -3.16786394e-04 -5.53176826e-04 -4.17826192e-04  1.23327279e-02 -1.23702888e-03
  4.85680308e-03 -7.18900488e-04 -1.07473239e-03  1.61703894e-04  2.72224367e-03
  2.64463222e-03 -2.90107978e-04  8.68539926e-04  1.36624370e-04  2.97848059e-04
  5.10626518e-04 -9.68126971e-04 -2.76738129e-04 -5.55104407e-04  1.13714089e-03
 -2.09172141e-05 -2.09530861e-04  3.91824035e-05 -4.47343606e-04  1.04033922e-03
 -5.96186118e-05 -3.26879458e-04 -9.64715551e-05 -1.17709935e-05  1.66428829e-04
 -1.08054631e-05 -3.44457107e-05 -7.28308765e-05 -1.16292864e-04  1.21537921e-04
  1.40323308e-05  1.68969572e-05 -1.22765898e-04 -3.34547927e-04  2.88913112e-05
  1.13391962e-05 -2.59386985e-05  3.44964825e-06  3.43706297e-06  2.40961380e-05
 -4.29620550e-04  4.04463827e-04 -1.26174650e-04 -9.17038956e-06  5.15713664e-05
 -2.75919340e-04  2.12775229e-04  1.44049436e-04  2.10519899e-05  7.42159747e-05
 -4.74991185e-04  1.15997074e-03 -1.88657374e-04  5.79767628e-06  2.39353226e-05
 -8.55949388e-05  3.31436480e-04  4.57044442e-05 -7.19191839e-05 -1.53123708e-05
  1.62990017e-04  9.48778014e-04  1.56937515e-04 -2.61883307e-04 -9.14111562e-07
 -2.44373081e-03  1.09294959e-03 -1.24202172e-03  1.79513739e-03 -2.32971767e-04
  1.23588261e-03  4.77139701e-04 -2.56568619e-04 -1.08208035e-04 -1.36315207e-04
  1.04945820e-04  8.83476358e-04  7.13516309e-05 -2.80177349e-04  3.01163038e-04
  2.45553184e-05  5.92667521e-05 -4.75025642e-05  1.26452757e-04  1.37850520e-02
  1.72262589e-03 -6.19733018e-03 -5.88834740e-04 -1.20857569e-03  1.73286097e-04
  6.97141500e-04  3.74320391e-03 -1.92539605e-04 -9.12635993e-04 -1.87052366e-04
 -3.15357100e-04 -6.03284838e-04  9.28928732e-04 -1.00650162e+00 -1.65749359e-02
  2.11533144e-02  3.32302110e-04 -2.45159981e-04  1.55507611e-04  5.29108585e-03
  2.93109318e-04 -9.04830278e-04  1.09175310e-03  1.83998838e-04  1.15276761e-04
 -4.36952090e-04 -4.85674884e-04  1.97617449e-03  7.84208095e-04 -5.69249397e-03
 -2.65779349e-04  7.16828441e-04  5.26768711e-05 -3.59943056e-04 -3.43297440e-03
  4.96956077e-05 -7.01988041e-04 -1.60663229e-04  6.55847395e-05 -5.63506317e-04
 -1.21766852e-03 -3.72524582e-05 -6.45274795e-05  7.56228522e-04 -1.79904282e-05
  6.41956882e-05  4.04036760e-05  1.31804826e-04  6.28654781e-04 -5.29193665e-05
  1.28611144e-04 -4.12531650e-05 -1.22820976e-05 -7.95433470e-05 -2.19550701e-04
  1.36622359e-04 -3.25730269e-04 -1.91972817e-05 -7.47983807e-05  5.28349331e-05
 -3.79964268e-05 -3.52985552e-04 -4.51632000e-05  4.97920468e-05  2.81037011e-05
  7.57125130e-05 -1.93183944e-04 -4.22553900e-05 -8.39107383e-05  1.34019965e-04
  2.91026935e-04 -9.65455297e-04 -6.89419807e-05  1.93586851e-04 -3.40858351e-05
  2.49607833e-03 -8.34743526e-04  2.18147349e-03 -9.50813126e-05 -7.68312005e-05
 -1.05166486e-04 -8.53973624e-04 -2.89179735e-04  3.51327481e-05 -3.99779051e-05
  1.00701544e+00  1.74904511e-02 -1.92914147e-02  4.08287518e-04  3.23654373e-05
  2.20907649e-04  2.88758901e-03  4.85742476e-04 -5.08653826e-04  2.02774062e-04
  8.29748893e-06 -1.63021489e-04 -6.47994841e-04  7.77107438e-05 -3.26691206e-03
 -2.58138627e-04  1.60003966e-03 -4.88098933e-04  5.19521355e-05  3.19319870e-07
  4.15442780e-03  2.37213501e-03 -2.95968629e-04  6.37083416e-04  9.97483963e-05
 -1.03238535e-05 -1.32464656e-03 -3.98790684e-04  5.58048614e-04 -6.60549422e-04
  3.67051206e-03 -2.36850133e-04  3.52544505e-05 -3.01436356e-06  1.21964117e-03
  2.58245913e-03 -3.73546572e-04 -3.70234237e-04  2.74875065e-05 -1.06827473e-04
 -4.18740208e-04 -2.13429841e-04 -1.26413327e-04 -5.05442521e-04  3.62187417e-04
 -7.20470865e-05 -2.69697997e-04 -3.93145331e-05 -2.14952883e-04  4.76329576e-04
  1.28544332e-04 -3.61619011e-05 -2.92214485e-05 -2.85340532e-05  3.15107175e-05
  4.96541798e-05 -1.03218725e-04 -2.00297436e-04  3.48213922e-04  3.06227782e-05
 -1.12507529e-04 -2.26048244e-05 -2.47726737e-04  2.47219963e-04  6.55795613e-05
 -5.68476901e-05  4.93064057e-07  6.42742812e-06  1.31688272e-06 -1.95948183e-06
 -1.05326636e-03  2.07244543e-03  5.93458237e-04 -1.46888809e-03 -9.18351986e-04
 -1.51997761e-03  1.75132718e-03  6.08342806e-04  1.80657768e-03 -7.80360747e-04
 -1.09614317e-03  2.39558230e-03  4.85130364e-04 -2.12135949e-04  1.84218510e-03
  1.92593346e-05  3.79022692e-04  1.12532488e-05  6.11379089e-05 -1.53469946e-05
  3.55282273e-05  4.92845875e-04  6.12588647e-05 -1.90927501e-04  2.78040605e-05
 -3.90254519e-04  1.37355871e-04 -3.88736043e-04 -1.69007245e-04  2.49081444e-05
 -5.03641234e-04  8.03782978e-03  5.05126388e-03 -3.34422116e-03 -3.88940457e-03
 -3.81360971e-05 -2.77432028e-03 -1.41143479e-03  8.08848093e-04 -7.17945789e-04
 -1.15859367e-04 -1.62168125e-04  9.86119509e-05  8.93116531e-04  4.70235393e-04
  1.70148795e-02 -1.18227648e-02  3.98267059e-04 -1.07478977e-02  1.10998388e-03
 -1.87335077e-03  9.21444936e-03 -1.19556246e-03 -5.09710834e-04 -2.03384527e-04
 -4.64999099e-04 -1.52099348e-03  7.23128025e-04 -3.70188361e-03  3.65087537e-02
  3.17643750e-02  2.13535926e-02 -1.96152636e-02 -1.04019194e-03  1.98587432e-02
  1.90566124e-03 -1.88427381e-03 -3.73806131e-03 -4.48033066e-04 -8.84770098e-05
 -2.77234830e-04 -9.08969491e-03 -1.47809467e-02  2.24242407e-01  9.44785964e-02
  1.84251125e-01 -2.37820832e-02  4.05930452e-03  1.23640473e-02 -2.51078923e-03
  9.40161225e-04 -1.38345459e-02  5.26760096e-04 -1.46940425e-03  3.13790300e-02
 -1.34223505e-02 -9.23707163e-03  4.01990358e-01  3.60872092e-01 -1.55066974e-01
  3.07763271e-02 -4.06811089e-03 -3.17558828e-02  7.55373252e-03 -1.55244053e-03
 -5.39796706e-03  3.37355164e-04 -7.56499817e-04  1.20918167e-02 -4.90752311e-03
  7.63682408e-03  3.93030538e-03 -7.01125459e-04 -3.69161195e-04  6.97438049e-04
  1.10946670e-03 -4.24605513e-04  2.55095173e-05 -4.98732698e-05 -7.43355318e-05
  2.79031694e-03  7.87778811e-04 -3.26610752e-04 -3.55012687e-04 -5.56320912e-04
  4.00134414e-02 -3.39854071e-03  1.01013732e-02  6.03648522e-03  1.04372703e-03
  7.24263262e-03  6.08707664e-03  1.02279731e-03 -1.89742197e-03 -8.70889947e-05
  1.88897135e-03 -3.00052735e-03 -1.78426350e-04 -8.38556716e-04  1.36140225e-04
  1.12215091e-02 -1.80417448e-01 -7.46724933e-02  6.73442863e-02  1.41233689e-02
 -5.04227135e-03  2.20534113e-03 -8.99171833e-03  2.65102057e-03  5.74208469e-03
  5.91239734e-04 -9.97907982e-05 -1.00504776e-02 -3.21623717e-03  1.98993749e-02
 -2.89312372e-01 -2.03605192e-01 -4.62121483e-03  7.08562876e-02 -8.85621842e-03
 -3.21687518e-02  2.50603515e-02 -3.74940937e-03  1.00140006e-02  1.26095660e-03
  1.85394309e-03 -2.18110906e-03 -1.00095230e-02  1.73310293e-02 -2.54272867e-01
 -1.38566232e-01 -5.90000669e-02 -5.65322947e-02  1.46537706e-02 -2.48559669e-03
 -2.13062597e-02  3.81197855e-03  6.85103400e-03  1.56155687e-03  2.05833021e-03
  8.83116872e-03 -8.59286699e-03  2.60709822e-03 -6.47451321e-02 -5.13892779e-02
  7.30835694e-02 -8.10461386e-02  1.29857794e-03  2.38061704e-02 -2.29304811e-02
 -1.06609815e-03  2.71029750e-03  4.32895960e-04 -2.90242467e-04  1.34693316e-02
  3.20560522e-03 -3.63332128e-04  7.77216081e-02  7.49250867e-02 -1.24305298e-02
 -1.68221687e-02  1.07688500e-04  1.19937493e-03 -7.28940644e-03  5.95398342e-04
  1.72282670e-04  9.57639637e-06  3.45369730e-05  1.72143538e-03  1.61504538e-03
 -6.72749270e-02 -2.13799020e-03  4.59964723e-03 -7.82302035e-03 -5.17487608e-03
 -5.94335328e-02 -6.23298719e-04  4.81479967e-03  8.13691552e-03 -3.48101508e-03
 -6.92468387e-02 -3.54611291e-03  4.37320471e-03 -1.20704221e-04  9.25413104e-03
 -1.90055503e-02  2.96482016e-05  4.83722245e-05 -3.54836484e-03 -1.34129618e-04
 -8.29184874e-02 -2.44120783e-03 -1.41230971e-02 -1.91879478e-03  1.16553191e-03
 -9.82926792e-02 -1.34353372e-02 -6.96662298e-03  1.36309253e-02 -1.71688672e-03
  1.43427018e-02 -2.83437672e-01 -1.21384968e-01  1.99766354e-02 -7.46661767e-03
 -5.37039032e-03 -1.57084126e-02 -7.68225800e-03  5.49739155e-04  1.48885138e-03
 -9.45597891e-05 -1.52689973e-04 -3.11404750e-03  2.27754872e-03  5.42745089e-03
 -5.36025572e-02 -8.75865514e-02 -1.36700433e-01 -8.93539161e-02  9.89677841e-03
 -8.91517919e-02 -6.48176561e-03  1.48364364e-03  3.82893037e-03 -4.36801544e-04
 -1.09139738e-03 -1.76270629e-02  4.16723484e-03 -1.37700463e-02  2.26925738e-01
  1.66188996e-01 -6.66918090e-03 -6.24353200e-02 -4.50179824e-03  3.44112421e-02
 -3.70551412e-02 -1.44718120e-03 -4.39950970e-03 -6.06991736e-05  4.34215414e-04
 -9.74006001e-03 -6.09641418e-03 -3.29255805e-03  1.59353077e-01  7.02230849e-02
 -1.11510518e-01  7.51105993e-02 -2.66792859e-05 -3.90208542e-02  8.91633144e-03
 -1.34663708e-03 -1.68409304e-03 -3.83504781e-04  2.60455916e-04 -9.59752675e-03
 -6.11743713e-03 -2.29569689e-04 -8.45035555e-02 -8.47611792e-02 -2.17006978e-02
  6.83018925e-03  1.38054178e-03 -2.17980787e-02  1.47458553e-03  1.13858641e-04
 -9.63115475e-04  7.44728936e-05  2.98968194e-04  1.25491449e-03 -2.01054792e-03
 -1.20515713e-01 -1.67449756e-02  6.49725161e-03 -1.28591944e-02 -8.11835165e-03
 -1.31100251e-01 -1.52796342e-02  6.01148223e-03  1.53408436e-02 -6.99425010e-03
 -1.29988762e-01 -1.66205963e-02  5.82348800e-03 -1.96728888e-03  1.61890392e-02
  7.59361268e-02  3.29281130e-03  3.73130918e-03  9.15992382e-03  1.15440994e-03
  1.16200572e-01  2.26167678e-02  1.47658142e-02 -1.11585688e-03 -1.02889145e-03
 -2.99805330e-02 -1.61581941e-02 -4.12049009e-03  8.85965166e-04 -1.67816822e-04
  5.72068481e-03 -1.80907587e-01 -1.00076150e-01 -7.39964835e-02 -3.13200290e-03
 -5.48095119e-03 -3.88695627e-02 -6.22221229e-03  6.30031886e-03 -5.02515020e-03
 -7.62421369e-04 -2.17732833e-04  7.37513088e-03  8.38885288e-04 -5.29095455e-03
  2.11492195e-01  1.01099064e-01 -1.43559754e-01 -1.53525951e-02  6.22509579e-03
 -4.40254807e-02 -2.38030203e-04 -1.00764290e-03  2.85031911e-03 -1.51706906e-03
 -9.20842008e-04 -5.72108215e-03  3.93685702e-03 -1.42165270e-03  5.50899281e-03
  1.43069612e-02  7.00402318e-03  2.47027156e-01 -1.22915604e-02  4.36022456e-03
  7.59211126e-02 -2.99170385e-03  8.40229676e-04 -4.82861891e-04 -3.75811773e-03
  1.31554005e-03  1.11840971e-02  2.58425127e-03 -2.30418662e-01 -1.49721294e-01
  1.54392358e-01 -2.45360543e-02  4.76044312e-03  4.65930480e-02 -1.80441762e-02
  6.14300139e-04 -1.20137737e-03  8.96430989e-04 -6.28765921e-04  5.61322410e-03
  1.36712155e-03  1.03154130e-03  1.21149908e-01  1.41129761e-01  5.08803186e-02
 -1.01542512e-02  2.62496228e-03  3.91576131e-02 -6.44847534e-03  1.99296329e-03
  2.52765397e-03 -2.02138087e-04 -3.00860353e-05 -2.24217398e-03  5.86639683e-04
 -1.00270923e-01 -7.28412162e-03  3.26569894e-03 -1.02728864e-02 -5.73549579e-03
 -1.05794139e-01 -1.58685025e-02  2.25726913e-03  1.07912295e-02 -5.24242137e-03
 -1.09632174e-01 -2.11073795e-02  3.15054073e-03 -1.12846549e-03  1.14679992e-02
 -1.57762216e-01 -2.86406369e-02 -7.85711382e-03 -1.40303478e-02 -1.94479672e-03
 -4.14557457e-03 -7.44827450e-04 -2.35899467e-04  4.98517316e-03 -2.42265304e-04
  1.48761397e-01  2.55090718e-02  6.85924287e-03 -1.50521844e-02  2.19959700e-03
  1.46321254e-03 -4.14623283e-02 -3.36181088e-02 -1.11309672e-01  9.22717782e-02
 -1.17119597e-02 -3.12707401e-02  3.80564154e-02 -6.73418410e-03 -5.08907065e-03
  7.13193312e-04 -1.48346521e-03  9.48784406e-03 -6.30146452e-03 -2.60346986e-03
  1.42875482e-01  1.03553990e-01 -1.96150344e-03  2.22970358e-01 -3.24570472e-02
  2.58661002e-02  6.76864294e-02 -9.60825220e-03  3.86649872e-03  1.46073068e-03
  1.27068394e-03  1.11281743e-03 -6.10198961e-03  2.98424962e-03 -1.52563581e-01
 -1.07698820e-01 -1.90477778e-02  1.60468098e-04 -7.90790161e-03 -2.27566547e-02
  2.86847321e-02 -6.58063485e-03 -3.73023661e-03  2.21881749e-04 -7.26231677e-04
 -1.33091848e-02  1.06336771e-03  6.95772831e-04  1.58358992e-01  1.20819041e-01
 -5.86757500e-02 -2.37785909e-01 -2.17119260e-02 -4.63516895e-02 -5.33215910e-02
 -4.21874901e-03  5.22770584e-03  6.70372479e-04 -1.03659602e-04 -4.28628889e-05
  8.56956456e-04  4.77171291e-04 -8.57062843e-02 -1.21012013e-01 -1.42031694e-01
 -1.12214194e-01 -9.30047149e-03 -8.32850311e-02 -6.21203787e-02 -5.30057253e-03
 -3.48822392e-03  1.21794800e-03  4.95737523e-04  8.99239887e-03  6.77887649e-03
 -1.06488221e-01 -3.52145982e-02  1.69869181e-03 -4.40724641e-03 -5.85027983e-03
  6.64392153e-03 -3.47188493e-03 -3.23417195e-03  1.90024212e-03  2.27147113e-05
 -6.39512595e-02 -1.92453732e-02 -6.43932199e-04  2.46479942e-03  5.78196026e-03
  2.28699122e-01  5.97938477e-02  1.17497211e-02  1.27397762e-02  2.27602794e-03
 -8.20086937e-02 -3.00266452e-02 -8.47446946e-03 -9.55318778e-04  4.23014017e-04
  2.18331610e-01  6.52494856e-02  1.09103800e-02 -1.23272815e-02  1.60597869e-03
  2.53366097e-03 -5.15567388e-02 -4.91468052e-02 -1.47771915e-01 -9.93609144e-02
  4.46243215e-03 -3.42349725e-02 -4.23166386e-02 -2.51208470e-03 -5.27151920e-03
 -7.72361734e-04  2.15200979e-03  7.38430381e-03  4.33156255e-03  7.10341666e-04
  8.54933320e-02  5.84395322e-02  1.36453994e-01 -1.13897758e-01  3.05539382e-03
  8.17804873e-02 -3.28385573e-02 -1.68196684e-03  1.55524794e-03  1.77073498e-03
  7.06997213e-04 -9.83870830e-03 -1.09163398e-02  5.75866753e-03 -7.40837390e-02