[Molden Format]
[Atoms] (AU)
C    1    6           1.6562655547         2.9354812159         0.2665767194
C    2    6          -0.7987381828         2.3750057948        -0.1558458557
C    3    6          -2.0785141942        -0.0149781737         0.3314862040
C    4    6          -0.8870900601        -2.2660924431         0.0932422330
O    5    8           1.6003511287        -2.6005571488        -0.4043696533
H    6    1           2.3295165240        -0.9245860145        -0.6439098252
H    7    1           2.4740808371         4.7085901690        -0.4077113505
H    8    1           2.8864226871         1.7129184204         1.3926951311
H    9    1          -1.8959665560        -4.0614137284         0.1481726409
H   10    1          -4.1238448097        -0.0505038343         0.6180526829
H   11    1          -1.9684321483         3.8169821018        -1.0652815991
[GTO]
  1 0
 s    8  1.00
     6665.0000000000         0.0006920000
     1000.0000000000         0.0053290000
      228.0000000000         0.0270770000
       64.7100000000         0.1017180000
       21.0600000000         0.2747400000
        7.4950000000         0.4485640000
        2.7970000000         0.2850740000
        0.5215000000         0.0152040000
 s    8  1.00
     6665.0000000000        -0.0001460000
     1000.0000000000        -0.0011540000
      228.0000000000        -0.0057250000
       64.7100000000        -0.0233120000
       21.0600000000        -0.0639550000
        7.4950000000        -0.1499810000
        2.7970000000        -0.1272620000
        0.5215000000         0.5445290000
 s    1  1.00
        0.1596000000         1.0000000000
 p    3  1.00
        9.4390000000         0.0381090000
        2.0020000000         0.2094800000
        0.5456000000         0.5085570000
 p    1  1.00
        0.1517000000         1.0000000000
 d    1  1.00
        0.5500000000         1.0000000000

  2 0
 s    8  1.00
     6665.0000000000         0.0006920000
     1000.0000000000         0.0053290000
      228.0000000000         0.0270770000
       64.7100000000         0.1017180000
       21.0600000000         0.2747400000
        7.4950000000         0.4485640000
        2.7970000000         0.2850740000
        0.5215000000         0.0152040000
 s    8  1.00
     6665.0000000000        -0.0001460000
     1000.0000000000        -0.0011540000
      228.0000000000        -0.0057250000
       64.7100000000        -0.0233120000
       21.0600000000        -0.0639550000
        7.4950000000        -0.1499810000
        2.7970000000        -0.1272620000
        0.5215000000         0.5445290000
 s    1  1.00
        0.1596000000         1.0000000000
 p    3  1.00
        9.4390000000         0.0381090000
        2.0020000000         0.2094800000
        0.5456000000         0.5085570000
 p    1  1.00
        0.1517000000         1.0000000000
 d    1  1.00
        0.5500000000         1.0000000000

  3 0
 s    8  1.00
     6665.0000000000         0.0006920000
     1000.0000000000         0.0053290000
      228.0000000000         0.0270770000
       64.7100000000         0.1017180000
       21.0600000000         0.2747400000
        7.4950000000         0.4485640000
        2.7970000000         0.2850740000
        0.5215000000         0.0152040000
 s    8  1.00
     6665.0000000000        -0.0001460000
     1000.0000000000        -0.0011540000
      228.0000000000        -0.0057250000
       64.7100000000        -0.0233120000
       21.0600000000        -0.0639550000
        7.4950000000        -0.1499810000
        2.7970000000        -0.1272620000
        0.5215000000         0.5445290000
 s    1  1.00
        0.1596000000         1.0000000000
 p    3  1.00
        9.4390000000         0.0381090000
        2.0020000000         0.2094800000
        0.5456000000         0.5085570000
 p    1  1.00
        0.1517000000         1.0000000000
 d    1  1.00
        0.5500000000         1.0000000000

  4 0
 s    8  1.00
     6665.0000000000         0.0006920000
     1000.0000000000         0.0053290000
      228.0000000000         0.0270770000
       64.7100000000         0.1017180000
       21.0600000000         0.2747400000
        7.4950000000         0.4485640000
        2.7970000000         0.2850740000
        0.5215000000         0.0152040000
 s    8  1.00
     6665.0000000000        -0.0001460000
     1000.0000000000        -0.0011540000
      228.0000000000        -0.0057250000
       64.7100000000        -0.0233120000
       21.0600000000        -0.0639550000
        7.4950000000        -0.1499810000
        2.7970000000        -0.1272620000
        0.5215000000         0.5445290000
 s    1  1.00
        0.1596000000         1.0000000000
 p    3  1.00
        9.4390000000         0.0381090000
        2.0020000000         0.2094800000
        0.5456000000         0.5085570000
 p    1  1.00
        0.1517000000         1.0000000000
 d    1  1.00
        0.5500000000         1.0000000000

  5 0
 s    8  1.00
    11720.0000000000         0.0007100000
     1759.0000000000         0.0054700000
      400.8000000000         0.0278370000
      113.7000000000         0.1048000000
       37.0300000000         0.2830620000
       13.2700000000         0.4487190000
        5.0250000000         0.2709520000
        1.0130000000         0.0154580000
 s    8  1.00
    11720.0000000000        -0.0001600000
     1759.0000000000        -0.0012630000
      400.8000000000        -0.0062670000
      113.7000000000        -0.0257160000
       37.0300000000        -0.0709240000
       13.2700000000        -0.1654110000
        5.0250000000        -0.1169550000
        1.0130000000         0.5573680000
 s    1  1.00
        0.3023000000         1.0000000000
 p    3  1.00
       17.7000000000         0.0430180000
        3.8540000000         0.2289130000
        1.0460000000         0.5087280000
 p    1  1.00
        0.2753000000         1.0000000000
 d    1  1.00
        1.1850000000         1.0000000000

  6 0
 s    3  1.00
       13.0100000000         0.0196850000
        1.9620000000         0.1379770000
        0.4446000000         0.4781480000
 s    1  1.00
        0.1220000000         1.0000000000
 p    1  1.00
        0.7270000000         1.0000000000

  7 0
 s    3  1.00
       13.0100000000         0.0196850000
        1.9620000000         0.1379770000
        0.4446000000         0.4781480000
 s    1  1.00
        0.1220000000         1.0000000000
 p    1  1.00
        0.7270000000         1.0000000000

  8 0
 s    3  1.00
       13.0100000000         0.0196850000
        1.9620000000         0.1379770000
        0.4446000000         0.4781480000
 s    1  1.00
        0.1220000000         1.0000000000
 p    1  1.00
        0.7270000000         1.0000000000

  9 0
 s    3  1.00
       13.0100000000         0.0196850000
        1.9620000000         0.1379770000
        0.4446000000         0.4781480000
 s    1  1.00
        0.1220000000         1.0000000000
 p    1  1.00
        0.7270000000         1.0000000000

  10 0
 s    3  1.00
       13.0100000000         0.0196850000
        1.9620000000         0.1379770000
        0.4446000000         0.4781480000
 s    1  1.00
        0.1220000000         1.0000000000
 p    1  1.00
        0.7270000000         1.0000000000

  11 0
 s    3  1.00
       13.0100000000         0.0196850000
        1.9620000000         0.1379770000
        0.4446000000         0.4781480000
 s    1  1.00
        0.1220000000         1.0000000000
 p    1  1.00
        0.7270000000         1.0000000000

[5D7F]
[9G]

[MO]
 Sym= A
 Ene=        -1.9172912175e+01
 Spin= Alpha
 Occup=         2.0000000000e+00
  1        -1.0708247915e-04
  2        -1.8508138452e-04
  3         1.4276347385e-03
  4        -1.0408055022e-04
  5         7.4554569871e-05
  6         2.3410196210e-05
  7        -2.6179816505e-04
  8        -1.3769818266e-03
  9         1.7604892850e-04
 10        -8.0178217087e-05
 11         5.0651870692e-06
 12         4.3970344244e-05
 13        -7.8656595243e-05
 14         7.6595821466e-05
 15         2.0571667618e-04
 16         3.5542785142e-04
 17        -5.5520679221e-03
 18         6.8457769894e-06
 19         8.1019429401e-06
 20         7.3207179606e-05
 21         1.8261958413e-04
 22         2.9004809677e-03
 23        -9.7878923983e-04
 24         6.6628428955e-05
 25        -1.2388758662e-04
 26         1.1258690739e-04
 27        -7.0005733647e-06
 28         2.1664644816e-05
 29        -1.9299656575e-04
 30        -2.8078367897e-04
 31         4.8841553029e-03
 32         5.7318305678e-05
 33        -2.5861850308e-04
 34        -3.8401052760e-06
 35         4.6755673381e-03
 36         2.9911997539e-03
 37        -9.9838168712e-04
 38        -1.5932460378e-04
 39        -1.5113717345e-04
 40         3.9436965271e-05
 41         4.0759449111e-04
 42        -3.7649976156e-04
 43        -1.9555766951e-04
 44        -3.5915993295e-04
 45        -5.7834674264e-03
 46        -3.3306012574e-04
 47         2.0524459299e-04
 48         1.1203240487e-04
 49        -5.6973970899e-03
 50        -1.6571974634e-03
 51         1.0660696354e-03
 52         4.0257609602e-04
 53        -7.2541437575e-06
 54         7.6689088969e-06
 55         7.1173188215e-04
 56        -3.7825890279e-04
 57        -1.0040839170e+00
 58        -9.3595633468e-03
 59         1.4027719803e-02
 60         9.2043024614e-04
 61        -1.4273690518e-03
 62        -8.4041394687e-05
 63        -3.2139778244e-03
 64         1.3595677235e-03
 65         5.9620094312e-04
 66         2.3027173432e-05
 67        -6.0977756130e-06
 68         7.6816308411e-05
 69         1.6537862367e-04
 70        -2.5588567550e-04
 71        -2.7932899244e-04
 72        -4.8276337839e-04
 73        -2.0203846216e-04
 74        -1.0025106629e-03
 75         2.1486490502e-05
 76         3.0202330255e-05
 77         2.7390855354e-04
 78         4.1110753437e-05
 79         7.0318567706e-05
 80         3.1670278368e-06
 81        -2.3452797241e-04
 82        -1.9923571158e-04
 83         4.1233515259e-06
 84        -3.1691334083e-05
 85        -2.0065806895e-05
 86         4.1302901672e-04
 87        -8.9613776347e-04
 88         6.2946376175e-04
 89         1.5887195050e-04
 90        -1.1104917298e-04
 91         1.6564820771e-04
 92         1.2664333504e-03
 93        -2.2690253225e-04
 94        -2.0333755392e-04
 95         6.0896428057e-05
 96         7.8207531559e-05
 97        -6.2707251985e-04
 98        -3.1711993743e-05
 99        -9.8962837534e-05
100         3.4854692886e-05
 Sym= A
 Ene=        -1.0251114092e+01
 Spin= Alpha
 Occup=         2.0000000000e+00
  1        -2.8225729523e-04
  2        -3.4459120623e-04
  3         1.1141585337e-03
  4         1.3787033273e-04
  5         8.4426674839e-05
  6         6.6795797549e-05
  7        -1.2378045806e-03
  8         4.5576093239e-04
  9        -5.9749664857e-04
 10        -8.2681081005e-05
 11        -1.4347965924e-05
 12        -3.2375326406e-05
 13         5.8240033048e-05
 14        -4.3095232521e-05
 15        -4.9433545206e-04
 16        -7.1524152292e-04
 17         4.8328168028e-03
 18        -1.1074467600e-04
 19         1.6320939778e-05
 20        -2.4857013356e-06
 21        -2.3670845687e-03
 22        -4.0353722317e-03
 23         8.0016351996e-04
 24        -3.4347430852e-04
 25        -1.0027773110e-04
 26        -1.0770441482e-04
 27        -1.2990480560e-05
 28         1.4045878292e-04
 29         4.5710552851e-03
 30        -9.6885745244e-04
 31        -7.0349176198e-05
 32        -5.8242162294e-04
 33         1.3229304579e-03
 34         1.2285357024e-04
 35        -2.0671244128e-03
 36        -6.1618176031e-03
 37         7.2094325908e-04
 38         1.0729811369e-03
 39         2.6000538122e-04
 40        -7.8516106916e-05
 41         4.9083644623e-04
 42         9.2321349426e-04
 43         1.0059120154e+00
 44         1.5289942572e-02
 45        -1.2286495208e-02
 46         5.4175745955e-04
 47        -4.5922532156e-04
 48        -2.2405059677e-04
 49         4.9323459941e-03
 50        -2.1287840223e-03
 51        -9.6658338648e-04
 52        -1.6314487113e-03
 53        -4.4967351980e-04
 54         1.6553874246e-04
 55        -3.2834419263e-04
 56         5.1735062543e-05
 57         7.1655151188e-04
 58         1.2930351227e-03
 59        -4.8289336953e-03
 60         2.5748985112e-04
 61        -1.9505093764e-04
 62        -3.6624592398e-05
 63         3.2129274896e-03
 64        -2.1348421526e-04
 65        -6.6054060381e-04
 66         7.0052430711e-04
 67         4.1519370460e-04
 68        -2.4588616000e-05
 69        -7.6912794198e-04
 70         1.5893748891e-04
 71         5.3501970134e-04
 72        -4.1304682524e-04
 73        -6.1039707873e-04
 74        -5.3710195333e-05
 75         1.1542018383e-04
 76        -5.4170320285e-05
 77         1.7786552744e-04
 78        -2.6206309341e-05
 79        -5.0318549317e-05
 80         3.0715975552e-05
 81        -3.1429485257e-06
 82         8.8575805705e-04
 83         1.4400706999e-05
 84         5.7476874245e-05
 85        -3.1789017777e-05
 86        -2.2291508509e-03
 87         2.3511337771e-03
 88        -1.5250945113e-03
 89        -1.6427694661e-03
 90         1.4550538528e-04
 91        -1.3871421856e-04
 92        -3.3715472585e-04
 93         3.1022234353e-04
 94         2.9141904039e-04
 95        -7.1076578736e-05
 96        -7.8907757789e-05
 97         5.3855104395e-04
 98         1.6198865529e-04
 99         1.3316540194e-04
100        -4.0515524382e-05
 Sym= A
 Ene=        -1.0206635599e+01
 Spin= Alpha
 Occup=         2.0000000000e+00
  1         2.0762843641e-02
  2        -1.1194745374e-03
  3         4.7685170160e-03
  4         1.3355997647e-03
  5         3.1062825925e-04
  6         1.3129489100e-04
  7        -2.1473828704e-03
  8        -1.6927641393e-03
  9         4.2532754957e-04
 10         7.9853527546e-04
 11        -4.8735832693e-04
 12        -1.7507809370e-05
 13        -1.0790277432e-03
 14        -3.7582011388e-04
 15         1.0062386890e+00
 16         1.6321566974e-02
 17        -1.9059584152e-02
 18        -1.4483769873e-04
 19         2.0094852437e-04
 20        -2.7483254867e-04
 21        -1.8022700988e-03
 22         3.1000231224e-03
 23        -1.6932538522e-03
 24        -7.7057111354e-04
 25         6.8148805085e-04
 26        -6.8191294552e-04
 27         2.4212927932e-04
 28        -5.9114617952e-05
 29         5.9446712582e-03
 30        -4.2247416304e-04
 31         9.0055526891e-04
 32        -4.6312477615e-04
 33        -6.5065284873e-04
 34         1.5512822694e-04
 35         6.3013796994e-04
 36         3.6573534003e-03
 37         3.3075212436e-04
 38         8.0588694904e-04
 39         8.2001610073e-05
 40         5.8864757200e-04
 41         1.0186267259e-03
 42        -9.6949212321e-04
 43        -3.9292535576e-04
 44        -7.5435262510e-04
 45         4.1886459204e-03
 46        -8.6378394203e-05
 47        -1.8622709686e-04
 48         1.2523545717e-04
 49        -5.7606705906e-04
 50         2.8467559644e-03
 51        -2.1594940168e-04
 52        -4.3509788575e-04
 53        -3.2649086773e-04
 54         3.0086034659e-05
 55         3.5748374540e-04
 56        -2.2627878876e-04
 57         8.7903807504e-05
 58         1.2887140236e-04
 59        -1.2314379999e-03
 60         1.5937387892e-04
 61        -4.4046201079e-05
 62        -1.8071763313e-05
 63         1.4451580597e-04
 64        -6.6965837712e-04
 65         6.3507563174e-05
 66         7.7512865909e-05
 67         1.6162964187e-05
 68         1.6748133690e-05
 69        -5.0476368746e-06
 70         2.3514370231e-05
 71         2.9199812722e-04
 72         5.9100838290e-04
 73        -2.9835929581e-04
 74        -7.3954250781e-05
 75        -3.6663649983e-05
 76        -4.9904908574e-05
 77         8.8494289322e-04
 78         1.4089889520e-04
 79        -1.1396413324e-04
 80         9.1111556850e-05
 81        -2.6320020664e-04
 82        -1.4004925291e-04
 83         3.9359372356e-05
 84         2.2901526688e-04
 85        -1.3438514408e-04
 86         5.8273885314e-05
 87         8.1133922410e-04
 88         1.6001583074e-04
 89        -7.7006841056e-05
 90        -3.2908907275e-07
 91        -2.3588500783e-04
 92         3.3499595717e-04
 93        -3.9259226872e-05
 94        -3.9526448298e-04
 95        -5.6539411756e-05
 96        -2.3486765317e-03
 97         1.2183756570e-03
 98        -1.1563470795e-03
 99         1.5326738545e-03
100        -9.4930060972e-04
 Sym= A
 Ene=        -1.0190433494e+01
 Spin= Alpha
 Occup=         2.0000000000e+00
  1         1.0062742664e+00
  2         1.6479633685e-02
  3        -1.5632458449e-02
  4         2.7754767651e-04
  5        -9.8411952461e-05
  6         2.7164708693e-05
  7         2.3027326879e-03
  8         1.0594306986e-03
  9         6.8379105209e-04
 10        -8.9070547834e-04
 11         6.6020738642e-04
 12        -1.3109914090e-03
 13         1.4091437566e-04
 14         3.5372756402e-04
 15        -2.1972118993e-02
 16        -1.4338253605e-03
 17         1.2914614781e-03
 18        -1.3213764637e-03
 19        -3.0251582559e-04
 20        -2.5106089335e-04
 21         3.0386909458e-03
 22         2.3010017971e-03
 23        -4.5124021502e-05
 24         9.8832992114e-04
 25        -5.2132349643e-04
 26         2.0690716632e-04
 27        -1.0487429453e-03
 28        -7.7426927651e-04
 29        -1.1698189001e-03
 30        -5.2265887851e-04
 31         3.4974334935e-03
 32        -9.2289782655e-05
 33         5.3374333273e-05
 34        -6.9943000708e-05
 35         1.9628830717e-03
 36         2.3341949361e-03
 37        -5.0994299972e-04
 38        -3.7359681197e-04
 39         7.2590901190e-05
 40        -2.4909542293e-04
 41        -3.4442261760e-04
 42         2.4663399338e-05
 43         1.5699279091e-05
 44        -2.0192626731e-04
 45        -8.5689363231e-04
 46        -1.7662323908e-05
 47        -1.3273684888e-04
 48        -5.2001405049e-05
 49        -1.3149773872e-03
 50        -2.4369250487e-04
 51         3.0282347016e-04
 52         5.5927911092e-05
 53         1.0714197425e-04
 54        -9.0603946143e-05
 55        -6.9258731233e-05
 56         1.1115623803e-04
 57         1.3749798601e-05
 58         4.2900793627e-05
 59         4.3277554824e-04
 60         1.4046027512e-04
 61         8.2056598036e-05
 62        -3.9640840152e-05
 63        -7.3665032978e-04
 64        -1.3973353967e-04
 65         1.0409043491e-04
 66        -4.8668215293e-05
 67        -3.3944399885e-05
 68        -2.9343484574e-05
 69         6.9317322697e-05
 70         6.9739935870e-05
 71         2.2344057121e-04
 72         1.4872031385e-03
 73        -1.1396891352e-04
 74         5.2690129192e-04
 75         8.7473988512e-05
 76        -2.3187267475e-03
 77         1.7855979457e-03
 78         7.9046698931e-04
 79         1.9512494979e-03
 80        -8.1832853432e-04
 81        -2.0539933627e-03
 82         1.5134477131e-03
 83         1.1756585684e-03
 84        -1.4399759473e-03
 85         1.3115333744e-03
 86        -8.1156947004e-05
 87        -4.2064917816e-05
 88         3.9753564238e-05
 89         1.7018350593e-05
 90        -2.2311069830e-05
 91         1.1938780379e-04
 92         6.0083563413e-04
 93         1.2929891560e-05
 94        -1.2256221993e-04
 95         4.7565164318e-05
 96         6.4949981809e-05
 97         2.9535173089e-04
 98         9.1059299201e-07
 99        -3.1020071856e-04
100         9.4977159002e-05
 Sym= A
 Ene=        -1.0183299130e+01
 Spin= Alpha
 Occup=         2.0000000000e+00
  1         4.4536085624e-04
  2        -4.6106374457e-04
  3         2.8701218473e-03
  4         7.2793082580e-05
  5         1.1199571281e-04
  6        -7.7759709501e-05
  7        -2.1141734641e-03
  8        -4.3768794724e-04
  9         2.6991971463e-05
 10        -2.5756652191e-04
 11         5.0418870203e-04
 12        -3.0287500142e-04
 13         2.5333938656e-04
 14        -4.5995025457e-04
 15        -6.3214836139e-03
 16        -6.9076637431e-04
 17         3.0677960839e-03
 18         2.3225853279e-04
 19         7.0636556029e-04
 20        -1.7693876488e-04
 21        -2.2744866334e-03
 22        -3.7654995057e-03
 23        -3.5152894025e-05
 24         8.9956295932e-04
 25         5.0942382730e-04
 26         4.0585796460e-04
 27         5.6289968377e-04
 28        -1.2667704297e-03
 29         1.0066642157e+00
 30         1.6784574142e-02
 31        -2.1973004370e-02
 32        -2.0567073181e-04
 33        -1.5071513270e-04
 34        -1.9315398553e-04
 35        -5.1908110564e-03
 36        -2.5563631853e-04
 37         1.7457907467e-03
 38        -1.0839417145e-03
 39        -3.5096501763e-04
 40         2.9327890717e-06
 41         3.9462624372e-04
 42        -1.4078972310e-04
 43        -5.7690154523e-03
 44        -1.5382561263e-03
 45         6.8074881350e-03
 46         6.4037862822e-04
 47        -1.1761371358e-03
 48        -1.2343714045e-04
 49         1.5055444355e-04
 50         4.1628514517e-03
 51        -2.5152819125e-04
 52         8.3313863114e-04
 53         1.9758998601e-04
 54        -2.6312439589e-04
 55         6.8593782635e-04
 56         1.0053086196e-03
 57         3.2729043043e-05
 58         4.4808104364e-05
 59        -9.5842329646e-04
 60         3.2775073975e-05
 61        -5.6775371522e-05
 62        -9.9867528494e-06
 63        -8.9595365194e-05
 64        -7.0928535085e-04
 65         6.2807264380e-05
 66        -5.5046948769e-05
 67        -3.3333980398e-05
 68        -9.4731356781e-06
 69         8.8960585601e-05
 70         8.0623314071e-05
 71         2.6363761292e-04
 72         5.6133716518e-05
 73        -1.3548261585e-04
 74        -1.7901638492e-04
 75         2.2204140452e-05
 76         1.0833824060e-04
 77         5.2884652873e-04
 78         1.3907911747e-04
 79        -1.4130015135e-04
 80         4.8468146780e-05
 81        -7.0233536542e-04
 82         4.9034492048e-04
 83         1.7907104592e-04
 84        -1.0409632289e-04
 85         1.2850555230e-04
 86         1.3910825885e-04
 87         1.1726044145e-03
 88         2.9856892691e-04
 89        -1.4921464806e-05
 90         1.4635502070e-06
 91        -2.4104080258e-03
 92         8.2162878915e-04
 93        -2.1483402233e-03
 94        -7.3794347553e-05
 95         1.9768362881e-04
 96        -3.2752249098e-04
 97         6.5508441044e-04
 98         2.2193819053e-04
 99         2.6621615729e-04
100         7.9122366556e-05
 Sym= A
 Ene=        -1.0638717666e+00
 Spin= Alpha
 Occup=         2.0000000000e+00
  1         1.9563330455e-04
  2         1.0175806310e-02
  3        -4.8085461684e-03
  4        -2.1833422463e-03
  5        -6.1305468860e-03
  6        -6.8172645148e-04
  7         3.0086602426e-03
  8         6.2193369023e-03
  9        -2.6906903112e-03
 10        -2.6617872024e-04
 11        -6.7340684499e-04
 12         6.8893916282e-04
 13        -7.9119272770e-04
 14         9.9866936188e-04
 15        -2.2114111592e-04
 16         1.4562891923e-02
 17         3.4938726610e-03
 18         2.0363846089e-03
 19        -9.3483821607e-03
 20         1.0453860899e-03
 21         6.2322144545e-03
 22         2.6841833668e-03
 23         4.0424312120e-04
 24        -1.4657360386e-03
 25        -2.1399304516e-04
 26        -5.2607478330e-04
 27        -1.1636441505e-03
 28         3.1742057326e-04
 29        -1.4425584833e-03
 30         3.5854864273e-02
 31        -3.2408443190e-03
 32         2.1904698467e-02
 33        -1.7665116067e-02
 34        -4.7874820541e-03
 35         5.8944418629e-03
 36         1.4291883531e-02
 37        -2.0930881700e-03
 38        -2.2609289750e-03
 39        -1.3367429565e-03
 40         1.4169158156e-03
 41         2.3855022626e-03
 42        -7.9151685325e-03
 43        -1.2614650033e-02
 44         1.5416925409e-01
 45         8.4135633838e-02
 46         1.2568591604e-01
 47        -1.8914957573e-03
 48        -2.5947356093e-02
 49         5.1204229313e-03
 50         2.3760015861e-02
 51        -2.6966302785e-04
 52        -1.1158419187e-02
 53        -1.0428815762e-02
 54         2.2130395550e-04
 55         2.8453117229e-02
 56        -3.3890664317e-03
 57        -6.6830331193e-03
 58         4.2342459719e-01
 59         3.7223952601e-01
 60        -7.4952445894e-02
 61         8.8660604223e-02
 62         1.0783183352e-02
 63        -3.1229016048e-02
 64        -2.4777920036e-03
 65         6.3261009265e-03
 66        -6.4006222143e-03
 67        -3.2290751107e-03
 68        -2.8604497559e-04
 69         4.0207370694e-03
 70        -1.5865352554e-03
 71         1.7196607630e-01
 72         5.3982869941e-03
 73        -1.8081312007e-02
 74        -3.0228990475e-02
 75         5.9745588677e-03
 76         1.0871474396e-04
 77        -4.5303272581e-03
 78         4.0783515042e-05
 79         4.6464403671e-05
 80        -1.3837394798e-04
 81         8.7527349943e-03
 82         5.1862178806e-03
 83        -1.2673809345e-03
 84        -6.2853573108e-04
 85        -1.0025688749e-03
 86         3.4493098296e-02
 87         5.4070754621e-03
 88         8.2710349131e-03
 89         4.6549666206e-03
 90        -1.1502795310e-03
 91         5.2320096358e-03
 92         2.2906247985e-03
 93         4.9810991972e-04
 94        -2.2366209781e-03
 95        -3.4400499952e-05
 96         1.8270822864e-03
 97        -1.0892581352e-03
 98        -2.7621411110e-04
 99        -4.4864093456e-04
100        -9.6737829019e-05
 Sym= A
 Ene=        -8.0364882409e-01
 Spin= Alpha
 Occup=         2.0000000000e+00
  1         1.4746130127e-02
  2        -1.9000208767e-01
  3        -1.0343621374e-01
  4         8.3303842427e-02
  5         2.8280843151e-02
  6         1.2040589041e-02
  7         8.3620746299e-03
  8        -2.2808157467e-03
  9         8.0137871339e-03
 10         5.2590694180e-03
 11        -1.9996715054e-03
 12        -3.3192066256e-03
 13        -7.7687990889e-03
 14        -5.7701977222e-03
 15         1.9528614405e-02
 16        -2.7852205656e-01
 17        -1.7784006564e-01
 18        -3.6115105686e-02
 19         4.2611153628e-02
 20        -1.7865928157e-02
 21        -1.9539692648e-02
 22         2.1262078534e-02
 23        -1.3438930638e-02
 24         1.0560298564e-02
 25        -4.1736197120e-04
 26         1.5719552024e-03
 27        -1.6578610643e-03
 28        -1.0794260801e-02
 29         1.8275839639e-02
 30        -2.4144984435e-01
 31        -1.4294785546e-01
 32        -5.7119547880e-02
 33        -1.6632712270e-02
 34         1.8516484591e-02
 35        -1.8594089239e-02
 36        -1.2372167164e-02
 37         9.7506682190e-03
 38         8.5431950095e-03
 39         2.1505588015e-03
 40         2.5987843008e-03
 41         9.0484131839e-03
 42        -5.3875533206e-03
 43         5.3899895181e-03
 44        -1.2240020012e-01
 45        -6.5774821736e-02
 46         6.3606893387e-02
 47        -8.5748316513e-02
 48        -1.1186394879e-02
 49         2.3312768896e-02
 50        -1.2638235707e-02
 51        -6.6773770447e-03
 52         3.3426775736e-03
 53        -1.5694724902e-03
 54        -8.5684352262e-04
 55         1.2295930400e-02
 56         4.4083916236e-03
 57         1.0234167581e-03
 58         9.1586201109e-02
 59         8.5570167999e-02
 60         2.4524427063e-02
 61         1.8262826495e-03
 62        -6.3437676437e-03
 63         1.5454642378e-02
 64        -7.8188201632e-03
 65        -3.0606999644e-03
 66         7.6454682640e-04
 67         4.1417936337e-04
 68        -6.4078467207e-04
 69        -1.0519919725e-03
 70         2.7709864340e-03
 71         3.1444288650e-02
 72         3.9265644837e-03
 73        -1.5092452603e-03
 74        -9.7281880256e-03
 75        -5.7655947639e-05
 76        -5.8812911739e-02
 77        -4.5801117521e-04
 78         5.9428288342e-03
 79         8.4556393902e-03
 80        -2.5807185698e-03
 81        -6.8642702222e-02
 82        -3.8919924897e-03
 83         7.9434179551e-03
 84        -5.3240614744e-03
 85         6.1190774877e-03
 86        -3.2236537223e-02
 87         9.6792904348e-04
 88        -3.2815214915e-04
 89        -5.7530353953e-03
 90        -7.4055536267e-06
 91        -7.9880520470e-02
 92        -8.0002067733e-03
 93        -1.2944059310e-02
 94        -1.1291606466e-03
 95         1.8335817765e-03
 96        -9.6159285568e-02
 97        -1.2475066850e-02
 98        -8.4662983447e-03
 99         1.0932036963e-02
100        -6.3271867891e-03
 Sym= A
 Ene=        -7.3223218785e-01
 Spin= Alpha
 Occup=         2.0000000000e+00
  1         1.6359904753e-02
  2        -2.2873519829e-01
  3        -1.2683376466e-01
  4         5.3460203877e-02
  5         9.7741468316e-03
  6         1.2361539164e-02
  7         1.6489499240e-03
  8         8.5384519953e-04
  9         2.9295301638e-03
 10         3.4261068207e-03
 11        -2.3152664758e-03
 12        -2.4298346865e-03
 13        -5.1068479826e-03
 14         3.7811512626e-04
 15         8.8925205441e-03
 16        -1.3194975274e-01
 17        -1.0160192673e-01
 18        -1.1182509813e-01
 19        -7.6261554693e-02
 20        -4.4002198017e-03
 21        -4.9368242127e-02
 22        -1.1707669429e-02
 23        -6.3138623801e-03
 24         2.4874400836e-03
 25        -3.8244662996e-03
 26        -2.4283343425e-03
 27        -1.4841548238e-02
 28         9.2993024300e-04
 29        -1.3295513485e-02
 30         1.9817822454e-01
 31         1.2970198568e-01
 32         1.1182406696e-02
 33        -1.1737949867e-01
 34        -7.5908611762e-03
 35         1.8939724103e-02
 36        -3.2951795171e-02
 37        -6.8569646804e-04
 38        -3.3162397951e-03
 39         2.7731651837e-06
 40         2.5104314473e-03
 41        -6.7720184486e-03
 42        -1.2262395001e-02
 43        -1.0067194837e-02
 44         2.5099377704e-01
 45         1.4031778240e-01
 46        -7.3111121896e-02
 47         5.6186851735e-02
 48         1.1155087866e-02
 49        -2.1972469278e-02
 50         9.6204502889e-03
 51         2.4401096513e-03