Generated by Psi4
        SP                           RHF                       CC-PVDZ
Number of atoms                            I               11
Charge                                     I                0
Multiplicity                               I                1
Number of electrons                        I               38
Number of alpha electrons                  I               19
Number of beta electrons                   I               19
Number of basis functions                  I              100
Number of independent functions            I              100
Atomic numbers                             I   N=          11
           6           6           6           6           8           1
           1           1           1           1           1
Nuclear charges                            R   N=          11
  6.00000000e+00  6.00000000e+00  6.00000000e+00  6.00000000e+00  8.00000000e+00
  1.00000000e+00  1.00000000e+00  1.00000000e+00  1.00000000e+00  1.00000000e+00
  1.00000000e+00
Current cartesian coordinates              R   N=          33
  1.84267435e+00  2.40078112e+00 -1.15543045e-01 -9.24694732e-01  2.33494886e+00
 -6.81952386e-02 -2.16889591e+00  1.16635383e-01  4.07335160e-01 -7.74183677e-01
 -2.20797122e+00  7.26740364e-02  1.54981695e+00 -2.39200547e+00 -1.85265341e-01
  2.24273181e+00  3.53223254e-01 -7.76931580e-01  2.65212415e+00  4.14866735e+00
 -9.34899607e-01  2.74286187e+00  1.97438630e+00  1.72500617e+00 -1.88628527e+00
 -3.94794185e+00 -2.29552414e-01 -4.22654896e+00  4.52979916e-03  4.28480421e-01
 -2.00908483e+00  3.94364979e+00 -7.99454602e-01
Integer atomic weights                     I   N=          11
          12          12          12          12          16           1
           1           1           1           1           1
Real atomic weights                        R   N=          11
  1.20000000e+01  1.20000000e+01  1.20000000e+01  1.20000000e+01  1.59949146e+01
  1.00782503e+00  1.00782503e+00  1.00782503e+00  1.00782503e+00  1.00782503e+00
  1.00782503e+00
Number of primitive shells                 I              140
Number of contracted shells                I               48
Pure/Cartesian d shells                    I                0
Pure/Cartesian f shells                    I                0
Highest angular momentum                   I                2
Largest degree of contraction              I                8
Shell types                                I   N=          48
           0           0           0           1           1          -2
           0           0           0           1           1          -2
           0           0           0           1           1          -2
           0           0           0           1           1          -2
           0           0           0           1           1          -2
           0           0           1           0           0           1
           0           0           1           0           0           1
           0           0           1           0           0           1
Number of primitives per shell             I   N=          48
           8           8           1           3           1           1
           8           8           1           3           1           1
           8           8           1           3           1           1
           8           8           1           3           1           1
           8           8           1           3           1           1
           3           1           1           3           1           1
           3           1           1           3           1           1
           3           1           1           3           1           1
Shell to atom map                          I   N=          48
           1           1           1           1           1           1
           2           2           2           2           2           2
           3           3           3           3           3           3
           4           4           4           4           4           4
           5           5           5           5           5           5
           6           6           6           7           7           7
           8           8           8           9           9           9
          10          10          10          11          11          11
Primitive exponents                        R   N=         140
  6.66500000e+03  1.00000000e+03  2.28000000e+02  6.47100000e+01  2.10600000e+01
  7.49500000e+00  2.79700000e+00  5.21500000e-01  6.66500000e+03  1.00000000e+03
  2.28000000e+02  6.47100000e+01  2.10600000e+01  7.49500000e+00  2.79700000e+00
  5.21500000e-01  1.59600000e-01  9.43900000e+00  2.00200000e+00  5.45600000e-01
  1.51700000e-01  5.50000000e-01  6.66500000e+03  1.00000000e+03  2.28000000e+02
  6.47100000e+01  2.10600000e+01  7.49500000e+00  2.79700000e+00  5.21500000e-01
  6.66500000e+03  1.00000000e+03  2.28000000e+02  6.47100000e+01  2.10600000e+01
  7.49500000e+00  2.79700000e+00  5.21500000e-01  1.59600000e-01  9.43900000e+00
  2.00200000e+00  5.45600000e-01  1.51700000e-01  5.50000000e-01  6.66500000e+03
  1.00000000e+03  2.28000000e+02  6.47100000e+01  2.10600000e+01  7.49500000e+00
  2.79700000e+00  5.21500000e-01  6.66500000e+03  1.00000000e+03  2.28000000e+02
  6.47100000e+01  2.10600000e+01  7.49500000e+00  2.79700000e+00  5.21500000e-01
  1.59600000e-01  9.43900000e+00  2.00200000e+00  5.45600000e-01  1.51700000e-01
  5.50000000e-01  6.66500000e+03  1.00000000e+03  2.28000000e+02  6.47100000e+01
  2.10600000e+01  7.49500000e+00  2.79700000e+00  5.21500000e-01  6.66500000e+03
  1.00000000e+03  2.28000000e+02  6.47100000e+01  2.10600000e+01  7.49500000e+00
  2.79700000e+00  5.21500000e-01  1.59600000e-01  9.43900000e+00  2.00200000e+00
  5.45600000e-01  1.51700000e-01  5.50000000e-01  1.17200000e+04  1.75900000e+03
  4.00800000e+02  1.13700000e+02  3.70300000e+01  1.32700000e+01  5.02500000e+00
  1.01300000e+00  1.17200000e+04  1.75900000e+03  4.00800000e+02  1.13700000e+02
  3.70300000e+01  1.32700000e+01  5.02500000e+00  1.01300000e+00  3.02300000e-01
  1.77000000e+01  3.85400000e+00  1.04600000e+00  2.75300000e-01  1.18500000e+00
  1.30100000e+01  1.96200000e+00  4.44600000e-01  1.22000000e-01  7.27000000e-01
  1.30100000e+01  1.96200000e+00  4.44600000e-01  1.22000000e-01  7.27000000e-01
  1.30100000e+01  1.96200000e+00  4.44600000e-01  1.22000000e-01  7.27000000e-01
  1.30100000e+01  1.96200000e+00  4.44600000e-01  1.22000000e-01  7.27000000e-01
  1.30100000e+01  1.96200000e+00  4.44600000e-01  1.22000000e-01  7.27000000e-01
  1.30100000e+01  1.96200000e+00  4.44600000e-01  1.22000000e-01  7.27000000e-01
Contraction coefficients                   R   N=         140
  6.91583963e-04  5.32579615e-03  2.70607210e-02  1.01656846e-01  2.74574824e-01
  4.48294319e-01  2.84902611e-01  1.51948592e-02 -2.93269653e-04 -2.31803547e-03
 -1.14997860e-02 -4.68267270e-02 -1.28466169e-01 -3.01266272e-01 -2.55630702e-01
  1.09379336e+00  1.00000000e+00  5.69792516e-02  3.13207212e-01  7.60376742e-01
  1.00000000e+00  1.00000000e+00  6.91583963e-04  5.32579615e-03  2.70607210e-02
  1.01656846e-01  2.74574824e-01  4.48294319e-01  2.84902611e-01  1.51948592e-02
 -2.93269653e-04 -2.31803547e-03 -1.14997860e-02 -4.68267270e-02 -1.28466169e-01
 -3.01266272e-01 -2.55630702e-01  1.09379336e+00  1.00000000e+00  5.69792516e-02
  3.13207212e-01  7.60376742e-01  1.00000000e+00  1.00000000e+00  6.91583963e-04
  5.32579615e-03  2.70607210e-02  1.01656846e-01  2.74574824e-01  4.48294319e-01
  2.84902611e-01  1.51948592e-02 -2.93269653e-04 -2.31803547e-03 -1.14997860e-02
 -4.68267270e-02 -1.28466169e-01 -3.01266272e-01 -2.55630702e-01  1.09379336e+00
  1.00000000e+00  5.69792516e-02  3.13207212e-01  7.60376742e-01  1.00000000e+00
  1.00000000e+00  6.91583963e-04  5.32579615e-03  2.70607210e-02  1.01656846e-01
  2.74574824e-01  4.48294319e-01  2.84902611e-01  1.51948592e-02 -2.93269653e-04
 -2.31803547e-03 -1.14997860e-02 -4.68267270e-02 -1.28466169e-01 -3.01266272e-01
 -2.55630702e-01  1.09379336e+00  1.00000000e+00  5.69792516e-02  3.13207212e-01
  7.60376742e-01  1.00000000e+00  1.00000000e+00  7.09645947e-04  5.46727229e-03
  2.78231186e-02  1.04747740e-01  2.82920846e-01  4.48495239e-01  2.70816885e-01
  1.54502916e-02 -3.14443412e-04 -2.48213768e-03 -1.23163554e-02 -5.05389173e-02
 -1.39384903e-01 -3.25077495e-01 -2.29848308e-01  1.09537935e+00  1.00000000e+00
  6.26791663e-02  3.33536566e-01  7.41239642e-01  1.00000000e+00  1.00000000e+00
  3.34987264e-02  2.34800801e-01  8.13682958e-01  1.00000000e+00  1.00000000e+00
  3.34987264e-02  2.34800801e-01  8.13682958e-01  1.00000000e+00  1.00000000e+00
  3.34987264e-02  2.34800801e-01  8.13682958e-01  1.00000000e+00  1.00000000e+00
  3.34987264e-02  2.34800801e-01  8.13682958e-01  1.00000000e+00  1.00000000e+00
  3.34987264e-02  2.34800801e-01  8.13682958e-01  1.00000000e+00  1.00000000e+00
  3.34987264e-02  2.34800801e-01  8.13682958e-01  1.00000000e+00  1.00000000e+00
Coordinates of each shell                  R   N=         144
  1.84267435e+00  2.40078112e+00 -1.15543045e-01  1.84267435e+00  2.40078112e+00
 -1.15543045e-01  1.84267435e+00  2.40078112e+00 -1.15543045e-01  1.84267435e+00
  2.40078112e+00 -1.15543045e-01  1.84267435e+00  2.40078112e+00 -1.15543045e-01
  1.84267435e+00  2.40078112e+00 -1.15543045e-01 -9.24694732e-01  2.33494886e+00
 -6.81952386e-02 -9.24694732e-01  2.33494886e+00 -6.81952386e-02 -9.24694732e-01
  2.33494886e+00 -6.81952386e-02 -9.24694732e-01  2.33494886e+00 -6.81952386e-02
 -9.24694732e-01  2.33494886e+00 -6.81952386e-02 -9.24694732e-01  2.33494886e+00
 -6.81952386e-02 -2.16889591e+00  1.16635383e-01  4.07335160e-01 -2.16889591e+00
  1.16635383e-01  4.07335160e-01 -2.16889591e+00  1.16635383e-01  4.07335160e-01
 -2.16889591e+00  1.16635383e-01  4.07335160e-01 -2.16889591e+00  1.16635383e-01
  4.07335160e-01 -2.16889591e+00  1.16635383e-01  4.07335160e-01 -7.74183677e-01
 -2.20797122e+00  7.26740364e-02 -7.74183677e-01 -2.20797122e+00  7.26740364e-02
 -7.74183677e-01 -2.20797122e+00  7.26740364e-02 -7.74183677e-01 -2.20797122e+00
  7.26740364e-02 -7.74183677e-01 -2.20797122e+00  7.26740364e-02 -7.74183677e-01
 -2.20797122e+00  7.26740364e-02  1.54981695e+00 -2.39200547e+00 -1.85265341e-01
  1.54981695e+00 -2.39200547e+00 -1.85265341e-01  1.54981695e+00 -2.39200547e+00
 -1.85265341e-01  1.54981695e+00 -2.39200547e+00 -1.85265341e-01  1.54981695e+00
 -2.39200547e+00 -1.85265341e-01  1.54981695e+00 -2.39200547e+00 -1.85265341e-01
  2.24273181e+00  3.53223254e-01 -7.76931580e-01  2.24273181e+00  3.53223254e-01
 -7.76931580e-01  2.24273181e+00  3.53223254e-01 -7.76931580e-01  2.65212415e+00
  4.14866735e+00 -9.34899607e-01  2.65212415e+00  4.14866735e+00 -9.34899607e-01
  2.65212415e+00  4.14866735e+00 -9.34899607e-01  2.74286187e+00  1.97438630e+00
  1.72500617e+00  2.74286187e+00  1.97438630e+00  1.72500617e+00  2.74286187e+00
  1.97438630e+00  1.72500617e+00 -1.88628527e+00 -3.94794185e+00 -2.29552414e-01
 -1.88628527e+00 -3.94794185e+00 -2.29552414e-01 -1.88628527e+00 -3.94794185e+00
 -2.29552414e-01 -4.22654896e+00  4.52979916e-03  4.28480421e-01 -4.22654896e+00
  4.52979916e-03  4.28480421e-01 -4.22654896e+00  4.52979916e-03  4.28480421e-01
 -2.00908483e+00  3.94364979e+00 -7.99454602e-01 -2.00908483e+00  3.94364979e+00
 -7.99454602e-01 -2.00908483e+00  3.94364979e+00 -7.99454602e-01
Total Energy                               R     -2.312109911657556e+02
Alpha Orbital Energies                     R   N=         100
 -1.91392934e+01 -1.02729496e+01 -1.02272383e+01 -1.01947817e+01 -1.01772087e+01
 -1.04486217e+00 -8.16792069e-01 -7.18587243e-01 -6.20949159e-01 -5.55744253e-01
 -5.03451328e-01 -4.46586886e-01 -4.40354440e-01 -4.11042211e-01 -3.95765480e-01
 -3.80936330e-01 -3.52443410e-01 -2.77830053e-01 -2.37033581e-01 -6.39318231e-02
  3.72261362e-02  6.36165019e-02  9.50949498e-02  1.09824012e-01  1.27635744e-01
  1.50232188e-01  1.94606566e-01  2.22776849e-01  2.74303916e-01  3.16055519e-01
  3.32734997e-01  4.20962181e-01  4.49453435e-01  4.52533709e-01  4.69942936e-01
  4.85640848e-01  5.15437190e-01  5.25231564e-01  5.64039610e-01  5.76303458e-01
  6.18383496e-01  6.22326101e-01  6.29998295e-01  6.50397533e-01  6.79991278e-01
  6.96905837e-01  7.04407138e-01  7.60939925e-01  7.89747829e-01  8.62179797e-01
  8.95345855e-01  9.30803654e-01  9.62417988e-01  1.02338012e+00  1.05326137e+00
  1.09160526e+00  1.10049947e+00  1.14303366e+00  1.20124144e+00  1.24178957e+00
  1.29191851e+00  1.33426205e+00  1.43124780e+00  1.47731712e+00  1.49614644e+00
  1.51385950e+00  1.55376388e+00  1.56578628e+00  1.60395359e+00  1.62607991e+00
  1.64591364e+00  1.65645742e+00  1.68916821e+00  1.71806264e+00  1.75515759e+00
  1.76406851e+00  1.80400851e+00  1.84096902e+00  1.85869675e+00  1.88352186e+00
  1.94272427e+00  1.97051331e+00  2.03164432e+00  2.04157306e+00  2.14109222e+00
  2.20612825e+00  2.28853440e+00  2.34417395e+00  2.36797279e+00  2.39154851e+00
  2.45718937e+00  2.49751283e+00  2.60141206e+00  2.66690856e+00  2.77791567e+00
  2.93289448e+00  3.04239602e+00  3.16347272e+00  3.39238314e+00  3.48494699e+00
Alpha MO coefficients                      R   N=       10000
 -2.53413749e-05 -4.16130856e-05 -3.35978514e-05  1.07949192e-04 -7.55628474e-05
 -9.54402028e-05 -1.77893745e-04 -2.88994012e-04  3.68344117e-04  2.76685044e-05
  2.44365746e-05  1.04820948e-04  1.80987396e-05 -2.12603967e-04 -9.49157760e-05
 -1.70882118e-04  3.99059602e-03 -2.27627920e-05 -3.70535234e-05 -7.76827787e-05
 -8.22946380e-04 -1.61910246e-03  5.66180264e-04  9.10556347e-06  7.51253599e-05
 -7.42886657e-05 -5.13085843e-05 -5.20716547e-05  2.04721806e-04  3.11767397e-04
 -3.88196842e-03 -1.18413354e-05  2.62517512e-04  2.35493807e-05 -4.15771403e-03
 -2.70680271e-03  5.48739126e-04  1.26356533e-04  1.29473126e-04  7.56219940e-05
 -4.94778742e-04  4.19930324e-04  4.16725906e-04  5.82797136e-04  6.21630285e-03
  9.32596416e-05 -1.66456036e-04 -9.23739468e-05  5.72597607e-03  1.60196066e-03
 -5.08880716e-04 -1.04633746e-04  1.17441694e-04  1.71570310e-04 -1.13240367e-03
  4.46104564e-04  1.00425384e+00  9.64538894e-03 -1.52514051e-02 -1.72102792e-03
  4.11523047e-04  1.03224811e-04  3.44619571e-03 -1.24545478e-03 -2.44927211e-04
  7.79015636e-05  3.30719782e-06  2.71655834e-05  1.10377225e-04  4.04774773e-05
  2.53662527e-04  2.85464821e-04 -1.94114352e-04 -7.23307284e-04  1.64417161e-04
  2.18213898e-04  4.25026141e-04 -6.43773453e-05 -9.09800521e-05  3.52597459e-05
 -1.63352955e-04 -3.14394028e-04  7.14841867e-05  9.93681563e-05  5.50324178e-05
 -4.21061540e-04  8.10610038e-04 -7.29969940e-04 -1.07805294e-04  6.15643756e-05
 -1.90532177e-04 -1.24849600e-03  1.95090122e-04  2.18976606e-04 -4.01777349e-05
 -1.50680203e-04  1.83538773e-04  3.88145141e-05  6.64627460e-05 -3.96260487e-05
 -3.60555909e-04 -5.08156349e-04  1.24585389e-03  2.57710832e-04  1.31702641e-05
 -4.39605054e-05 -7.98646418e-04 -3.29922207e-04 -3.57142583e-05 -1.14689022e-04
 -1.35434056e-04  2.10088640e-05 -9.96219043e-05 -1.10646059e-04 -3.99322582e-04
 -6.21578060e-04  5.04389703e-03 -1.59858012e-04 -4.42477027e-06  2.96303820e-05
 -1.91858065e-03 -2.97513045e-03  7.28130937e-04 -3.07584026e-04 -2.19322765e-04
 -8.01275894e-05  1.28837828e-04  1.49715927e-04  1.95886036e-03 -3.62685063e-04
 -1.06647281e-03 -4.25897792e-04  9.08858836e-04  1.37450736e-04 -2.18639395e-03
 -4.90638612e-03  4.06782899e-04  1.02725772e-03  2.01322806e-04 -1.63524017e-04
  7.28257467e-04  1.02879957e-03  1.00597882e+00  1.53832353e-02 -1.02672000e-02
  7.97656320e-04 -3.73310572e-04 -3.64662948e-04  4.88572854e-03 -1.50903487e-03
 -5.19888048e-04 -1.60058293e-03 -1.83871417e-04  4.38438409e-04  5.46255658e-04
  2.07092275e-04  4.88366903e-04  1.07057874e-03 -5.63936201e-03  6.65837947e-04
 -6.75439200e-05 -8.68304883e-05  3.42707389e-03 -8.65020041e-05 -3.68400037e-04
  6.22795092e-04  2.22998850e-04 -3.67980793e-05 -7.82726937e-04  9.40347653e-05
 -9.94905178e-06 -4.32027527e-04 -3.32500825e-04 -3.43281612e-04  1.31732239e-05
 -1.31504786e-05  4.63416942e-04 -3.32838370e-05 -1.32579726e-05  3.04086315e-05
 -6.97424132e-05  1.63458842e-04  6.68105051e-05  8.90977944e-05 -8.27214613e-05
 -1.97027837e-03  2.38084512e-03 -1.34230783e-03 -1.60552893e-03 -2.78267680e-04
 -3.96002400e-04 -4.89496193e-04  1.25656307e-04  2.74080676e-04 -2.69038441e-05
 -8.46473591e-05  3.86578575e-04  1.77335242e-04  1.04118044e-04 -5.00178110e-05
  2.64077481e-03 -4.62675181e-04  4.57019433e-03  8.06995382e-04 -6.62492605e-05
  2.00413993e-05 -2.53526212e-03 -4.97430098e-04  8.57253152e-05  8.30611502e-04
  1.47822558e-04  6.13574221e-05 -1.00571071e-03 -1.47326327e-04  1.00645347e+00
  1.62861677e-02 -2.01149397e-02 -4.35118223e-04  4.55579269e-05 -3.88337472e-04
 -2.34924278e-03  3.94743008e-03 -7.09127412e-04 -7.62850840e-04  4.05288370e-04
 -8.54988951e-04 -4.17164255e-04 -5.40932235e-04  8.79984342e-03 -9.70084498e-04
  4.01980415e-03 -5.96314959e-04 -9.84354845e-04  1.77050231e-04  1.98915634e-03
  2.69567146e-03 -2.10105143e-04  8.70346799e-04  1.49094662e-04  3.92831239e-04
  4.34128387e-04 -1.02095246e-03 -3.54189660e-04 -6.41486049e-04  1.66318072e-03
  3.68788962e-05 -2.01234740e-04  3.68941714e-05 -7.25533520e-04  1.38963158e-03
 -7.47465363e-05 -3.14564914e-04 -1.63672358e-04 -5.07062162e-05  4.18020495e-05
  1.67771983e-04  1.33371026e-05  1.69760244e-05 -3.08288374e-04  1.25179594e-04
  4.10204262e-05  8.97654170e-07 -2.33399479e-04 -5.57530537e-04  7.58298167e-05
  1.44540543e-05 -2.41868827e-05 -2.15681349e-06  2.28410080e-05  3.74109242e-05
 -2.67381497e-04  8.89028383e-04 -3.66404151e-04 -1.59503104e-04  1.84850051e-06
 -1.55778805e-04  2.53178182e-04  1.60233327e-04 -8.55195519e-05  7.19993687e-05
 -5.44292548e-04  7.96690289e-04 -5.37386847e-05  2.22342211e-05  7.03240272e-06
 -1.68868643e-04  3.35786429e-04  5.03995633e-05 -1.32583293e-04 -3.04323082e-05
  1.69852836e-04  6.68429035e-04  1.85390086e-04 -2.87177523e-04  2.13520160e-05
 -2.55970522e-03  1.11861956e-03 -1.19549478e-03  1.69953673e-03 -8.92458854e-04
  5.99801475e-04  4.93770119e-04 -9.17971728e-04 -1.35902729e-04 -8.79652823e-05
  1.49167962e-04  1.13394438e-03  2.39734610e-04 -5.30855978e-04  2.80340943e-04
  3.40795047e-05  1.23443482e-04  7.67189809e-06  8.49607717e-05  9.86810845e-03
  1.32703356e-03 -5.16028522e-03 -5.37751085e-04 -1.05102813e-03  2.34766037e-04
  1.35944841e-03  2.93753134e-03 -6.44821091e-05 -8.60341334e-04 -3.08036149e-04
 -5.65610502e-04 -6.80459384e-04  8.26329419e-04 -1.00663991e+00 -1.67740474e-02
  2.11486070e-02  2.73500908e-04 -9.28585008e-05  4.91025984e-04  4.80840084e-03
  1.41873273e-04 -1.81042691e-03  1.10745582e-03  6.80630271e-05  6.77605126e-05
 -7.07316026e-04 -4.05185618e-04  2.37005977e-03  8.38552188e-04 -5.84227260e-03
 -3.91806492e-04  7.12573420e-04  1.32294640e-04  5.97608485e-04 -3.32709236e-03
 -2.11665899e-05 -7.31879211e-04 -2.91103799e-04  3.26066231e-04 -5.34005067e-04
 -1.18156484e-03 -1.47985246e-05 -2.46155043e-05  5.18444087e-04 -5.49427128e-05
  3.51380096e-06  5.13638946e-05  1.78519098e-04  7.54294527e-04 -9.84166472e-05
  1.15128551e-04 -6.94562222e-06 -8.63008097e-07 -3.60303812e-05 -1.97355312e-04
  1.38445407e-04 -4.99074191e-04  9.64525658e-05  1.11995753e-04  2.76188740e-05
 -4.70919906e-06 -4.51016782e-04 -5.98428805e-05  2.32704695e-05  4.55917504e-05
  2.07582217e-04 -1.59982815e-04 -6.85495279e-06 -1.14418798e-04  8.69180952e-05
  2.33626740e-04 -8.03712037e-04 -2.27235911e-04  1.62819362e-04 -2.83527863e-05
  2.52603891e-03 -1.07037122e-03  2.24939274e-03  4.23169253e-05  1.69960362e-04
  1.96897742e-05 -5.27115280e-04 -3.11285813e-04 -7.17337730e-06 -1.47475830e-04
  1.00694372e+00  1.73979445e-02 -1.91417590e-02  1.89669077e-04 -8.73245368e-05
  4.29176972e-04  2.59151987e-03  1.74068520e-03 -4.98801292e-04 -1.92857377e-04
  3.16409367e-04 -6.45242965e-04 -7.31303560e-04  4.01648410e-04 -2.87578878e-03
 -3.22952895e-04  1.93851894e-03 -6.16180843e-04  5.75969204e-05 -2.59074693e-06
  3.32714573e-03  1.44749948e-03 -1.84887622e-04  7.55207348e-04  1.79196449e-04
 -6.40722249e-06 -1.29875143e-03 -1.41012926e-04 -5.56605654e-05 -6.00386115e-04
  2.46713133e-03 -2.24569115e-04 -4.82133975e-05 -2.09194526e-05  1.15955041e-03
  2.08127616e-03 -3.25247331e-04 -3.64025158e-04  2.22501479e-05 -1.29481668e-04
 -2.76290801e-04 -1.84754367e-04 -1.87217161e-04 -5.33697674e-04 -3.01824004e-04
 -1.56073627e-04 -2.19601196e-04 -7.82987823e-05 -7.94297288e-04  6.36630583e-04
  2.05577565e-04 -6.72975688e-05 -3.72738989e-05 -4.76399692e-05 -8.93296309e-05
  2.40549319e-04 -4.28106816e-05 -8.12974222e-05  3.13002958e-04  1.24556939e-04
 -1.84831025e-05 -1.02558502e-04 -9.62574834e-04 -2.73697901e-04  4.71544243e-04
 -5.24971418e-05 -4.40157011e-06  9.35720422e-05  7.06718643e-05 -2.08881076e-05
 -6.04900131e-04  3.74287660e-03  3.29555775e-04 -1.55985286e-03 -6.19889494e-04
 -1.90363078e-03  1.31478728e-03  8.70609378e-04  1.75182806e-03 -9.78081014e-04
 -1.02055975e-03  2.13504904e-03  5.82300312e-04 -3.87628297e-04  1.77579056e-03
 -5.99505671e-05  3.55723059e-04  2.32050829e-05 -3.77725721e-05 -4.17681630e-05
  3.89449095e-05  4.62312742e-04  1.30737036e-05 -1.46839657e-04  2.71611811e-05
 -2.40695355e-04  2.31893135e-04 -3.08166002e-04 -1.85929359e-04  5.39259015e-05
 -7.91611411e-04  1.86282694e-02  5.03054978e-04 -4.97547911e-03 -1.03186864e-02
 -3.89687739e-05  1.64836110e-03  3.82059387e-03 -2.62167005e-03 -5.44230933e-04
 -4.51753244e-04  4.27782435e-04  4.48632363e-04  2.37456095e-04 -7.02956268e-04
  2.19965468e-02  6.37150598e-04  2.91696934e-03 -1.35800477e-02  1.15827942e-03
  2.66757544e-03  3.90505529e-03 -1.84604424e-04 -1.39052376e-03 -4.40123435e-04
 -6.29647783e-04 -1.11756972e-03  8.65367182e-05 -4.22314948e-03  4.00761953e-02
  3.29396736e-02  2.55990108e-02 -1.78643127e-02 -5.69894138e-03  1.93287329e-02
  1.09000436e-04 -4.03917539e-03 -3.81498141e-03 -2.10150374e-03  8.97230411e-04
  1.47654663e-03 -8.78973442e-03 -1.49033932e-02  2.15716870e-01  8.67106574e-02
  1.74112820e-01 -2.16311685e-03 -2.00009495e-02  1.43074561e-02 -1.43981363e-03
 -5.95210418e-04 -1.37316844e-02 -7.25855792e-03 -1.84662934e-03  3.15928634e-02
 -5.78027038e-03 -9.68470353e-03  4.00209408e-01  3.71779189e-01 -1.46149242e-01
  2.58394259e-02  1.32862492e-02 -3.31699448e-02  1.18311074e-02  1.88144004e-03
 -6.11441430e-03 -2.49342812e-03 -1.32543866e-03  1.04724753e-02 -2.57094352e-03
  3.64124834e-02  4.83968195e-03 -3.75157427e-03 -2.78399509e-03  2.40880791e-03
  2.35900222e-03 -3.29932375e-03 -4.00892361e-04 -6.49808718e-04  3.09526056e-04
  7.81454985e-03  2.71453450e-03 -8.81411380e-04 -1.03793328e-03 -1.01728303e-03
  4.19337560e-02 -2.27701040e-03  8.86985646e-03  7.32856486e-03  6.16060466e-04
  6.94055935e-03  5.96605082e-03  1.02774552e-03 -1.74598104e-03 -1.13899800e-04
  2.77740536e-03 -1.02019716e-03 -1.07102998e-04 -7.87456944e-04  9.69610788e-05
  1.13829747e-02 -1.76193854e-01 -7.70038673e-02  7.46704199e-02  1.68080167e-02
 -7.01839211e-03  2.71053091e-03 -9.40577069e-03  7.63109755e-03  5.92687005e-03
  1.01143281e-03 -3.82722973e-04 -1.08938871e-02 -2.67534849e-03  1.94346857e-02
 -2.86656643e-01 -2.02239193e-01 -1.19393112e-02  7.68569732e-02 -7.59221086e-03
 -2.75500572e-02  3.09856359e-02 -9.10427641e-03  1.04354257e-02  2.38153534e-03
  2.24082547e-03 -1.13794006e-03 -7.34598361e-03  1.78481392e-02 -2.49779292e-01
 -1.31898880e-01 -6.46965753e-02 -5.02843794e-02  2.84328375e-02 -5.56420392e-03
 -1.62346640e-02  7.22487789e-03  6.76380739e-03  3.30053413e-03  3.08497809e-03
  7.89761823e-03 -7.93322839e-03  2.74311197e-03 -6.31135932e-02 -4.71711652e-02
  8.84131470e-02 -8.56503850e-02 -1.09694218e-02  2.39054971e-02 -2.35469056e-02
 -5.04341144e-03  2.83191457e-03 -8.29586571e-04 -1.30050345e-03  1.50653292e-02
  3.69953625e-03 -5.09753733e-04  9.71948894e-02  9.76325617e-02 -1.75101831e-02
 -2.47590455e-02  1.77802418e-03  2.24170550e-04 -9.56416406e-03 -1.36092217e-04
  7.01405596e-05 -2.76893204e-04 -5.57156999e-04  1.87757516e-03  2.13272193e-03
 -6.56538478e-02  1.99419097e-03  3.79116868e-03 -9.68567628e-03 -4.33023610e-03
 -5.18326497e-02  2.27630681e-03  5.38551319e-03  6.89676130e-03 -3.68919449e-03
 -6.51735421e-02 -4.72428140e-03  5.20620483e-03 -7.52483540e-04  7.94876154e-03
 -1.46981180e-02 -1.13164919e-03  1.12288340e-03 -2.86730621e-03 -1.69341248e-04
 -7.86706611e-02 -2.93257379e-03 -1.34801295e-02 -2.37473205e-03  7.74878910e-04
 -9.40542150e-02 -1.37687149e-02 -6.65680066e-03  1.22542202e-02 -4.71290820e-03
  1.36089124e-02 -2.66667219e-01 -1.20591680e-01  2.92709719e-02  6.31617342e-03
 -9.08246957e-03 -1.10021095e-02 -8.09679850e-03  6.06529645e-03  2.02514381e-03
  5.13684034e-05 -9.65240345e-04 -3.48600936e-03  3.06271369e-03  5.83647026e-03
 -7.25330911e-02 -9.44479024e-02 -1.34388124e-01 -7.68171269e-02  1.52080152e-02
 -7.53073196e-02 -1.73798193e-03 -3.11481694e-03  3.27740369e-03 -3.27742880e-04
 -1.22656282e-03 -1.73439698e-02  7.06723480e-03 -1.33483083e-02  2.22173402e-01
  1.57029679e-01 -6.99565484e-04 -7.96617702e-02 -1.51800964e-02  2.61155013e-02
 -2.88400587e-02 -2.02550855e-03 -3.36915399e-03 -3.74634402e-04  2.74624244e-03
 -8.69165461e-03 -8.82281982e-03 -4.68316359e-03  1.93161046e-01  1.04116579e-01
 -1.11872594e-01  5.59702088e-02  1.25467929e-02 -3.83131419e-02  1.26329701e-02
  1.82505162e-03 -2.53258709e-03  2.41013097e-04  1.13199451e-03 -7.36437941e-03
 -1.03519800e-02 -1.26119254e-04 -8.54153662e-02 -9.32365460e-02 -4.79360814e-02
 -1.76401066e-02  7.63285381e-03 -3.04822319e-02 -1.01120744e-02  3.17460294e-03
 -1.11403163e-03 -4.87252080e-04  6.30402222e-04  3.83443710e-03 -1.65767735e-03
 -1.22902449e-01 -1.97090564e-02  4.79194628e-03 -1.02980250e-02 -6.79915378e-03
 -1.12362895e-01 -8.54324279e-03  6.72470851e-03  1.31772803e-02 -7.05950589e-03
 -1.22698296e-01 -1.92439202e-02  7.27705425e-03 -2.13831267e-03  1.42040144e-02
  9.23743553e-02  7.81281157e-03  3.71479773e-03  1.12492879e-02  2.16395148e-03
  1.12447753e-01  1.89518750e-02  1.46998872e-02 -1.18588445e-03 -3.39501309e-04
 -3.50348892e-02 -1.56800725e-02 -4.54975453e-03  1.21862739e-03 -1.14559416e-03
  6.72377821e-03 -1.98207124e-01 -1.17579101e-01 -6.68709982e-02  5.37914090e-03
 -2.04184363e-02 -3.90473309e-02 -2.14775546e-03  2.83002174e-03 -5.27212501e-03
 -9.45831591e-04  2.48535671e-04  6.78100653e-03  2.59360539e-04 -4.98263080e-03
  2.05713460e-01  1.01400004e-01 -1.66262276e-01 -1.23218942e-02 -3.93043058e-03
 -5.65989335e-02  1.80934028e-03 -3.05392232e-03  3.27403009e-03 -2.59266684e-03
 -1.47639581e-03 -6.82047113e-03  5.45329713e-03 -2.24801348e-03  2.75049174e-02
  3.81676170e-02 -1.46496649e-02  2.37003184e-01 -1.44399186e-02  3.56478444e-03
  6.90724364e-02 -5.41330693e-03  9.80531765e-04 -5.24318347e-04 -7.55199240e-03
 -5.25784866e-04  1.17111370e-02  3.25692832e-03 -2.14884453e-01 -1.48362233e-01
  1.43622058e-01 -3.35754786e-03 -1.07240402e-02  4.25932659e-02 -2.00599576e-02
 -6.34363216e-03 -1.35596472e-03 -3.10948622e-04 -1.24699319e-03  5.71064949e-03
 -5.60233689e-04  1.08604162e-03  1.21804798e-01  1.46563794e-01  4.68059238e-02
 -1.56192620e-02 -3.55595433e-03  3.70540026e-02 -6.95614703e-03 -3.34695534e-03
  2.38337025e-03  3.41605121e-04 -5.44154474e-04 -1.95703710e-03  3.32255043e-04
 -8.55410442e-02  5.92053027e-04  9.70344911e-04 -1.23913241e-02 -4.53472247e-03
 -1.08842502e-01 -1.57571792e-02  3.50035925e-03  1.08140071e-02 -6.40183993e-03
 -1.29576357e-01 -2.42535610e-02  5.04708707e-03 -2.16925016e-03  1.22483706e-02
 -1.52662407e-01 -3.22134831e-02 -5.73301478e-03 -1.35446149e-02 -2.67542255e-03
  1.62878273e-02  4.52556995e-03  1.50746853e-03  4.85260473e-03 -2.78654799e-04
  1.55878009e-01  2.59176572e-02  6.15286949e-03 -1.46075701e-02  6.51935967e-03
  8.41217772e-04  5.75717363e-03 -6.38536596e-04  8.87704838e-02 -1.29354083e-01
  2.61665211e-02  2.52248327e-02 -3.62542070e-02  9.65261563e-03  3.90280051e-03
 -1.38424358e-03  1.79201259e-03 -9.54018756e-03  4.74010415e-03  3.13895705e-03
 -1.44917793e-01 -1.07263448e-01 -8.24786740e-03 -1.93099966e-01  5.83937948e-02
 -2.48516234e-02 -6.06402465e-02  1.33650613e-02 -4.14511190e-03 -1.34078581e-03
 -3.36911395e-04 -4.36849616e-03  1.04521077e-03 -3.26596786e-03  1.42972432e-01
  9.95402586e-02  1.82020913e-02 -1.37689886e-02  5.11875300e-03  2.41997392e-02
 -2.41566393e-02  9.64905048e-03  1.60281299e-03 -4.47294298e-04  1.78381761e-03
  1.01739970e-02 -8.89069327e-04 -1.09649670e-03 -1.54021380e-01 -1.15130771e-01
 -5.53481783e-03  2.41080889e-01  3.38873012e-02  1.99552913e-02  5.16680156e-02
  9.61143094e-04 -3.74538533e-03 -1.47074800e-03 -5.37721060e-04 -3.69444398e-03
  5.36820507e-03 -1.46142841e-03  7.16392243e-02  1.16590793e-01  1.63763012e-01
  1.56293772e-01 -1.05351373e-02  8.45373612e-02  8.63246894e-02 -2.65699473e-03
  2.71274238e-03  2.55595736e-04  9.51229536e-06 -1.02822787e-02 -7.14014512e-03
  1.40394136e-01  4.98356012e-02 -5.14270032e-03 -2.63644174e-03  6.90710999e-03
 -4.90592951e-02 -1.14629401e-02  4.33683972e-03  5.92220320e-04 -1.24386435e-03
  6.12517501e-02  1.60262892e-02 -2.99784794e-04 -4.42965548e-03 -4.84720192e-03
 -2.11244166e-01 -5.28789909e-02 -1.02855731e-02 -1.35229021e-02 -3.05554814e-03
  7.61721879e-02  2.70589472e-02  8.09509494e-03  7.32126333e-04 -1.36040546e-04
 -1.96302151e-01 -5.29002838e-02 -1.02812134e-02  1.13217625e-02 -6.09168038e-03
 -7.26002173e-04  6.93506308e-02  4.47734900e-02  1.46751185e-01  8.50983592e-02
  3.17349939e-03  3.45498572e-02  5.13184268e-02  1.36984860e-03  5.78491921e-03
  1.95018820e-03 -1.67759297e-03 -6.46340216e-03 -4.37131171e-03 -5.84165739e-04
 -7.92510956e-02 -5.71495009e-02 -1.12010409e-01  1.09758587e-01 -1.28469348e-02
 -6.93105740e-02  3.24968712e-02  5.03376248e-04 -8.88762314e-04 -5.07002837e-04
 -1.32386550e-03  1.12573742e-02  1.20023055e-02 -6.59722085e-03  8.51576794e-02