Generated by Psi4
        SP                           RHF                       CC-PVDZ
Number of atoms                            I               11
Charge                                     I                0
Multiplicity                               I                1
Number of electrons                        I               38
Number of alpha electrons                  I               19
Number of beta electrons                   I               19
Number of basis functions                  I              100
Number of independent functions            I              100
Atomic numbers                             I   N=          11
           6           6           6           6           8           1
           1           1           1           1           1
Nuclear charges                            R   N=          11
  6.00000000e+00  6.00000000e+00  6.00000000e+00  6.00000000e+00  8.00000000e+00
  1.00000000e+00  1.00000000e+00  1.00000000e+00  1.00000000e+00  1.00000000e+00
  1.00000000e+00
Current cartesian coordinates              R   N=          33
  1.95865712e+00  2.62750148e+00 -1.96940787e-01 -8.54843046e-01  2.39571893e+00
 -1.47793961e-01 -2.09978434e+00  1.88509615e-01  1.63247665e-01 -8.61112798e-01
 -2.30062488e+00  7.43408692e-02  1.40993939e+00 -2.70038299e+00  1.23251252e-01
  2.77121989e+00  9.86158269e-01 -1.19975580e+00  2.64382058e+00  4.42476086e+00
 -9.72804962e-01  2.66871510e+00  2.42791805e+00  1.74725210e+00 -2.20229357e+00
 -3.91300524e+00 -1.71823190e-01 -4.16230488e+00  1.49092365e-01  2.96529330e-01
 -1.98394845e+00  4.12008316e+00 -3.79712679e-01
Integer atomic weights                     I   N=          11
          12          12          12          12          16           1
           1           1           1           1           1
Real atomic weights                        R   N=          11
  1.20000000e+01  1.20000000e+01  1.20000000e+01  1.20000000e+01  1.59949146e+01
  1.00782503e+00  1.00782503e+00  1.00782503e+00  1.00782503e+00  1.00782503e+00
  1.00782503e+00
Number of primitive shells                 I              140
Number of contracted shells                I               48
Pure/Cartesian d shells                    I                0
Pure/Cartesian f shells                    I                0
Highest angular momentum                   I                2
Largest degree of contraction              I                8
Shell types                                I   N=          48
           0           0           0           1           1          -2
           0           0           0           1           1          -2
           0           0           0           1           1          -2
           0           0           0           1           1          -2
           0           0           0           1           1          -2
           0           0           1           0           0           1
           0           0           1           0           0           1
           0           0           1           0           0           1
Number of primitives per shell             I   N=          48
           8           8           1           3           1           1
           8           8           1           3           1           1
           8           8           1           3           1           1
           8           8           1           3           1           1
           8           8           1           3           1           1
           3           1           1           3           1           1
           3           1           1           3           1           1
           3           1           1           3           1           1
Shell to atom map                          I   N=          48
           1           1           1           1           1           1
           2           2           2           2           2           2
           3           3           3           3           3           3
           4           4           4           4           4           4
           5           5           5           5           5           5
           6           6           6           7           7           7
           8           8           8           9           9           9
          10          10          10          11          11          11
Primitive exponents                        R   N=         140
  6.66500000e+03  1.00000000e+03  2.28000000e+02  6.47100000e+01  2.10600000e+01
  7.49500000e+00  2.79700000e+00  5.21500000e-01  6.66500000e+03  1.00000000e+03
  2.28000000e+02  6.47100000e+01  2.10600000e+01  7.49500000e+00  2.79700000e+00
  5.21500000e-01  1.59600000e-01  9.43900000e+00  2.00200000e+00  5.45600000e-01
  1.51700000e-01  5.50000000e-01  6.66500000e+03  1.00000000e+03  2.28000000e+02
  6.47100000e+01  2.10600000e+01  7.49500000e+00  2.79700000e+00  5.21500000e-01
  6.66500000e+03  1.00000000e+03  2.28000000e+02  6.47100000e+01  2.10600000e+01
  7.49500000e+00  2.79700000e+00  5.21500000e-01  1.59600000e-01  9.43900000e+00
  2.00200000e+00  5.45600000e-01  1.51700000e-01  5.50000000e-01  6.66500000e+03
  1.00000000e+03  2.28000000e+02  6.47100000e+01  2.10600000e+01  7.49500000e+00
  2.79700000e+00  5.21500000e-01  6.66500000e+03  1.00000000e+03  2.28000000e+02
  6.47100000e+01  2.10600000e+01  7.49500000e+00  2.79700000e+00  5.21500000e-01
  1.59600000e-01  9.43900000e+00  2.00200000e+00  5.45600000e-01  1.51700000e-01
  5.50000000e-01  6.66500000e+03  1.00000000e+03  2.28000000e+02  6.47100000e+01
  2.10600000e+01  7.49500000e+00  2.79700000e+00  5.21500000e-01  6.66500000e+03
  1.00000000e+03  2.28000000e+02  6.47100000e+01  2.10600000e+01  7.49500000e+00
  2.79700000e+00  5.21500000e-01  1.59600000e-01  9.43900000e+00  2.00200000e+00
  5.45600000e-01  1.51700000e-01  5.50000000e-01  1.17200000e+04  1.75900000e+03
  4.00800000e+02  1.13700000e+02  3.70300000e+01  1.32700000e+01  5.02500000e+00
  1.01300000e+00  1.17200000e+04  1.75900000e+03  4.00800000e+02  1.13700000e+02
  3.70300000e+01  1.32700000e+01  5.02500000e+00  1.01300000e+00  3.02300000e-01
  1.77000000e+01  3.85400000e+00  1.04600000e+00  2.75300000e-01  1.18500000e+00
  1.30100000e+01  1.96200000e+00  4.44600000e-01  1.22000000e-01  7.27000000e-01
  1.30100000e+01  1.96200000e+00  4.44600000e-01  1.22000000e-01  7.27000000e-01
  1.30100000e+01  1.96200000e+00  4.44600000e-01  1.22000000e-01  7.27000000e-01
  1.30100000e+01  1.96200000e+00  4.44600000e-01  1.22000000e-01  7.27000000e-01
  1.30100000e+01  1.96200000e+00  4.44600000e-01  1.22000000e-01  7.27000000e-01
  1.30100000e+01  1.96200000e+00  4.44600000e-01  1.22000000e-01  7.27000000e-01
Contraction coefficients                   R   N=         140
  6.91583963e-04  5.32579615e-03  2.70607210e-02  1.01656846e-01  2.74574824e-01
  4.48294319e-01  2.84902611e-01  1.51948592e-02 -2.93269653e-04 -2.31803547e-03
 -1.14997860e-02 -4.68267270e-02 -1.28466169e-01 -3.01266272e-01 -2.55630702e-01
  1.09379336e+00  1.00000000e+00  5.69792516e-02  3.13207212e-01  7.60376742e-01
  1.00000000e+00  1.00000000e+00  6.91583963e-04  5.32579615e-03  2.70607210e-02
  1.01656846e-01  2.74574824e-01  4.48294319e-01  2.84902611e-01  1.51948592e-02
 -2.93269653e-04 -2.31803547e-03 -1.14997860e-02 -4.68267270e-02 -1.28466169e-01
 -3.01266272e-01 -2.55630702e-01  1.09379336e+00  1.00000000e+00  5.69792516e-02
  3.13207212e-01  7.60376742e-01  1.00000000e+00  1.00000000e+00  6.91583963e-04
  5.32579615e-03  2.70607210e-02  1.01656846e-01  2.74574824e-01  4.48294319e-01
  2.84902611e-01  1.51948592e-02 -2.93269653e-04 -2.31803547e-03 -1.14997860e-02
 -4.68267270e-02 -1.28466169e-01 -3.01266272e-01 -2.55630702e-01  1.09379336e+00
  1.00000000e+00  5.69792516e-02  3.13207212e-01  7.60376742e-01  1.00000000e+00
  1.00000000e+00  6.91583963e-04  5.32579615e-03  2.70607210e-02  1.01656846e-01
  2.74574824e-01  4.48294319e-01  2.84902611e-01  1.51948592e-02 -2.93269653e-04
 -2.31803547e-03 -1.14997860e-02 -4.68267270e-02 -1.28466169e-01 -3.01266272e-01
 -2.55630702e-01  1.09379336e+00  1.00000000e+00  5.69792516e-02  3.13207212e-01
  7.60376742e-01  1.00000000e+00  1.00000000e+00  7.09645947e-04  5.46727229e-03
  2.78231186e-02  1.04747740e-01  2.82920846e-01  4.48495239e-01  2.70816885e-01
  1.54502916e-02 -3.14443412e-04 -2.48213768e-03 -1.23163554e-02 -5.05389173e-02
 -1.39384903e-01 -3.25077495e-01 -2.29848308e-01  1.09537935e+00  1.00000000e+00
  6.26791663e-02  3.33536566e-01  7.41239642e-01  1.00000000e+00  1.00000000e+00
  3.34987264e-02  2.34800801e-01  8.13682958e-01  1.00000000e+00  1.00000000e+00
  3.34987264e-02  2.34800801e-01  8.13682958e-01  1.00000000e+00  1.00000000e+00
  3.34987264e-02  2.34800801e-01  8.13682958e-01  1.00000000e+00  1.00000000e+00
  3.34987264e-02  2.34800801e-01  8.13682958e-01  1.00000000e+00  1.00000000e+00
  3.34987264e-02  2.34800801e-01  8.13682958e-01  1.00000000e+00  1.00000000e+00
  3.34987264e-02  2.34800801e-01  8.13682958e-01  1.00000000e+00  1.00000000e+00
Coordinates of each shell                  R   N=         144
  1.95865712e+00  2.62750148e+00 -1.96940787e-01  1.95865712e+00  2.62750148e+00
 -1.96940787e-01  1.95865712e+00  2.62750148e+00 -1.96940787e-01  1.95865712e+00
  2.62750148e+00 -1.96940787e-01  1.95865712e+00  2.62750148e+00 -1.96940787e-01
  1.95865712e+00  2.62750148e+00 -1.96940787e-01 -8.54843046e-01  2.39571893e+00
 -1.47793961e-01 -8.54843046e-01  2.39571893e+00 -1.47793961e-01 -8.54843046e-01
  2.39571893e+00 -1.47793961e-01 -8.54843046e-01  2.39571893e+00 -1.47793961e-01
 -8.54843046e-01  2.39571893e+00 -1.47793961e-01 -8.54843046e-01  2.39571893e+00
 -1.47793961e-01 -2.09978434e+00  1.88509615e-01  1.63247665e-01 -2.09978434e+00
  1.88509615e-01  1.63247665e-01 -2.09978434e+00  1.88509615e-01  1.63247665e-01
 -2.09978434e+00  1.88509615e-01  1.63247665e-01 -2.09978434e+00  1.88509615e-01
  1.63247665e-01 -2.09978434e+00  1.88509615e-01  1.63247665e-01 -8.61112798e-01
 -2.30062488e+00  7.43408692e-02 -8.61112798e-01 -2.30062488e+00  7.43408692e-02
 -8.61112798e-01 -2.30062488e+00  7.43408692e-02 -8.61112798e-01 -2.30062488e+00
  7.43408692e-02 -8.61112798e-01 -2.30062488e+00  7.43408692e-02 -8.61112798e-01
 -2.30062488e+00  7.43408692e-02  1.40993939e+00 -2.70038299e+00  1.23251252e-01
  1.40993939e+00 -2.70038299e+00  1.23251252e-01  1.40993939e+00 -2.70038299e+00
  1.23251252e-01  1.40993939e+00 -2.70038299e+00  1.23251252e-01  1.40993939e+00
 -2.70038299e+00  1.23251252e-01  1.40993939e+00 -2.70038299e+00  1.23251252e-01
  2.77121989e+00  9.86158269e-01 -1.19975580e+00  2.77121989e+00  9.86158269e-01
 -1.19975580e+00  2.77121989e+00  9.86158269e-01 -1.19975580e+00  2.64382058e+00
  4.42476086e+00 -9.72804962e-01  2.64382058e+00  4.42476086e+00 -9.72804962e-01
  2.64382058e+00  4.42476086e+00 -9.72804962e-01  2.66871510e+00  2.42791805e+00
  1.74725210e+00  2.66871510e+00  2.42791805e+00  1.74725210e+00  2.66871510e+00
  2.42791805e+00  1.74725210e+00 -2.20229357e+00 -3.91300524e+00 -1.71823190e-01
 -2.20229357e+00 -3.91300524e+00 -1.71823190e-01 -2.20229357e+00 -3.91300524e+00
 -1.71823190e-01 -4.16230488e+00  1.49092365e-01  2.96529330e-01 -4.16230488e+00
  1.49092365e-01  2.96529330e-01 -4.16230488e+00  1.49092365e-01  2.96529330e-01
 -1.98394845e+00  4.12008316e+00 -3.79712679e-01 -1.98394845e+00  4.12008316e+00
 -3.79712679e-01 -1.98394845e+00  4.12008316e+00 -3.79712679e-01
Total Energy                               R     -2.312393243974257e+02
Alpha Orbital Energies                     R   N=         100
 -1.91349457e+01 -1.02723986e+01 -1.02235279e+01 -1.01970185e+01 -1.01892561e+01
 -1.03933825e+00 -8.11750201e-01 -7.17178028e-01 -6.28520479e-01 -5.34758078e-01
 -4.97695519e-01 -4.40796383e-01 -4.32840215e-01 -4.21166475e-01 -3.85075164e-01
 -3.80101421e-01 -3.75091521e-01 -2.73840037e-01 -2.48711557e-01 -6.47957761e-02
  5.00831242e-02  6.46305694e-02  9.03689553e-02  1.05926363e-01  1.30212203e-01
  1.45255681e-01  1.59839180e-01  2.17307111e-01  2.63972719e-01  3.22424965e-01
  3.38940921e-01  4.34233197e-01  4.36190422e-01  4.51048507e-01  4.71342322e-01
  4.84684610e-01  5.07449987e-01  5.26622131e-01  5.67686683e-01  5.96764438e-01
  6.17828982e-01  6.26452833e-01  6.39599378e-01  6.51358166e-01  6.72198866e-01
  6.83187086e-01  7.03582049e-01  7.71012711e-01  8.16215884e-01  8.49928594e-01
  9.13562229e-01  9.26264209e-01  9.56338168e-01  1.01868845e+00  1.02734411e+00
  1.04987427e+00  1.08311776e+00  1.14306225e+00  1.18167200e+00  1.19190198e+00
  1.29199584e+00  1.36498233e+00  1.39794346e+00  1.47450625e+00  1.49004994e+00
  1.49489324e+00  1.54823231e+00  1.56622501e+00  1.61815928e+00  1.63165999e+00
  1.65546913e+00  1.65739439e+00  1.67195688e+00  1.69303150e+00  1.73357392e+00
  1.75411776e+00  1.78761100e+00  1.80293645e+00  1.85188988e+00  1.92073892e+00
  1.96534001e+00  1.97338861e+00  2.01555494e+00  2.06670204e+00  2.10245371e+00
  2.24323221e+00  2.31762129e+00  2.34227520e+00  2.40429014e+00  2.41189913e+00
  2.42156063e+00  2.48595721e+00  2.57457029e+00  2.64930413e+00  2.69837203e+00
  2.79511230e+00  2.98311783e+00  3.06675965e+00  3.42050896e+00  3.47783018e+00
Alpha MO coefficients                      R   N=       10000
 -6.90849435e-05 -1.44231296e-04  7.35637671e-05  6.51230283e-05  4.24883889e-05
  1.02475974e-05 -4.04646182e-05 -1.47285913e-04  1.62160702e-04  7.49850362e-05
  3.30965409e-05  3.52914430e-05  7.64275925e-05 -1.00422060e-04 -2.03374149e-04
 -3.62999770e-04  5.33861746e-03 -2.24648814e-05 -1.85063431e-05 -5.87894395e-05
 -9.47557698e-04 -2.20214329e-03  4.91731225e-04 -3.04021247e-05  3.05553050e-05
 -2.04109790e-05 -4.99244578e-05 -5.19466547e-05  2.03653198e-04  3.12555799e-04
 -3.88426547e-03  2.42139773e-05  2.77699049e-04 -1.19572524e-05 -4.49212677e-03
 -3.55883185e-03  2.94666220e-04  1.27626290e-04  5.10416168e-05  8.80947251e-05
 -3.94369154e-04  4.97568258e-04  4.54088452e-04  5.96102325e-04  5.32702099e-03
 -9.66642853e-05 -1.79583008e-04 -3.24557360e-05  6.61590561e-03  5.67781732e-04
  1.28673591e-04 -1.33303728e-05  1.12090881e-05  8.97060732e-05 -1.16017823e-03
  5.11177879e-04  1.00416725e+00  9.46747386e-03 -1.50890160e-02 -1.83705403e-03
  3.54973052e-04 -5.84277094e-05  3.50567179e-03 -8.31027665e-04  9.51314789e-05
 -1.88681135e-05  1.97784257e-06 -3.44040068e-06  6.76118461e-05  9.71951225e-06
 -1.16007994e-04 -1.15935602e-04  3.31109253e-05 -2.02693553e-05  2.96500508e-05
  1.22153026e-04  3.56483387e-04 -7.43083218e-05 -6.87997605e-05  4.38373318e-05
 -1.07541533e-04 -2.46371353e-04  6.81375962e-05  6.30343618e-05  5.82293530e-05
 -1.55927568e-04  9.10071611e-04 -7.67383920e-04  1.11345578e-04 -3.40333021e-06
 -2.81424458e-04 -1.31602210e-03  1.84396098e-04  2.50045335e-04 -3.72635320e-07
 -1.79765764e-04  2.26754148e-04  4.23321875e-05  8.12533045e-05 -2.86825933e-05
 -3.69990965e-04 -4.89732206e-04  8.90837320e-04  2.88007117e-04  7.14171408e-05
  9.31696759e-07 -6.21605552e-04  6.00929647e-05  1.76711571e-05 -1.68044694e-05
 -6.95881894e-05  1.73967311e-06 -1.15688764e-04 -4.14686793e-05 -4.31465538e-04
 -6.32128255e-04  6.50240302e-03 -2.71375372e-04 -2.55537917e-05  4.99071422e-05
 -2.11409920e-03 -3.80988369e-03  6.05835637e-04 -3.97395336e-04 -1.92211695e-04
 -9.65510605e-05  2.91172068e-04  3.57562262e-04  1.66141582e-03 -2.58510597e-04
 -1.93326443e-03 -3.51808411e-04  7.67609635e-04  4.54257781e-05 -2.59634371e-03
 -5.97035819e-03  4.14321368e-04  1.04359089e-03  3.26691396e-06 -1.69651521e-05
  1.11951655e-03  8.61581031e-04  1.00594678e+00  1.52982409e-02 -1.07278086e-02
  7.20949795e-04 -4.89059108e-04 -9.88627941e-05  5.42027315e-03 -2.05193947e-03
  1.46224083e-05 -1.63964727e-03  2.19219519e-04  1.96011482e-04  8.43335115e-04
  9.25202241e-06  3.67499743e-04  9.10043052e-04 -5.93396670e-03  7.43420276e-04
 -2.09625632e-04  1.67003671e-06  3.40520057e-03 -2.05630298e-04  9.58497194e-05
  5.68976556e-04 -2.77008818e-05 -1.85425024e-05 -7.26781943e-04  2.54573638e-04
 -1.12109625e-04 -6.31329661e-05  2.73283039e-05  2.48534514e-06 -1.39052417e-05
 -5.18904041e-05  3.56135927e-04 -5.28363393e-05 -2.63838785e-05  8.96007500e-06
 -6.29110017e-05 -8.00428846e-06  1.04918039e-04  5.24364314e-05 -4.49384109e-05
 -1.69395027e-03  2.48286787e-03 -1.43513613e-03 -1.46169947e-03 -2.30660050e-04
 -5.28659403e-04 -4.95398383e-04  4.96706609e-05  2.81453101e-04 -3.11160603e-05
 -2.83782210e-05  6.15443689e-04  2.25284378e-04  1.03086565e-04 -3.32836859e-05
  3.10065538e-03 -4.03200367e-04  4.36906707e-03  7.23066681e-04  4.40416627e-05
  6.04264064e-05 -2.42223065e-03 -8.40207677e-04 -3.39970537e-04  7.88516638e-04
  7.71197853e-05  3.01462941e-05 -9.82748947e-04 -5.79159159e-05  1.00634299e+00
  1.61625095e-02 -2.02459438e-02 -5.15621824e-04  1.87119932e-04 -1.56255452e-05
 -2.28094276e-03  3.90724098e-03 -4.75105924e-04 -1.03853330e-03  1.09296626e-04
 -3.22103465e-04 -5.48804814e-04 -4.18345354e-04  1.24334711e-02 -1.23822551e-03
  4.84597900e-03 -7.19970961e-04 -1.07747207e-03  1.63827351e-04  2.72261223e-03
  2.65798932e-03 -2.91292365e-04  8.70440500e-04  1.38401077e-04  3.01285165e-04
  5.09019476e-04 -9.67971992e-04 -2.78735570e-04 -5.57333861e-04  1.15736046e-03
 -2.12664584e-05 -2.08660830e-04  3.96926048e-05 -4.50931187e-04  1.05153538e-03
 -6.05495062e-05 -3.27758436e-04 -9.82020366e-05 -1.18058418e-05  1.65061746e-04
 -1.05748548e-05 -3.41753002e-05 -7.23362426e-05 -1.17517298e-04  1.21453457e-04
  1.41120622e-05  1.68918023e-05 -1.22737736e-04 -3.36215942e-04  2.95401365e-05
  1.12738264e-05 -2.62272680e-05  3.45565877e-06  3.47690230e-06  2.42479635e-05
 -4.27513607e-04  4.08532230e-04 -1.30304665e-04 -9.73164078e-06  5.09753629e-05
 -2.72609355e-04  2.11760596e-04  1.45637488e-04  1.87330661e-05  7.46489213e-05
 -4.73499539e-04  1.16071553e-03 -1.92185993e-04  5.28114908e-06  2.43102622e-05
 -8.60574155e-05  3.31915108e-04  4.59559444e-05 -7.23906140e-05 -1.54287427e-05
  1.68109345e-04  9.49884419e-04  1.59177232e-04 -2.62804878e-04 -6.73826162e-07
 -2.44995436e-03  1.09496399e-03 -1.24396287e-03  1.79600315e-03 -2.37193031e-04
  1.23122434e-03  4.78286237e-04 -2.67786743e-04 -1.07511293e-04 -1.36707612e-04
  1.05583368e-04  8.90528093e-04  7.35417591e-05 -2.81690704e-04  3.01964778e-04
  2.45482121e-05  6.06732447e-05 -4.81537244e-05  1.25294536e-04  1.38923864e-02
  1.73189728e-03 -6.19568329e-03 -5.92869238e-04 -1.21369196e-03  1.76346356e-04
  7.09157016e-04  3.74014598e-03 -1.93445521e-04 -9.14034791e-04 -1.89802647e-04
 -3.20819528e-04 -6.05955833e-04  9.27356411e-04 -1.00650521e+00 -1.65867511e-02
  2.11647506e-02  3.30210859e-04 -2.44627943e-04  1.60059235e-04  5.29043775e-03
  2.93312257e-04 -9.21111335e-04  1.09553556e-03  1.84955542e-04  1.17248117e-04
 -4.37572842e-04 -5.00106821e-04  1.98259015e-03  7.83597715e-04 -5.68813167e-03
 -2.65789483e-04  7.16000489e-04  5.38652260e-05 -3.55507747e-04 -3.43641594e-03
  4.97340521e-05 -7.03434919e-04 -1.63586652e-04  6.88754720e-05 -5.61236907e-04
 -1.21765930e-03 -3.69306402e-05 -6.40233533e-05  7.48062994e-04 -1.70414849e-05
  6.36230863e-05  4.08988679e-05  1.34698552e-04  6.29315129e-04 -5.32458596e-05
  1.28661996e-04 -4.16220961e-05 -1.22937378e-05 -8.05068288e-05 -2.19223147e-04
  1.37115684e-04 -3.25504522e-04 -1.88867924e-05 -7.47660923e-05  5.29066570e-05
 -3.73376607e-05 -3.54380227e-04 -4.54538840e-05  4.93883474e-05  2.84285629e-05
  7.76668409e-05 -1.96176496e-04 -4.17754015e-05 -8.42587323e-05  1.34272584e-04
  2.89538980e-04 -9.66260088e-04 -7.07732204e-05  1.93918421e-04 -3.45456097e-05
  2.49978407e-03 -8.34579983e-04  2.18450033e-03 -9.37951032e-05 -7.50503875e-05
 -1.06853292e-04 -8.52066926e-04 -2.90567141e-04  3.71229432e-05 -4.09723777e-05
  1.00702297e+00  1.75074188e-02 -1.93090228e-02  4.05867569e-04  2.80166822e-05
  2.22336948e-04  2.89091996e-03  4.97110006e-04 -5.14250731e-04  1.95479722e-04
  7.37871309e-06 -1.65013577e-04 -6.51791174e-04  8.36362513e-05 -3.28861475e-03
 -2.59475310e-04  1.58250705e-03 -4.90841474e-04  5.15993089e-05  3.60617579e-07
  4.16352010e-03  2.37947195e-03 -3.00828092e-04  6.40810061e-04  1.00816301e-04
 -1.02894083e-05 -1.32773809e-03 -3.97610603e-04  5.51506994e-04 -6.61031347e-04
  3.68901359e-03 -2.36839412e-04  3.62790254e-05 -3.41410373e-06  1.23060114e-03
  2.59234745e-03 -3.78671947e-04 -3.71029278e-04  2.76734857e-05 -1.08550275e-04
 -4.19997696e-04 -2.13865435e-04 -1.26849650e-04 -5.06339256e-04  3.58585736e-04
 -7.24591728e-05 -2.69691537e-04 -3.99976269e-05 -2.22698222e-04  4.75491017e-04
  1.30251336e-04 -3.60546194e-05 -2.92601566e-05 -2.91620966e-05  3.15491504e-05
  5.13733328e-05 -1.03565725e-04 -2.00853748e-04  3.53371518e-04  3.10784347e-05
 -1.11915815e-04 -2.29149906e-05 -2.51641784e-04  2.45159753e-04  6.62488583e-05
 -5.68959418e-05  5.30665766e-07  6.57138366e-06  1.62672564e-06 -1.75482079e-06
 -1.05606851e-03  2.08189846e-03  5.92823676e-04 -1.47265463e-03 -9.16922469e-04
 -1.53016153e-03  1.74768041e-03  6.13127869e-04  1.80954662e-03 -7.81176825e-04
 -1.09211797e-03  2.39763925e-03  4.83265613e-04 -2.14961761e-04  1.84207184e-03
  1.81788865e-05  3.77210815e-04  1.14975635e-05  6.04474364e-05 -1.56740570e-05
  3.78269969e-05  4.95977023e-04  6.16971814e-05 -1.91189708e-04  2.81384629e-05
 -3.86750519e-04  1.39229043e-04 -3.88888823e-04 -1.71756371e-04  2.55483516e-05
 -5.06205727e-04  8.09668454e-03  5.03208128e-03 -3.36488477e-03 -3.91195313e-03
 -3.45462579e-05 -2.76587099e-03 -1.38534197e-03  8.10819556e-04 -7.19479396e-04
 -1.15597388e-04 -1.62282603e-04  1.00495277e-04  8.97455409e-04  4.61880136e-04
  1.71027536e-02 -1.17724108e-02  4.01347081e-04 -1.07961641e-02  1.12443914e-03
 -1.85658721e-03  9.18681121e-03 -1.20394376e-03 -5.12451461e-04 -2.06207761e-04
 -4.71315579e-04 -1.52279487e-03  7.27221517e-04 -3.71480152e-03  3.66028477e-02
  3.17927154e-02  2.13940384e-02 -1.96323843e-02 -1.08640615e-03  1.98407800e-02
  1.89749686e-03 -1.91260491e-03 -3.73484238e-03 -4.65395269e-04 -8.06229854e-05
 -2.83995475e-04 -9.09283062e-03 -1.47828551e-02  2.24201321e-01  9.45055428e-02
  1.84064515e-01 -2.38801675e-02  3.94342413e-03  1.24369058e-02 -2.45731974e-03
  9.42271110e-04 -1.38342248e-02  4.83768506e-04 -1.47906533e-03  3.13556546e-02
 -1.34646332e-02 -9.23156996e-03  4.01964276e-01  3.60969170e-01 -1.54938090e-01
  3.08887540e-02 -3.97521138e-03 -3.17693070e-02  7.58412892e-03 -1.54045586e-03
 -5.39377169e-03  3.21759065e-04 -7.62578340e-04  1.20689423e-02 -4.92003847e-03
  7.71778373e-03  3.96076549e-03 -7.04942788e-04 -3.62644217e-04  7.01279447e-04
  1.11773102e-03 -4.32195914e-04  2.40586804e-05 -5.19277530e-05 -7.47277797e-05
  2.82065419e-03  7.81885059e-04 -3.28403058e-04 -3.57925357e-04 -5.59541178e-04
  4.01685067e-02 -3.35029882e-03  1.00894644e-02  6.07281979e-03  1.05084618e-03
  7.29160996e-03  6.07584333e-03  1.04101677e-03 -1.88961461e-03 -9.02304116e-05
  1.91185467e-03 -2.98884555e-03 -1.76636374e-04 -8.43217202e-04  1.38303764e-04
  1.12572546e-02 -1.80525728e-01 -7.44333149e-02  6.74662798e-02  1.42563860e-02
 -5.11367694e-03  2.09448879e-03 -9.05162577e-03  2.70079754e-03  5.74405589e-03
  6.02400747e-04 -1.00574716e-04 -1.00660370e-02 -3.23438676e-03  1.99606374e-02
 -2.89387260e-01 -2.03510741e-01 -4.68779154e-03  7.08972747e-02 -8.95114892e-03
 -3.24721128e-02  2.50882333e-02 -3.79378202e-03  1.00101031e-02  1.27684401e-03
  1.87330649e-03 -2.18055520e-03 -1.00092546e-02  1.73665479e-02 -2.54094278e-01
 -1.38380255e-01 -5.91398554e-02 -5.65830463e-02  1.48887808e-02 -2.37780081e-03
 -2.15198456e-02  3.86399304e-03  6.84318132e-03  1.58503848e-03  2.08206855e-03
  8.81428265e-03 -8.60646385e-03  2.60895705e-03 -6.45679102e-02 -5.14405073e-02
  7.29982304e-02 -8.10855023e-02  1.21642054e-03  2.37764949e-02 -2.30138523e-02
 -1.12026939e-03  2.71295270e-03  4.31040316e-04 -3.05984641e-04  1.34740802e-02
  3.18458845e-03 -3.67251158e-04  7.78217856e-02  7.50519375e-02 -1.25108136e-02
 -1.67721665e-02  1.06889601e-04  1.14936306e-03 -7.26799905e-03  5.96104733e-04
  1.70626693e-04  9.19219785e-06  3.17636752e-05  1.72781125e-03  1.60723354e-03
 -6.74431267e-02 -2.10772523e-03  4.59622995e-03 -7.85720718e-03 -5.18111934e-03
 -5.94032175e-02 -5.62198381e-04  4.83936105e-03  8.13482380e-03 -3.47714445e-03
 -6.93504901e-02 -3.55123654e-03  4.36942764e-03 -1.29563954e-04  9.26994539e-03
 -1.88464183e-02  3.25792740e-06  6.47436730e-05 -3.53065075e-03 -1.32921683e-04
 -8.27189694e-02 -2.36002953e-03 -1.41021204e-02 -1.93894524e-03  1.16877049e-03
 -9.83910510e-02 -1.34876396e-02 -6.97907858e-03  1.36394677e-02 -1.74658869e-03
  1.43775349e-02 -2.83357163e-01 -1.21028455e-01  2.00523595e-02 -7.28714356e-03
 -5.45982416e-03 -1.57778147e-02 -7.78434145e-03  6.25871966e-04  1.47639485e-03
 -9.50051129e-05 -1.55718040e-04 -3.11514539e-03  2.28692175e-03  5.41912040e-03
 -5.33846814e-02 -8.76633823e-02 -1.36973763e-01 -8.94386544e-02  1.00097281e-02
 -8.91779842e-02 -6.47979566e-03  1.46062671e-03  3.82473083e-03 -4.45010989e-04
 -1.10475457e-03 -1.76530266e-02  4.20048898e-03 -1.38009845e-02  2.27109921e-01
  1.66001737e-01 -6.65126684e-03 -6.23897766e-02 -4.67090225e-03  3.43256893e-02
 -3.67523548e-02 -1.46771696e-03 -4.38315494e-03 -6.55522175e-05  4.49147161e-04
 -9.75851667e-03 -6.08828019e-03 -3.31489456e-03  1.59285290e-01  7.04848357e-02
 -1.11412446e-01  7.52293837e-02  1.03163237e-04 -3.90776425e-02  9.09775262e-03
 -1.34116708e-03 -1.69842951e-03 -3.83744893e-04  2.71294769e-04 -9.60271192e-03
 -6.12365490e-03 -2.27317749e-04 -8.44962528e-02 -8.47708555e-02 -2.16513423e-02
  6.78769249e-03  1.40800435e-03 -2.17426014e-02  1.43418541e-03  1.30385368e-04
 -9.60351333e-04  7.18051572e-05  3.02680939e-04  1.25311387e-03 -2.00897016e-03
 -1.20625799e-01 -1.67553879e-02  6.48921860e-03 -1.28827900e-02 -8.11486654e-03
 -1.31049675e-01 -1.51825120e-02  6.04537739e-03  1.53455371e-02 -6.98924573e-03
 -1.30001238e-01 -1.66669691e-02  5.81563869e-03 -1.97671488e-03  1.61923077e-02
  7.57588378e-02  3.27903258e-03  3.71047471e-03  9.14952822e-03  1.16351569e-03
  1.16356016e-01  2.25925303e-02  1.48026357e-02 -1.09015272e-03 -1.03357073e-03
 -2.97846179e-02 -1.61267721e-02 -4.11558047e-03  8.52286192e-04 -1.67723000e-04
  5.74031806e-03 -1.80827134e-01 -9.99339079e-02 -7.40016047e-02 -2.97533980e-03
 -5.56431252e-03 -3.89036305e-02 -6.24071692e-03  6.32620186e-03 -5.03823146e-03
 -7.72638963e-04 -2.20391324e-04  7.39183128e-03  8.45009657e-04 -5.33929789e-03
  2.11526059e-01  1.00838073e-01 -1.43815386e-01 -1.52163883e-02  6.26938529e-03
 -4.38832037e-02 -2.24922064e-04 -1.01170881e-03  2.87756071e-03 -1.53741681e-03
 -9.30141438e-04 -5.72292669e-03  3.93472682e-03 -1.41293319e-03  5.31179686e-03
  1.43533839e-02  7.33785101e-03  2.47220463e-01 -1.24016057e-02  4.29385070e-03
  7.59686800e-02 -3.03383781e-03  8.49364527e-04 -4.87861503e-04 -3.82497841e-03
  1.29653618e-03  1.11916165e-02  2.61128627e-03 -2.30283784e-01 -1.49598228e-01
  1.54299255e-01 -2.47033411e-02  4.61661508e-03  4.66404609e-02 -1.81741237e-02
  5.68553715e-04 -1.19718109e-03  9.02545351e-04 -6.43541917e-04  5.60815700e-03
  1.36294280e-03  1.03764702e-03  1.21179483e-01  1.41075160e-01  5.07589658e-02
 -1.01979232e-02  2.58381213e-03  3.90981276e-02 -6.46400339e-03  1.96293718e-03
  2.52615049e-03 -1.97012708e-04 -3.33635857e-05 -2.23584640e-03  5.87299933e-04
 -1.00281529e-01 -7.25597594e-03  3.25675104e-03 -1.02868624e-02 -5.72734244e-03
 -1.05830595e-01 -1.58278845e-02  2.28281387e-03  1.08033358e-02 -5.24360475e-03
 -1.09626119e-01 -2.11288273e-02  3.14645968e-03 -1.13470005e-03  1.14631798e-02
 -1.57534085e-01 -2.86130532e-02 -7.82858355e-03 -1.40241687e-02 -1.95958238e-03
 -4.78249410e-03 -9.10102509e-04 -2.95434670e-04  4.99342228e-03 -2.39612454e-04
  1.49090635e-01  2.56004979e-02  6.88096287e-03 -1.50811833e-02  2.23725550e-03
  1.45543351e-03 -4.10587875e-02 -3.32370137e-02 -1.10918974e-01  9.27743722e-02
 -1.18918563e-02 -3.11651674e-02  3.81588487e-02 -6.80255054e-03 -5.07439822e-03
  7.24465185e-04 -1.47631621e-03  9.48774764e-03 -6.31013513e-03 -2.62311619e-03
  1.42428016e-01  1.03121593e-01 -2.21752432e-03  2.23182530e-01 -3.28910033e-02
  2.57627656e-02  6.77183501e-02 -9.70594978e-03  3.86850811e-03  1.47358573e-03
  1.28470122e-03  1.15212575e-03 -6.05689640e-03  2.99179464e-03 -1.52249079e-01
 -1.07293701e-01 -1.98401222e-02  2.22136808e-04 -7.89611223e-03 -2.28932450e-02
  2.85164771e-02 -6.64723545e-03 -3.72235725e-03  2.30072406e-04 -7.32099427e-04
 -1.33060243e-02  1.04979648e-03  6.87640121e-04  1.58303070e-01  1.20568010e-01
 -5.88917596e-02 -2.38086268e-01 -2.19860588e-02 -4.64274594e-02 -5.33524899e-02
 -4.22903012e-03  5.23133132e-03  6.83073411e-04 -1.06065215e-04 -4.75836823e-05
  8.45510239e-04  4.72791675e-04 -8.56496116e-02 -1.20817615e-01 -1.41935950e-01
 -1.12214474e-01 -9.33342509e-03 -8.32466244e-02 -6.21387703e-02 -5.32526369e-03
 -3.48096574e-03  1.22050406e-03  4.92685209e-04  9.00113390e-03  6.77154286e-03
 -1.06510192e-01 -3.52042920e-02  1.70701684e-03 -4.39551441e-03 -5.83901144e-03
  7.12569864e-03 -3.34207495e-03 -3.23663793e-03  1.86990944e-03  3.73068411e-05
 -6.38176402e-02 -1.91764245e-02 -6.40153132e-04  2.47882703e-03  5.76107081e-03
  2.29026047e-01  5.98626876e-02  1.17308786e-02  1.27721920e-02  2.29330728e-03
 -8.12806257e-02 -2.97914412e-02 -8.43159841e-03 -9.73175269e-04  4.20107851e-04
  2.18322939e-01  6.52064778e-02  1.09242626e-02 -1.23120867e-02  1.63414884e-03
  2.53770485e-03 -5.17097895e-02 -4.90603827e-02 -1.48085822e-01 -9.98656105e-02
  4.54659283e-03 -3.43355892e-02 -4.24223365e-02 -2.48390275e-03 -5.27683168e-03
 -7.76066786e-04  2.15334868e-03  7.39686276e-03  4.33932796e-03  6.77414833e-04
  8.56188627e-02  5.92194311e-02  1.36563973e-01 -1.14153169e-01  3.14476248e-03
  8.14606743e-02 -3.32269780e-02 -1.62223703e-03  1.55844738e-03  1.78017694e-03
  7.13598357e-04 -9.84079792e-03 -1.09215982e-02  5.77543968e-03 -7.44927639e-02