[Molden Format]
[Atoms] (AU)
C    1    6           1.6596100576         2.9087491763         0.2466215559
C    2    6          -0.8034127516         2.3680963020        -0.1468631328
C    3    6          -2.0853289534        -0.0182100894         0.3494177627
C    4    6          -0.8839388384        -2.2595362956         0.0841524657
O    5    8           1.6044594589        -2.5783811676        -0.3974784981
H    6    1           2.3220411354        -0.8643369841        -0.6330942947
H    7    1           2.4924573555         4.6541445966        -0.4664995355
H    8    1           2.8816311443         1.7111350364         1.4077794584
H    9    1          -1.8838887972        -4.0499191407         0.1018445541
H   10    1          -4.1420638393        -0.0557045423         0.6049831334
H   11    1          -1.9741446681         3.8157021409        -1.0569939931
[GTO]
  1 0
 s    8  1.00
     6665.0000000000         0.0006920000
     1000.0000000000         0.0053290000
      228.0000000000         0.0270770000
       64.7100000000         0.1017180000
       21.0600000000         0.2747400000
        7.4950000000         0.4485640000
        2.7970000000         0.2850740000
        0.5215000000         0.0152040000
 s    8  1.00
     6665.0000000000        -0.0001460000
     1000.0000000000        -0.0011540000
      228.0000000000        -0.0057250000
       64.7100000000        -0.0233120000
       21.0600000000        -0.0639550000
        7.4950000000        -0.1499810000
        2.7970000000        -0.1272620000
        0.5215000000         0.5445290000
 s    1  1.00
        0.1596000000         1.0000000000
 p    3  1.00
        9.4390000000         0.0381090000
        2.0020000000         0.2094800000
        0.5456000000         0.5085570000
 p    1  1.00
        0.1517000000         1.0000000000
 d    1  1.00
        0.5500000000         1.0000000000

  2 0
 s    8  1.00
     6665.0000000000         0.0006920000
     1000.0000000000         0.0053290000
      228.0000000000         0.0270770000
       64.7100000000         0.1017180000
       21.0600000000         0.2747400000
        7.4950000000         0.4485640000
        2.7970000000         0.2850740000
        0.5215000000         0.0152040000
 s    8  1.00
     6665.0000000000        -0.0001460000
     1000.0000000000        -0.0011540000
      228.0000000000        -0.0057250000
       64.7100000000        -0.0233120000
       21.0600000000        -0.0639550000
        7.4950000000        -0.1499810000
        2.7970000000        -0.1272620000
        0.5215000000         0.5445290000
 s    1  1.00
        0.1596000000         1.0000000000
 p    3  1.00
        9.4390000000         0.0381090000
        2.0020000000         0.2094800000
        0.5456000000         0.5085570000
 p    1  1.00
        0.1517000000         1.0000000000
 d    1  1.00
        0.5500000000         1.0000000000

  3 0
 s    8  1.00
     6665.0000000000         0.0006920000
     1000.0000000000         0.0053290000
      228.0000000000         0.0270770000
       64.7100000000         0.1017180000
       21.0600000000         0.2747400000
        7.4950000000         0.4485640000
        2.7970000000         0.2850740000
        0.5215000000         0.0152040000
 s    8  1.00
     6665.0000000000        -0.0001460000
     1000.0000000000        -0.0011540000
      228.0000000000        -0.0057250000
       64.7100000000        -0.0233120000
       21.0600000000        -0.0639550000
        7.4950000000        -0.1499810000
        2.7970000000        -0.1272620000
        0.5215000000         0.5445290000
 s    1  1.00
        0.1596000000         1.0000000000
 p    3  1.00
        9.4390000000         0.0381090000
        2.0020000000         0.2094800000
        0.5456000000         0.5085570000
 p    1  1.00
        0.1517000000         1.0000000000
 d    1  1.00
        0.5500000000         1.0000000000

  4 0
 s    8  1.00
     6665.0000000000         0.0006920000
     1000.0000000000         0.0053290000
      228.0000000000         0.0270770000
       64.7100000000         0.1017180000
       21.0600000000         0.2747400000
        7.4950000000         0.4485640000
        2.7970000000         0.2850740000
        0.5215000000         0.0152040000
 s    8  1.00
     6665.0000000000        -0.0001460000
     1000.0000000000        -0.0011540000
      228.0000000000        -0.0057250000
       64.7100000000        -0.0233120000
       21.0600000000        -0.0639550000
        7.4950000000        -0.1499810000
        2.7970000000        -0.1272620000
        0.5215000000         0.5445290000
 s    1  1.00
        0.1596000000         1.0000000000
 p    3  1.00
        9.4390000000         0.0381090000
        2.0020000000         0.2094800000
        0.5456000000         0.5085570000
 p    1  1.00
        0.1517000000         1.0000000000
 d    1  1.00
        0.5500000000         1.0000000000

  5 0
 s    8  1.00
    11720.0000000000         0.0007100000
     1759.0000000000         0.0054700000
      400.8000000000         0.0278370000
      113.7000000000         0.1048000000
       37.0300000000         0.2830620000
       13.2700000000         0.4487190000
        5.0250000000         0.2709520000
        1.0130000000         0.0154580000
 s    8  1.00
    11720.0000000000        -0.0001600000
     1759.0000000000        -0.0012630000
      400.8000000000        -0.0062670000
      113.7000000000        -0.0257160000
       37.0300000000        -0.0709240000
       13.2700000000        -0.1654110000
        5.0250000000        -0.1169550000
        1.0130000000         0.5573680000
 s    1  1.00
        0.3023000000         1.0000000000
 p    3  1.00
       17.7000000000         0.0430180000
        3.8540000000         0.2289130000
        1.0460000000         0.5087280000
 p    1  1.00
        0.2753000000         1.0000000000
 d    1  1.00
        1.1850000000         1.0000000000

  6 0
 s    3  1.00
       13.0100000000         0.0196850000
        1.9620000000         0.1379770000
        0.4446000000         0.4781480000
 s    1  1.00
        0.1220000000         1.0000000000
 p    1  1.00
        0.7270000000         1.0000000000

  7 0
 s    3  1.00
       13.0100000000         0.0196850000
        1.9620000000         0.1379770000
        0.4446000000         0.4781480000
 s    1  1.00
        0.1220000000         1.0000000000
 p    1  1.00
        0.7270000000         1.0000000000

  8 0
 s    3  1.00
       13.0100000000         0.0196850000
        1.9620000000         0.1379770000
        0.4446000000         0.4781480000
 s    1  1.00
        0.1220000000         1.0000000000
 p    1  1.00
        0.7270000000         1.0000000000

  9 0
 s    3  1.00
       13.0100000000         0.0196850000
        1.9620000000         0.1379770000
        0.4446000000         0.4781480000
 s    1  1.00
        0.1220000000         1.0000000000
 p    1  1.00
        0.7270000000         1.0000000000

  10 0
 s    3  1.00
       13.0100000000         0.0196850000
        1.9620000000         0.1379770000
        0.4446000000         0.4781480000
 s    1  1.00
        0.1220000000         1.0000000000
 p    1  1.00
        0.7270000000         1.0000000000

  11 0
 s    3  1.00
       13.0100000000         0.0196850000
        1.9620000000         0.1379770000
        0.4446000000         0.4781480000
 s    1  1.00
        0.1220000000         1.0000000000
 p    1  1.00
        0.7270000000         1.0000000000

[5D7F]
[9G]

[MO]
 Sym= A
 Ene=        -1.9173115664e+01
 Spin= Alpha
 Occup=         2.0000000000e+00
  1        -1.1647334365e-04
  2        -2.0126748340e-04
  3         1.5058340461e-03
  4        -1.0303853946e-04
  5         7.0609557098e-05
  6         2.3830340913e-05
  7        -2.5923302699e-04
  8        -1.3568851531e-03
  9         1.7175933027e-04
 10        -8.1764021080e-05
 11        -2.6329157690e-06
 12         4.6936235401e-05
 13        -9.2051015790e-05
 14         7.4923538627e-05
 15         1.9947600962e-04
 16         3.4529634978e-04
 17        -5.4510385692e-03
 18         1.2748309860e-05
 19         1.0474019971e-05
 20         7.8179167959e-05
 21         1.3849373540e-04
 22         2.8346206231e-03
 23        -9.9877253367e-04
 24         6.3382219160e-05
 25        -1.2285872344e-04
 26         1.1331743582e-04
 27        -6.3774675552e-06
 28         2.4703575059e-05
 29        -1.9308321589e-04
 30        -2.8090672185e-04
 31         4.8886400700e-03
 32         6.1462037565e-05
 33        -2.5771077495e-04
 34        -1.1718590928e-05
 35         4.6703927255e-03
 36         2.8955781395e-03
 37        -9.4824220743e-04
 38        -1.5690348774e-04
 39        -1.5751563162e-04
 40         2.6509638345e-05
 41         4.1787646871e-04
 42        -3.7713267392e-04
 43        -2.0457092026e-04
 44        -3.7326232968e-04
 45        -5.8676749416e-03
 46        -3.3597024938e-04
 47         2.0438081207e-04
 48         1.1360616869e-04
 49        -5.6562080877e-03
 50        -1.7395696115e-03
 51         9.9065579039e-04
 52         3.9956919735e-04
 53        -1.5987848127e-05
 54        -2.1464688926e-05
 55         7.2429776127e-04
 56        -3.7812513142e-04
 57        -1.0040791791e+00
 58        -9.3404150750e-03
 59         1.4156042874e-02
 60         9.6769013403e-04
 61        -1.3677961602e-03
 62        -8.7312294395e-05
 63        -3.1928547672e-03
 64         1.4198325554e-03
 65         5.6716357899e-04
 66         1.8938582336e-06
 67        -1.1036049253e-05
 68         6.6620194428e-05
 69         1.4617725290e-04
 70        -2.2461993686e-04
 71        -4.1860595617e-04
 72        -5.5056142335e-04
 73        -1.5006308035e-04
 74        -8.9897789675e-04
 75        -1.2662553192e-06
 76         1.5095143253e-05
 77         2.5256413363e-04
 78         4.1790153112e-05
 79         7.2819400290e-05
 80         7.1964491061e-07
 81        -2.2495463163e-04
 82        -1.9410781691e-04
 83         3.3330474954e-06
 84        -3.1610417166e-05
 85        -2.1191702204e-05
 86         4.2526497915e-04
 87        -9.0577879158e-04
 88         6.3181058081e-04
 89         1.6456381994e-04
 90        -1.0464836549e-04
 91         1.6388243675e-04
 92         1.2592617924e-03
 93        -2.2717779567e-04
 94        -1.9968536051e-04
 95         5.8706864536e-05
 96         7.0150002722e-05
 97        -6.2564864367e-04
 98        -2.9980589015e-05
 99        -9.4732595984e-05
100         3.7318684058e-05
 Sym= A
 Ene=        -1.0250717492e+01
 Spin= Alpha
 Occup=         2.0000000000e+00
  1        -2.8494841916e-04
  2        -3.4693306657e-04
  3         1.0980413051e-03
  4         1.3516361566e-04
  5         8.6851759244e-05
  6         6.3360730608e-05
  7        -1.2070788516e-03
  8         4.2548040019e-04
  9        -5.6268228773e-04
 10        -8.6295671841e-05
 11        -1.6740854591e-05
 12        -3.3794274285e-05
 13         5.6560798713e-05
 14        -4.2053301600e-05
 15        -4.9071973564e-04
 16        -7.1110462696e-04
 17         4.7795058264e-03
 18        -1.0818286633e-04
 19         1.3689903817e-05
 20        -3.3034208329e-06
 21        -2.3101620958e-03
 22        -3.9494411086e-03
 23         8.0927174525e-04
 24        -3.3779993305e-04
 25        -1.0441983533e-04
 26        -1.0793163654e-04
 27        -2.1260261625e-05
 28         1.2999798930e-04
 29         4.6390645039e-03
 30        -9.6430569534e-04
 31        -9.4364752200e-05
 32        -5.9062626459e-04
 33         1.3256139101e-03
 34         1.4253149481e-04
 35        -2.0861612263e-03
 36        -6.0160559355e-03
 37         6.8396887877e-04
 38         1.0755964916e-03
 39         2.7521609277e-04
 40        -9.7605794946e-05
 41         4.7149121418e-04
 42         9.3229943192e-04
 43         1.0059393449e+00
 44         1.5352528416e-02
 45        -1.2171518454e-02
 46         5.3117468599e-04
 47        -4.7209763487e-04
 48        -2.2530642186e-04
 49         4.8974262036e-03
 50        -2.0413058171e-03
 51        -9.6304850068e-04
 52        -1.6483258959e-03
 53        -4.2911189415e-04
 54         2.1944666805e-04
 55        -3.3122013992e-04
 56         6.4809910349e-05
 57         7.2125265661e-04
 58         1.3031171310e-03
 59        -4.8568061548e-03
 60         2.6626715598e-04
 61        -1.8624659930e-04
 62        -4.0309518445e-05
 63         3.2090761817e-03
 64        -2.1418209742e-04
 65        -6.2228815473e-04
 66         7.0763179832e-04
 67         4.0294398661e-04
 68        -2.3366809260e-05
 69        -7.7667822443e-04
 70         1.4569716237e-04
 71         5.4127587045e-04
 72        -3.8665264013e-04
 73        -6.0198275833e-04
 74        -7.4705521594e-05
 75         1.1020498889e-04
 76        -5.2129731862e-05
 77         1.8714404550e-04
 78        -2.6581046045e-05
 79        -4.7309305985e-05
 80         2.9887568083e-05
 81        -6.5606961235e-06
 82         8.4126408389e-04
 83         1.6763847010e-05
 84         5.6103259997e-05
 85        -3.3400137147e-05
 86        -2.2885402979e-03
 87         2.3816068074e-03
 88        -1.5298654491e-03
 89        -1.6642990447e-03
 90         1.0763875081e-04
 91        -1.3532685322e-04
 92        -3.5555480652e-04
 93         3.1082296410e-04
 94         2.8815302499e-04
 95        -6.5318177737e-05
 96        -8.2609096516e-05
 97         5.2668846103e-04
 98         1.5729890867e-04
 99         1.3196019359e-04
100        -4.2434273540e-05
 Sym= A
 Ene=        -1.0207487694e+01
 Spin= Alpha
 Occup=         2.0000000000e+00
  1         1.9282075673e-02
  2        -1.1398737394e-03
  3         4.8275325215e-03
  4         1.3398351427e-03
  5         2.9537097736e-04
  6         1.1446174935e-04
  7        -2.2233653137e-03
  8        -1.6538545429e-03
  9         4.3068600500e-04
 10         8.1820492396e-04
 11        -4.5303602107e-04
 12        -7.4789333649e-06
 13        -1.0846105408e-03
 14        -3.5984058757e-04
 15         1.0062660938e+00
 16         1.6312290459e-02
 17        -1.9071633957e-02
 18        -1.1713951588e-04
 19         1.8664297534e-04
 20        -2.8221699337e-04
 21        -1.9007953717e-03
 22         3.0778226710e-03
 23        -1.6525296814e-03
 24        -7.6905182897e-04
 25         6.6637321753e-04
 26        -6.8960233080e-04
 27         2.5047672742e-04
 28        -6.8411826549e-05
 29         5.8007051490e-03
 30        -4.1339725226e-04
 31         8.4848247470e-04
 32        -4.5750428078e-04
 33        -6.4990432069e-04
 34         1.5642212392e-04
 35         5.9103773466e-04
 36         3.5740175726e-03
 37         3.4721996951e-04
 38         8.0458669332e-04
 39         9.2888754343e-05
 40         5.8278345166e-04
 41         9.9938219047e-04
 42        -9.6065762848e-04
 43        -3.9872076536e-04
 44        -7.6150251552e-04
 45         4.1865716726e-03
 46        -7.7263990648e-05
 47        -1.9192358049e-04
 48         1.2380665872e-04
 49        -5.6934581102e-04
 50         2.8590960120e-03
 51        -1.8587326016e-04
 52        -4.3392740161e-04
 53        -3.3148052081e-04
 54         2.2151943707e-05
 55         3.4099436892e-04
 56        -1.9897104036e-04
 57         8.8129073278e-05
 58         1.2961109381e-04
 59        -1.2190054418e-03
 60         1.5763516856e-04
 61        -4.0565943016e-05
 62        -1.4604327706e-05
 63         1.4708004751e-04
 64        -6.7327349687e-04
 65         5.8241686208e-05
 66         7.6732520822e-05
 67         1.1482846490e-05
 68         1.6751706547e-05
 69        -2.7975977820e-06
 70         2.6292230843e-05
 71         2.8440217216e-04
 72         5.7612201195e-04
 73        -3.0690686099e-04
 74        -7.9644149779e-05
 75        -4.1200535611e-05
 76        -4.3059056323e-05
 77         8.8937337524e-04
 78         1.3974309494e-04
 79        -1.1993639115e-04
 80         1.0051561009e-04
 81        -2.6070897095e-04
 82        -9.0648352671e-05
 83         3.9838664035e-05
 84         2.2487238598e-04
 85        -1.4793422396e-04
 86         4.6304198508e-05
 87         8.1603612454e-04
 88         1.5530866936e-04
 89        -8.4103075376e-05
 90        -3.3157791055e-06
 91        -2.2272163174e-04
 92         3.0648934970e-04
 93        -3.5229131477e-05
 94        -3.8592393963e-04
 95        -5.3946959651e-05
 96        -2.3294972460e-03
 97         1.2025289001e-03
 98        -1.1478459300e-03
 99         1.5306111596e-03
100        -9.5165249363e-04
 Sym= A
 Ene=        -1.0189998955e+01
 Spin= Alpha
 Occup=         2.0000000000e+00
  1         1.0063507715e+00
  2         1.6573904315e-02
  3        -1.5801320198e-02
  4         2.7890620456e-04
  5        -9.7495080372e-05
  6         3.0544869496e-05
  7         2.3226660938e-03
  8         1.2243949194e-03
  9         6.2880079485e-04
 10        -8.2603874040e-04
 11         6.2805581158e-04
 12        -1.3552310241e-03
 13         2.0315277739e-04
 14         3.8450091635e-04
 15        -2.0499794700e-02
 16        -1.4255516544e-03
 17         1.4349672926e-03
 18        -1.3327888985e-03
 19        -2.8936638246e-04
 20        -2.3883746969e-04
 21         3.0367110840e-03
 22         2.1889652993e-03
 23        -4.9849595649e-05
 24         9.8393462134e-04
 25        -4.8436173831e-04
 26         2.1882528785e-04
 27        -1.0759698294e-03
 28        -7.6440334863e-04
 29        -1.2216925014e-03
 30        -5.2797053277e-04
 31         3.4421640472e-03
 32        -9.8948778798e-05
 33         4.7127429244e-05
 34        -6.8281507097e-05
 35         1.9544618208e-03
 36         2.2624298635e-03
 37        -4.9539731868e-04
 38        -3.7607586042e-04
 39         7.0765532479e-05
 40        -2.4306330670e-04
 41        -3.3995594712e-04
 42         1.8473295585e-05
 43         1.5995233142e-05
 44        -2.0479497408e-04
 45        -9.3773178835e-04
 46        -2.6472887698e-05
 47        -1.3237701981e-04
 48        -5.3249296303e-05
 49        -1.3101053542e-03
 50        -2.6055369205e-04
 51         2.9743992074e-04
 52         5.3886274643e-05
 53         1.0741860676e-04
 54        -9.0566452401e-05
 55        -7.5752174796e-05
 56         1.1136989425e-04
 57         9.4482317719e-06
 58         3.6328281909e-05
 59         4.4321751114e-04
 60         1.4414422197e-04
 61         8.4560689913e-05
 62        -4.0175915923e-05
 63        -7.6750381833e-04
 64        -1.3012322423e-04
 65         1.0680611106e-04
 66        -5.5352390806e-05
 67        -3.2959535515e-05
 68        -2.9206553740e-05
 69         6.1687920411e-05
 70         7.2207017972e-05
 71         2.6398163198e-04
 72         1.5888387531e-03
 73        -1.1451484940e-04
 74         5.6070718109e-04
 75         8.8794515999e-05
 76        -2.3526559056e-03
 77         1.7422652590e-03
 78         8.0828707163e-04
 79         1.9300834520e-03
 80        -8.6835439520e-04
 81        -2.0035897602e-03
 82         1.5370317939e-03
 83         1.1528494173e-03
 84        -1.4120416868e-03
 85         1.3563607096e-03
 86        -7.7482440221e-05
 87        -3.8433053652e-05
 88         4.0373251337e-05
 89         1.6763031509e-05
 90        -2.2824219794e-05
 91         1.1626515157e-04
 92         6.0174554558e-04
 93         1.0693979959e-05
 94        -1.2016611893e-04
 95         4.8818173102e-05
 96         5.3038100467e-05
 97         3.0628654140e-04
 98        -5.0756092782e-06
 99        -3.0279390805e-04
100         8.8883074789e-05
 Sym= A
 Ene=        -1.0183430021e+01
 Spin= Alpha
 Occup=         2.0000000000e+00
  1         5.0474528849e-04
  2        -4.6460626350e-04
  3         2.8826934098e-03
  4         6.9815505665e-05
  5         1.1652895418e-04
  6        -7.4862827034e-05
  7        -2.1214105361e-03
  8        -4.5461811320e-04
  9         8.0052396127e-05
 10        -2.6145414730e-04
 11         4.9352249325e-04
 12        -3.0079145584e-04
 13         2.4516165323e-04
 14        -4.5233107493e-04
 15        -6.1661569033e-03
 16        -6.7683240665e-04
 17         3.0462558292e-03
 18         2.3277299444e-04
 19         6.9728667729e-04
 20        -1.7479907186e-04
 21        -2.3189861147e-03
 22        -3.6961158276e-03
 23        -4.8439121827e-05
 24         8.8923358201e-04
 25         5.1564774864e-04
 26         4.2332030258e-04
 27         5.5535559148e-04
 28        -1.2499256798e-03
 29         1.0066606531e+00
 30         1.6774286625e-02
 31        -2.2019955438e-02
 32        -1.7742196568e-04
 33        -1.5719257258e-04
 34        -2.4979390664e-04
 35        -5.1685315812e-03
 36        -2.2104662635e-04
 37         1.8282232138e-03
 38        -1.0836520269e-03
 39        -3.1282039003e-04
 40         1.5647122857e-05
 41         4.0996369428e-04
 42        -1.5072465144e-04
 43        -5.8373460298e-03
 44        -1.5425077319e-03
 45         6.8478152725e-03
 46         6.4635496033e-04
 47        -1.1671854466e-03
 48        -1.4188948298e-04
 49         6.6353824993e-05
 50         4.1726768928e-03
 51        -2.0790462814e-04
 52         8.2864323047e-04
 53         2.1601854210e-04
 54        -2.9634944882e-04
 55         6.8586549316e-04
 56         1.0040047693e-03
 57         3.2808988308e-05
 58         4.4810997594e-05
 59        -9.3817966131e-04
 60         3.5404943394e-05
 61        -5.3011535736e-05
 62        -1.4339349437e-05
 63        -9.8213109498e-05
 64        -7.2095825205e-04
 65         6.8248460480e-05
 66        -5.5796400215e-05
 67        -2.9596315862e-05
 68        -6.7417777538e-06
 69         8.9359407813e-05
 70         8.2574047566e-05
 71         2.5127698441e-04
 72         8.1606525239e-05
 73        -1.3441570238e-04
 74        -1.8834271122e-04
 75         2.4868653718e-05
 76         1.1317383821e-04
 77         5.4744927596e-04
 78         1.3760210454e-04
 79        -1.4089330955e-04
 80         4.6174356212e-05
 81        -7.0182825854e-04
 82         4.7134184711e-04
 83         1.7504941511e-04
 84        -9.2497717117e-05
 85         1.3310745719e-04
 86         1.3760240686e-04
 87         1.1716904009e-03
 88         3.0717385555e-04
 89        -1.1185399544e-05
 90         5.1563589783e-06
 91        -2.3646265166e-03
 92         8.2141145182e-04
 93        -2.1446743710e-03
 94        -8.2008161449e-05
 95         1.4717336716e-04
 96        -3.3006741753e-04
 97         6.2395324624e-04
 98         2.2449931151e-04
 99         2.6162854919e-04
100         7.7840119761e-05
 Sym= A
 Ene=        -1.0617850623e+00
 Spin= Alpha
 Occup=         2.0000000000e+00
  1         1.5303450238e-04
  2         1.0861459484e-02
  3        -3.9432048374e-03
  4        -2.3827942707e-03
  5        -6.5234980002e-03
  6        -6.6023765062e-04
  7         2.8027282238e-03
  8         6.1280248389e-03
  9        -3.0905709827e-03
 10        -2.9449518077e-04
 11        -6.8215702146e-04
 12         6.8029175159e-04
 13        -7.6682887166e-04
 14         1.0079723212e-03
 15        -2.7470745298e-04
 16         1.5221612747e-02
 17         3.4240597491e-03
 18         2.2744388165e-03
 19        -9.6541286773e-03
 20         1.0736937683e-03
 21         5.5078036625e-03
 22         2.6187457337e-03
 23         3.8481438691e-04
 24        -1.4790799975e-03
 25        -2.5714453714e-04
 26        -5.5765240142e-04
 27        -1.1323896880e-03
 28         2.9171015203e-04
 29        -1.6437896145e-03
 30         3.6454818090e-02
 31         9.0092979709e-05
 32         2.2439316448e-02
 33        -1.7804953143e-02
 34        -5.1120338397e-03
 35         7.2982033935e-03
 36         1.2633349064e-02
 37        -2.1419167063e-03
 38        -2.3479873557e-03
 39        -1.5069729684e-03
 40         1.3789305618e-03
 41         2.4677697159e-03
 42        -7.9628832605e-03
 43        -1.2742377520e-02
 44         1.5668318209e-01
 45         8.2312128940e-02
 46         1.2711187626e-01
 47        -1.2235528100e-03
 48        -2.5330375095e-02
 49         5.5880577314e-03
 50         2.1333089895e-02
 51        -1.1969076139e-04
 52        -1.1283980613e-02
 53        -1.0186621529e-02
 54         3.7589098523e-05
 55         2.8565025708e-02
 56        -3.2598921161e-03
 57        -6.5269286976e-03
 58         4.2294622154e-01
 59         3.7562282164e-01
 60        -7.8757650651e-02
 61         8.5688583687e-02
 62         1.1127463591e-02
 63        -3.1250217667e-02
 64        -7.6579932059e-04
 65         5.9837380326e-03
 66        -6.4356619068e-03
 67        -3.1708348284e-03
 68        -2.9074439549e-04
 69         4.2783922487e-03
 70        -1.7119412875e-03
 71         1.6450360702e-01
 72         5.3347072362e-03
 73        -1.7170677947e-02
 74        -2.9256412599e-02
 75         5.6636473813e-03
 76         1.8702011031e-04
 77        -4.5961878536e-03
 78         3.1946472379e-05
 79         1.7936110126e-05
 80        -1.1701054341e-04
 81         9.0594462649e-03
 82         5.3571899459e-03
 83        -1.2977995865e-03
 84        -6.3556307786e-04
 85        -1.0389960739e-03
 86         3.5354828198e-02
 87         4.7874401728e-03
 88         8.2964711810e-03
 89         4.8659966738e-03
 90        -1.0063493558e-03
 91         5.2733393245e-03
 92         2.6849152482e-03
 93         4.9124264829e-04
 94        -2.1723100545e-03
 95        -6.6801154275e-05
 96         1.8888338326e-03
 97        -1.1637283601e-03
 98        -2.4614736427e-04
 99        -4.6788465731e-04
100        -8.9234157780e-05
 Sym= A
 Ene=        -8.0419254577e-01
 Spin= Alpha
 Occup=         2.0000000000e+00
  1         1.4975683149e-02
  2        -1.9133040295e-01
  3        -1.0401845790e-01
  4         8.4095067468e-02
  5         2.7902699810e-02
  6         1.1131585820e-02
  7         8.1605252571e-03
  8        -1.9132185597e-03
  9         7.8574194532e-03
 10         5.4807074650e-03
 11        -1.8083159741e-03
 12        -3.3355220455e-03
 13        -7.7603796710e-03
 14        -5.6207113664e-03
 15         1.9549994026e-02
 16        -2.7937209321e-01
 17        -1.7936703159e-01
 18        -3.7421249580e-02
 19         4.3133002004e-02
 20        -1.7181510396e-02
 21        -2.0096588912e-02
 22         2.1412259923e-02
 23        -1.3145362092e-02
 24         1.0673912677e-02
 25        -2.6151965251e-04
 26         1.6546990208e-03
 27        -1.8702411639e-03
 28        -1.0604847322e-02
 29         1.8134438252e-02
 30        -2.4003931624e-01
 31        -1.4172903646e-01
 32        -5.7772544300e-02
 33        -1.7315766330e-02
 34         2.0005063667e-02
 35        -1.7823636878e-02
 36        -1.2320053952e-02
 37         9.6517890486e-03
 38         8.4564001077e-03
 39         2.3464198681e-03
 40         2.5587795359e-03
 41         8.9138957663e-03
 42        -5.5050560270e-03
 43         5.3115475831e-03
 44        -1.1935874280e-01
 45        -6.4002456326e-02
 46         6.5326742707e-02
 47        -8.5935081002e-02
 48        -1.1965201131e-02
 49         2.3124397754e-02
 50        -1.3155823562e-02
 51        -6.6254951888e-03
 52         3.2100446481e-03
 53        -1.5542632454e-03
 54        -1.0027775063e-03
 55         1.2480509415e-02
 56         4.2965817698e-03
 57         1.0039051427e-03
 58         9.3401062447e-02
 59         8.8669157289e-02
 60         2.1660589679e-02
 61         2.6292007191e-04
 62        -5.7313125770e-03
 63         1.4575816058e-02
 64        -7.7215523839e-03
 65        -2.8563568351e-03
 66         7.5290143919e-04
 67         3.8379729277e-04
 68        -6.0599083099e-04
 69        -9.0469951348e-04
 70         2.6378216536e-03
 71         2.7477795937e-02
 72         3.8242492068e-03
 73        -1.1739688817e-03
 74        -9.7543505617e-03
 75        -2.1084826307e-04
 76        -5.9500773456e-02
 77        -5.3877827056e-04
 78         6.0691493450e-03
 79         8.4306478318e-03
 80        -2.8041411961e-03
 81        -6.9160383157e-02
 82        -3.6312072206e-03
 83         7.9559883255e-03
 84        -5.2435683047e-03
 85         6.3422987638e-03
 86        -3.1416044303e-02
 87         7.5179104907e-04
 88        -2.1617986981e-04
 89        -5.6416128239e-03
 90        -9.9450823753e-05
 91        -7.8300336258e-02
 92        -7.5527540288e-03
 93        -1.2788929173e-02
 94        -1.1697959120e-03
 95         1.6778685410e-03
 96        -9.5680473380e-02
 97        -1.2421703438e-02
 98        -8.4482084228e-03
 99         1.0904928587e-02
100        -6.2814505326e-03
 Sym= A
 Ene=        -7.3233660789e-01
 Spin= Alpha
 Occup=         2.0000000000e+00
  1         1.6451194642e-02
  2        -2.2869985443e-01
  3        -1.2671272157e-01
  4         5.2494302386e-02
  5         9.3421196827e-03
  6         1.1445943440e-02
  7         1.3075716860e-03
  8         1.3900341766e-03
  9         2.8011957182e-03
 10         3.5473047828e-03
 11        -2.1089046630e-03
 12        -2.4975536762e-03
 13        -4.8490193165e-03
 14         5.6255574693e-04
 15         8.6600733861e-03
 16        -1.2878962742e-01
 17        -9.9454084949e-02
 18        -1.1337189461e-01
 19        -7.6422776858e-02
 20        -3.1998714305e-03
 21        -4.9601547833e-02
 22        -1.2361772666e-02
 23        -5.7610445493e-03
 24         2.4901992060e-03
 25        -3.5747249197e-03
 26        -2.3563431071e-03
 27        -1.5102149396e-02
 28         1.1646900275e-03
 29        -1.3380698538e-02
 30         2.0104555479e-01
 31         1.3047316126e-01
 32         1.2213437688e-02
 33        -1.1636143413e-01
 34        -9.5606651005e-03
 35         1.8200085454e-02
 36        -3.2560162732e-02
 37        -8.4892200654e-04
 38        -3.3654008913e-03
 39        -1.1267841664e-04
 40         2.7332730234e-03
 41        -6.9658513703e-03
 42        -1.2191633857e-02
 43        -1.0213761109e-02
 44         2.4996068414e-01
 45         1.3979235085e-01
 46        -7.6174686009e-02
 47         5.6809533206e-02
 48         1.2162833794e-02
 49        -2.2397178649e-02
 50         1.1092355392e-02
 51         2.5030379541e-03