Generated by Psi4
        SP                           RHF                       CC-PVDZ
Number of atoms                            I               11
Charge                                     I                0
Multiplicity                               I                1
Number of electrons                        I               38
Number of alpha electrons                  I               19
Number of beta electrons                   I               19
Number of basis functions                  I              100
Number of independent functions            I              100
Atomic numbers                             I   N=          11
           6           6           6           6           8           1
           1           1           1           1           1
Nuclear charges                            R   N=          11
  6.00000000e+00  6.00000000e+00  6.00000000e+00  6.00000000e+00  8.00000000e+00
  1.00000000e+00  1.00000000e+00  1.00000000e+00  1.00000000e+00  1.00000000e+00
  1.00000000e+00
Current cartesian coordinates              R   N=          33
  1.67080007e+00  2.84669780e+00  2.24480483e-01 -8.35744242e-01  2.33404451e+00
 -9.47100950e-02 -2.13099550e+00 -4.08813691e-02  3.92852681e-01 -8.59109099e-01
 -2.25607283e+00  3.29513738e-02  1.63145800e+00 -2.47157214e+00 -3.68063760e-01
  2.20604092e+00 -6.61842388e-01 -6.33590860e-01  2.63828223e+00  4.32183818e+00
 -8.68057741e-01  2.85199146e+00  1.64428676e+00  1.43819919e+00 -1.75104556e+00
 -4.07761097e+00 -1.66001733e-01 -4.19400848e+00 -1.18889528e-01  4.78177954e-01
 -1.98388641e+00  3.78109042e+00 -1.02241756e+00
Integer atomic weights                     I   N=          11
          12          12          12          12          16           1
           1           1           1           1           1
Real atomic weights                        R   N=          11
  1.20000000e+01  1.20000000e+01  1.20000000e+01  1.20000000e+01  1.59949146e+01
  1.00782503e+00  1.00782503e+00  1.00782503e+00  1.00782503e+00  1.00782503e+00
  1.00782503e+00
Number of primitive shells                 I              140
Number of contracted shells                I               48
Pure/Cartesian d shells                    I                0
Pure/Cartesian f shells                    I                0
Highest angular momentum                   I                2
Largest degree of contraction              I                8
Shell types                                I   N=          48
           0           0           0           1           1          -2
           0           0           0           1           1          -2
           0           0           0           1           1          -2
           0           0           0           1           1          -2
           0           0           0           1           1          -2
           0           0           1           0           0           1
           0           0           1           0           0           1
           0           0           1           0           0           1
Number of primitives per shell             I   N=          48
           8           8           1           3           1           1
           8           8           1           3           1           1
           8           8           1           3           1           1
           8           8           1           3           1           1
           8           8           1           3           1           1
           3           1           1           3           1           1
           3           1           1           3           1           1
           3           1           1           3           1           1
Shell to atom map                          I   N=          48
           1           1           1           1           1           1
           2           2           2           2           2           2
           3           3           3           3           3           3
           4           4           4           4           4           4
           5           5           5           5           5           5
           6           6           6           7           7           7
           8           8           8           9           9           9
          10          10          10          11          11          11
Primitive exponents                        R   N=         140
  6.66500000e+03  1.00000000e+03  2.28000000e+02  6.47100000e+01  2.10600000e+01
  7.49500000e+00  2.79700000e+00  5.21500000e-01  6.66500000e+03  1.00000000e+03
  2.28000000e+02  6.47100000e+01  2.10600000e+01  7.49500000e+00  2.79700000e+00
  5.21500000e-01  1.59600000e-01  9.43900000e+00  2.00200000e+00  5.45600000e-01
  1.51700000e-01  5.50000000e-01  6.66500000e+03  1.00000000e+03  2.28000000e+02
  6.47100000e+01  2.10600000e+01  7.49500000e+00  2.79700000e+00  5.21500000e-01
  6.66500000e+03  1.00000000e+03  2.28000000e+02  6.47100000e+01  2.10600000e+01
  7.49500000e+00  2.79700000e+00  5.21500000e-01  1.59600000e-01  9.43900000e+00
  2.00200000e+00  5.45600000e-01  1.51700000e-01  5.50000000e-01  6.66500000e+03
  1.00000000e+03  2.28000000e+02  6.47100000e+01  2.10600000e+01  7.49500000e+00
  2.79700000e+00  5.21500000e-01  6.66500000e+03  1.00000000e+03  2.28000000e+02
  6.47100000e+01  2.10600000e+01  7.49500000e+00  2.79700000e+00  5.21500000e-01
  1.59600000e-01  9.43900000e+00  2.00200000e+00  5.45600000e-01  1.51700000e-01
  5.50000000e-01  6.66500000e+03  1.00000000e+03  2.28000000e+02  6.47100000e+01
  2.10600000e+01  7.49500000e+00  2.79700000e+00  5.21500000e-01  6.66500000e+03
  1.00000000e+03  2.28000000e+02  6.47100000e+01  2.10600000e+01  7.49500000e+00
  2.79700000e+00  5.21500000e-01  1.59600000e-01  9.43900000e+00  2.00200000e+00
  5.45600000e-01  1.51700000e-01  5.50000000e-01  1.17200000e+04  1.75900000e+03
  4.00800000e+02  1.13700000e+02  3.70300000e+01  1.32700000e+01  5.02500000e+00
  1.01300000e+00  1.17200000e+04  1.75900000e+03  4.00800000e+02  1.13700000e+02
  3.70300000e+01  1.32700000e+01  5.02500000e+00  1.01300000e+00  3.02300000e-01
  1.77000000e+01  3.85400000e+00  1.04600000e+00  2.75300000e-01  1.18500000e+00
  1.30100000e+01  1.96200000e+00  4.44600000e-01  1.22000000e-01  7.27000000e-01
  1.30100000e+01  1.96200000e+00  4.44600000e-01  1.22000000e-01  7.27000000e-01
  1.30100000e+01  1.96200000e+00  4.44600000e-01  1.22000000e-01  7.27000000e-01
  1.30100000e+01  1.96200000e+00  4.44600000e-01  1.22000000e-01  7.27000000e-01
  1.30100000e+01  1.96200000e+00  4.44600000e-01  1.22000000e-01  7.27000000e-01
  1.30100000e+01  1.96200000e+00  4.44600000e-01  1.22000000e-01  7.27000000e-01
Contraction coefficients                   R   N=         140
  6.91583963e-04  5.32579615e-03  2.70607210e-02  1.01656846e-01  2.74574824e-01
  4.48294319e-01  2.84902611e-01  1.51948592e-02 -2.93269653e-04 -2.31803547e-03
 -1.14997860e-02 -4.68267270e-02 -1.28466169e-01 -3.01266272e-01 -2.55630702e-01
  1.09379336e+00  1.00000000e+00  5.69792516e-02  3.13207212e-01  7.60376742e-01
  1.00000000e+00  1.00000000e+00  6.91583963e-04  5.32579615e-03  2.70607210e-02
  1.01656846e-01  2.74574824e-01  4.48294319e-01  2.84902611e-01  1.51948592e-02
 -2.93269653e-04 -2.31803547e-03 -1.14997860e-02 -4.68267270e-02 -1.28466169e-01
 -3.01266272e-01 -2.55630702e-01  1.09379336e+00  1.00000000e+00  5.69792516e-02
  3.13207212e-01  7.60376742e-01  1.00000000e+00  1.00000000e+00  6.91583963e-04
  5.32579615e-03  2.70607210e-02  1.01656846e-01  2.74574824e-01  4.48294319e-01
  2.84902611e-01  1.51948592e-02 -2.93269653e-04 -2.31803547e-03 -1.14997860e-02
 -4.68267270e-02 -1.28466169e-01 -3.01266272e-01 -2.55630702e-01  1.09379336e+00
  1.00000000e+00  5.69792516e-02  3.13207212e-01  7.60376742e-01  1.00000000e+00
  1.00000000e+00  6.91583963e-04  5.32579615e-03  2.70607210e-02  1.01656846e-01
  2.74574824e-01  4.48294319e-01  2.84902611e-01  1.51948592e-02 -2.93269653e-04
 -2.31803547e-03 -1.14997860e-02 -4.68267270e-02 -1.28466169e-01 -3.01266272e-01
 -2.55630702e-01  1.09379336e+00  1.00000000e+00  5.69792516e-02  3.13207212e-01
  7.60376742e-01  1.00000000e+00  1.00000000e+00  7.09645947e-04  5.46727229e-03
  2.78231186e-02  1.04747740e-01  2.82920846e-01  4.48495239e-01  2.70816885e-01
  1.54502916e-02 -3.14443412e-04 -2.48213768e-03 -1.23163554e-02 -5.05389173e-02
 -1.39384903e-01 -3.25077495e-01 -2.29848308e-01  1.09537935e+00  1.00000000e+00
  6.26791663e-02  3.33536566e-01  7.41239642e-01  1.00000000e+00  1.00000000e+00
  3.34987264e-02  2.34800801e-01  8.13682958e-01  1.00000000e+00  1.00000000e+00
  3.34987264e-02  2.34800801e-01  8.13682958e-01  1.00000000e+00  1.00000000e+00
  3.34987264e-02  2.34800801e-01  8.13682958e-01  1.00000000e+00  1.00000000e+00
  3.34987264e-02  2.34800801e-01  8.13682958e-01  1.00000000e+00  1.00000000e+00
  3.34987264e-02  2.34800801e-01  8.13682958e-01  1.00000000e+00  1.00000000e+00
  3.34987264e-02  2.34800801e-01  8.13682958e-01  1.00000000e+00  1.00000000e+00
Coordinates of each shell                  R   N=         144
  1.67080007e+00  2.84669780e+00  2.24480483e-01  1.67080007e+00  2.84669780e+00
  2.24480483e-01  1.67080007e+00  2.84669780e+00  2.24480483e-01  1.67080007e+00
  2.84669780e+00  2.24480483e-01  1.67080007e+00  2.84669780e+00  2.24480483e-01
  1.67080007e+00  2.84669780e+00  2.24480483e-01 -8.35744242e-01  2.33404451e+00
 -9.47100950e-02 -8.35744242e-01  2.33404451e+00 -9.47100950e-02 -8.35744242e-01
  2.33404451e+00 -9.47100950e-02 -8.35744242e-01  2.33404451e+00 -9.47100950e-02
 -8.35744242e-01  2.33404451e+00 -9.47100950e-02 -8.35744242e-01  2.33404451e+00
 -9.47100950e-02 -2.13099550e+00 -4.08813691e-02  3.92852681e-01 -2.13099550e+00
 -4.08813691e-02  3.92852681e-01 -2.13099550e+00 -4.08813691e-02  3.92852681e-01
 -2.13099550e+00 -4.08813691e-02  3.92852681e-01 -2.13099550e+00 -4.08813691e-02
  3.92852681e-01 -2.13099550e+00 -4.08813691e-02  3.92852681e-01 -8.59109099e-01
 -2.25607283e+00  3.29513738e-02 -8.59109099e-01 -2.25607283e+00  3.29513738e-02
 -8.59109099e-01 -2.25607283e+00  3.29513738e-02 -8.59109099e-01 -2.25607283e+00
  3.29513738e-02 -8.59109099e-01 -2.25607283e+00  3.29513738e-02 -8.59109099e-01
 -2.25607283e+00  3.29513738e-02  1.63145800e+00 -2.47157214e+00 -3.68063760e-01
  1.63145800e+00 -2.47157214e+00 -3.68063760e-01  1.63145800e+00 -2.47157214e+00
 -3.68063760e-01  1.63145800e+00 -2.47157214e+00 -3.68063760e-01  1.63145800e+00
 -2.47157214e+00 -3.68063760e-01  1.63145800e+00 -2.47157214e+00 -3.68063760e-01
  2.20604092e+00 -6.61842388e-01 -6.33590860e-01  2.20604092e+00 -6.61842388e-01
 -6.33590860e-01  2.20604092e+00 -6.61842388e-01 -6.33590860e-01  2.63828223e+00
  4.32183818e+00 -8.68057741e-01  2.63828223e+00  4.32183818e+00 -8.68057741e-01
  2.63828223e+00  4.32183818e+00 -8.68057741e-01  2.85199146e+00  1.64428676e+00
  1.43819919e+00  2.85199146e+00  1.64428676e+00  1.43819919e+00  2.85199146e+00
  1.64428676e+00  1.43819919e+00 -1.75104556e+00 -4.07761097e+00 -1.66001733e-01
 -1.75104556e+00 -4.07761097e+00 -1.66001733e-01 -1.75104556e+00 -4.07761097e+00
 -1.66001733e-01 -4.19400848e+00 -1.18889528e-01  4.78177954e-01 -4.19400848e+00
 -1.18889528e-01  4.78177954e-01 -4.19400848e+00 -1.18889528e-01  4.78177954e-01
 -1.98388641e+00  3.78109042e+00 -1.02241756e+00 -1.98388641e+00  3.78109042e+00
 -1.02241756e+00 -1.98388641e+00  3.78109042e+00 -1.02241756e+00
Total Energy                               R     -2.312163736612936e+02
Alpha Orbital Energies                     R   N=         100
 -1.91725938e+01 -1.02535642e+01 -1.02113446e+01 -1.01916027e+01 -1.01862394e+01
 -1.06407855e+00 -8.04505191e-01 -7.30985679e-01 -6.23789999e-01 -5.82465393e-01
 -5.02037084e-01 -4.73084206e-01 -4.47792254e-01 -4.15826149e-01 -3.95058598e-01
 -3.83488940e-01 -3.45338689e-01 -2.98217484e-01 -2.17673306e-01 -3.20647530e-02
  4.91031524e-02  6.93324480e-02  8.93019482e-02  1.06255933e-01  1.28379332e-01
  1.38487233e-01  1.64748548e-01  2.26575537e-01  2.92309649e-01  3.20514602e-01
  3.31343742e-01  4.28389666e-01  4.47571284e-01  4.72570746e-01  4.73752470e-01
  4.95194561e-01  5.08688850e-01  5.31651682e-01  5.46332575e-01  5.68317465e-01
  5.80026251e-01  6.13446972e-01  6.33977123e-01  6.50438762e-01  6.74088946e-01
  7.32623223e-01  7.40302620e-01  7.77359486e-01  8.59120162e-01  8.68593218e-01
  9.26240089e-01  9.45144750e-01  9.65372002e-01  9.99093480e-01  1.05201057e+00
  1.07006420e+00  1.08680097e+00  1.11226997e+00  1.16189447e+00  1.19076283e+00
  1.24954225e+00  1.33282446e+00  1.37257030e+00  1.40014812e+00  1.48046097e+00
  1.48541509e+00  1.50943841e+00  1.51674175e+00  1.56601847e+00  1.59512480e+00
  1.61933120e+00  1.64402343e+00  1.70468557e+00  1.70850121e+00  1.72461832e+00
  1.74170932e+00  1.76228443e+00  1.82698607e+00  1.89569843e+00  1.92254890e+00
  1.98105198e+00  2.01207270e+00  2.02627554e+00  2.07173903e+00  2.09721892e+00
  2.17177894e+00  2.19073929e+00  2.28191579e+00  2.38024665e+00  2.40453402e+00
  2.42850564e+00  2.54730199e+00  2.71559750e+00  2.76947652e+00  2.89221189e+00
  2.95396053e+00  3.01543008e+00  3.18929518e+00  3.41848032e+00  3.66214011e+00
Alpha MO coefficients                      R   N=       10000
 -1.59417921e-04 -2.75585114e-04  1.63423331e-03 -8.59032146e-05  2.63002114e-05
  2.25889625e-05 -1.45269412e-04 -1.14602958e-03  8.31670451e-05 -7.82218051e-05
 -4.41347065e-05  5.52920164e-05 -1.27303078e-04  6.22068383e-05  1.58780026e-04
  2.77264881e-04 -4.67743925e-03  2.56405574e-05  1.56890864e-05  8.62039040e-05
  1.35668151e-04  2.38569125e-03 -9.28402171e-04  4.16779414e-05 -1.12407486e-04
  1.07819469e-04 -2.46175710e-06  2.33908939e-05 -1.69927746e-04 -2.40885597e-04
  4.47607185e-03  7.80516380e-05 -2.57743690e-04 -3.88559546e-05  4.25496775e-03
  2.50564949e-03 -6.41850044e-04 -1.45172727e-04 -1.49711600e-04 -2.90967959e-05
  4.27671741e-04 -3.61279684e-04 -2.19316142e-04 -3.83441787e-04 -5.99502857e-03
 -3.47995527e-04  1.80382517e-04  1.24589824e-04 -5.17358924e-03 -1.73589546e-03
  6.33303551e-04  3.64542815e-04 -3.99072870e-05 -1.58908495e-04  7.80063169e-04
 -3.46006045e-04 -1.00406922e+00 -9.31613226e-03  1.42006033e-02  1.11675348e-03
 -1.22843864e-03 -4.27302922e-05 -3.15449400e-03  1.37330015e-03  4.23547846e-04
 -2.93145661e-05 -1.10830608e-05  5.55858470e-05  1.28511654e-04 -1.61077997e-04
 -6.06132404e-04 -7.95356376e-04 -4.94825365e-05 -7.51053087e-04 -2.85678798e-05
 -6.43433277e-05  1.00537936e-04  2.83023674e-05  8.30995849e-05  6.53608767e-06
 -1.68184558e-04 -1.92353253e-04 -2.88972234e-06 -3.39025531e-05 -1.70962251e-05
  5.53321332e-04 -7.43142555e-04  5.87280637e-04  2.13285001e-04 -5.55511895e-05
  1.40368596e-04  1.12737715e-03 -2.16935168e-04 -1.88938667e-04  4.74764062e-05
  5.35805205e-05 -5.33622073e-04 -2.67509320e-05 -7.46621202e-05  4.13119318e-05
 -2.85218560e-04 -3.44953319e-04  1.04923446e-03  1.34256103e-04  8.93400097e-05
  5.17134493e-05 -1.08016498e-03  4.49926758e-04 -4.43274632e-04 -9.24823555e-05
 -1.37742893e-05 -4.21218741e-05  4.64167087e-05 -5.34502111e-05 -4.90506984e-04
 -7.12017961e-04  4.55522598e-03 -8.91736043e-05  3.08567225e-05 -1.02185121e-05
 -2.09352223e-03 -3.73071403e-03  7.76804318e-04 -3.21658618e-04 -1.03214525e-04
 -9.27433442e-05 -2.66327856e-05  8.43754595e-05  4.20538659e-03 -9.06298144e-04
 -4.28288582e-04 -6.25520627e-04  1.28870632e-03  1.99819061e-04 -1.99501255e-03
 -5.35686181e-03  4.67097990e-04  1.08214468e-03  2.98187228e-04 -1.59536716e-04
  3.80621423e-04  1.01630252e-03  1.00595971e+00  1.53991251e-02 -1.14735692e-02
  6.34201716e-04 -4.94239739e-04 -3.01560655e-04  4.46189032e-03 -1.77673971e-03
 -8.09849588e-04 -1.65291210e-03 -3.07235373e-04  5.22163974e-04 -4.06886935e-04
  5.30067804e-05  7.08403378e-04  1.28965134e-03 -4.82975142e-03  3.15850184e-04
 -1.51745272e-04 -4.51145827e-05  3.13812427e-03 -1.63697558e-04 -4.38699185e-04
  7.31627624e-04  3.31976697e-04 -3.03634340e-06 -7.84375520e-04  6.31226898e-05
  6.15998888e-04 -2.14482466e-04 -5.60281530e-04 -1.60713600e-04  8.37580179e-05
 -5.80292153e-05  1.29216822e-04 -9.94599881e-06 -4.49237581e-05  1.88710258e-05
 -1.39948057e-05  6.87180788e-04  2.02551493e-05  4.45953259e-05 -2.97199997e-05
 -2.50766511e-03  2.30485802e-03 -1.47558393e-03 -1.76729314e-03 -1.33868404e-04
 -1.06375690e-04 -3.22561561e-04  3.14609468e-04  2.89367493e-04 -3.43463151e-05
 -8.40979302e-05  5.16107233e-04  1.50800716e-04  1.33363701e-04 -4.37457213e-05
  1.52895464e-02 -1.02987889e-03  4.75966048e-03  1.28105565e-03  2.44715811e-04
  3.86297093e-05 -2.37909156e-03 -1.55255295e-03  5.90012469e-04  8.69384829e-04
 -3.25301071e-04 -1.01278075e-07 -1.09020948e-03 -3.21861174e-04  1.00633395e+00
  1.62799239e-02 -1.90752595e-02 -1.43597202e-04  1.78878408e-04 -3.29952296e-04
 -2.11410991e-03  3.10105435e-03 -1.51270640e-03 -7.19886452e-04  6.32482737e-04
 -7.43145511e-04  1.94903242e-04 -1.10022939e-04  5.71985428e-03 -4.11038190e-04
  1.02106299e-03 -4.51210780e-04 -6.75425643e-04  1.44899389e-04  6.57796399e-04
  3.25690781e-03  3.90486116e-04  8.01999056e-04  1.17912457e-04  5.19930003e-04
  9.11309588e-04 -9.60235329e-04 -4.01350256e-04 -7.76731791e-04  3.80703447e-03
 -2.88365329e-05 -2.14131286e-04  9.39068831e-05 -6.58944367e-04  2.73306511e-03
 -4.03493152e-05 -4.10458711e-04 -3.05369612e-04 -1.08131979e-05  2.65654347e-04
 -8.25940340e-05  8.29834940e-05  1.24522893e-04 -1.11565422e-03  1.58443679e-04
 -2.41790288e-05 -6.25964459e-06  9.49391698e-05 -6.74459637e-04  6.61390909e-05
  6.37058569e-05 -8.81619835e-06  1.96060917e-05  1.33710775e-05  4.68662411e-05
  2.96073801e-04  6.78608182e-04 -3.47605527e-04 -6.14383166e-05 -3.66736708e-05
 -3.40871634e-05  9.71523235e-04  1.43242578e-04 -8.37558924e-05  1.62797424e-04
 -3.01128292e-04 -3.90964675e-05  4.62518907e-05  1.78774524e-04 -1.60594827e-04
  2.36737167e-05  7.65382857e-04  1.42327740e-04 -9.29695469e-05 -1.11472581e-05
 -1.47728081e-04  3.03837763e-04 -1.23554255e-08 -3.69054134e-04 -4.00703996e-05
 -2.37038733e-03  1.19728778e-03 -1.13242736e-03  1.51874726e-03 -1.00181608e-03
  1.00650789e+00  1.66991803e-02 -1.68873490e-02  3.42332063e-04 -3.69478723e-04
 -2.63966162e-04  2.42076974e-03  1.72419713e-03  9.01455186e-04 -3.96598129e-04
  2.32821237e-04 -1.56086128e-03  5.15201372e-04  3.67274230e-04 -1.63436800e-02
 -1.25891334e-03  1.89299316e-03 -1.24667539e-03 -2.57419206e-04 -2.31131365e-04
  3.30344316e-03  2.08163517e-03 -2.06141723e-04  8.91529717e-04 -4.67045412e-04
  1.84286436e-04 -1.14750701e-03 -8.04583613e-04 -1.40810490e-03 -5.31705357e-04
  3.34663200e-03 -1.16014335e-04  2.18730496e-05 -7.67758428e-05  1.88865944e-03
  2.26972221e-03 -3.93681557e-04 -3.63628215e-04  7.03540975e-05 -2.26754294e-04
 -3.57170748e-04 -2.55802189e-05  2.47884780e-05 -1.95791413e-04 -1.21900160e-03
 -6.48031853e-05 -1.26711903e-04 -6.22499341e-05 -1.43901169e-03 -3.16658295e-04
  3.00637905e-04  5.80863101e-05  1.11474929e-04 -8.78812530e-05 -9.95521545e-05
  1.20263722e-04  5.06438329e-06  3.14013682e-05  4.60965413e-04  1.59555468e-04
  1.01174317e-04 -5.69793145e-05 -9.66101965e-04 -1.74898305e-04  1.47143768e-04
 -7.05829863e-05 -2.88791305e-05 -3.30999941e-05  3.77939991e-05  6.58253546e-05
  4.51992262e-04  2.17939408e-03 -8.92864488e-05  6.48176904e-04  1.11294090e-04
 -2.20258818e-03  1.82657320e-03  9.42756024e-04  1.53110596e-03 -1.34695414e-03
 -1.74299116e-03  1.47555725e-03  1.08791163e-03 -1.36983365e-03  1.33279521e-03
 -6.55585927e-05 -4.00236643e-05  5.83452588e-05  7.57266493e-06 -3.48869240e-05
  1.18372637e-04  6.08748274e-04  1.57066837e-05 -1.25424513e-04  5.17632194e-05
 -4.44880424e-05  3.12983814e-04 -5.86096880e-05 -2.76808358e-04  5.69614538e-05
  7.35917325e-04 -4.41578819e-04  2.54978513e-03  6.02873700e-05  1.04244521e-04
 -6.19088689e-05 -2.02692824e-03 -3.58154188e-04  2.91402760e-04 -2.76571798e-04
  4.63000084e-04 -2.48542341e-04  2.01324309e-04 -4.28235209e-04 -6.08085640e-03
 -6.64853093e-04  3.29929830e-03  2.51375151e-04  6.94142995e-04 -1.60028582e-04
 -2.34761499e-03 -3.55032527e-03 -9.85991175e-05  8.70807521e-04  5.02983753e-04
  4.51963733e-04  5.81054543e-04 -1.17119362e-03  1.00668511e+00  1.67960895e-02
 -2.21974043e-02 -1.97199895e-04 -1.44286071e-04 -4.46466454e-04 -5.02519519e-03
 -1.90291336e-04  2.01911200e-03 -1.08726808e-03 -1.33929061e-04  4.95063837e-05
  5.74916986e-04 -8.94150994e-05 -5.28290765e-03 -1.42166173e-03  6.75550977e-03
  6.34038208e-04 -1.04717241e-03 -1.93360345e-04 -3.58876411e-04  4.14346567e-03
  1.30816425e-05  8.13807672e-04  2.79099551e-04 -4.16957024e-04  6.87733926e-04
  1.02295980e-03  2.58761489e-05  3.12405820e-05 -8.47798735e-04  5.50935874e-05
 -4.32865312e-05 -2.77299539e-05 -1.23738216e-04 -7.84704323e-04  8.23446293e-05
 -5.62043897e-05 -1.13645720e-05  7.89162677e-06  8.47017385e-05  1.07528547e-04
  2.47697237e-04  2.30111318e-04 -1.37482748e-04 -1.95347973e-04  4.84872592e-05
  1.95468648e-04  5.48894146e-04  1.08840927e-04 -1.64215075e-04  6.34782498e-05
 -6.47394911e-04  4.25659925e-04  1.40046246e-04 -7.88202955e-05  1.16710661e-04
  1.61803249e-04  1.12168197e-03  3.73480911e-04 -8.77898314e-06  3.54021729e-05
 -2.36527003e-03  9.63875761e-04 -2.17373447e-03 -1.21113252e-04 -9.52217467e-05
 -3.23196178e-04  5.73616698e-04  2.44819376e-04  2.40879382e-04  9.01204515e-05
  9.25880018e-05  1.30372399e-02 -1.92020732e-03 -2.83825301e-03 -7.86508667e-03
 -6.55252230e-04  1.74280929e-03  4.68015492e-03 -4.23055536e-03 -2.84175515e-04
 -6.87847580e-04  7.20690883e-04 -6.31324342e-04  9.33434587e-04 -2.98900312e-04
  1.72253590e-02  2.70841245e-03  3.11639581e-03 -1.06412844e-02  9.77964417e-04
  3.11310801e-03  3.36409244e-03  6.15439606e-05 -1.43062414e-03 -3.10859812e-04
 -5.91641884e-04 -1.03007259e-03  1.59051447e-04 -2.02098198e-03  3.70589398e-02
  7.42482047e-03  2.37283226e-02 -1.71180066e-02 -6.01018345e-03  9.98057665e-03
  8.88954871e-03 -1.92594176e-03 -2.62689543e-03 -2.07122490e-03  1.16304890e-03
  2.83892073e-03 -7.87993988e-03 -1.26615271e-02  1.63778202e-01  7.77382970e-02
  1.33058419e-01  3.74801381e-03 -2.22424096e-02  7.03547918e-03  1.74500984e-02
  3.70071726e-04 -1.18048113e-02 -9.07316406e-03 -1.08176418e-03  2.92511655e-02
 -1.47689416e-03 -6.43950369e-03  4.20055018e-01  3.75713742e-01 -9.15596768e-02
  7.78999474e-02  8.39447104e-03 -3.10442235e-02  3.09072905e-04  4.55740624e-03
 -6.56976027e-03 -2.72676272e-03 -6.80364850e-04  4.91058150e-03 -1.86537631e-03
  1.53513988e-01  3.88580195e-03 -1.41111222e-02 -2.83232342e-02  5.85482819e-03
  7.84704240e-04 -3.67703199e-03 -2.57670471e-05 -2.29589284e-04 -3.09431419e-06
  1.02738644e-02  6.35000266e-03 -1.34589651e-03 -5.60529364e-04 -1.10548536e-03
  3.84115180e-02  3.87556441e-03  7.75966642e-03  6.05964040e-03  7.08241036e-05
  5.25148397e-03  3.33050580e-03  4.78541686e-04 -2.00626689e-03 -1.80661568e-04
  1.94537785e-03 -2.04760021e-03 -1.84784646e-04 -4.93675860e-04 -9.00957547e-05
  1.43738186e-02 -1.88956462e-01 -1.04177126e-01  8.27180554e-02  2.95659412e-02
  1.04757157e-02  7.19636185e-03 -3.22312979e-03  8.66951392e-03  6.08165634e-03
 -1.60407823e-03 -3.35224959e-03 -7.36900649e-03 -5.36364039e-03  1.94335720e-02
 -2.81172180e-01 -1.84608956e-01 -3.47908797e-02  4.67350848e-02 -1.33009792e-02
 -2.15498240e-02  2.49669381e-02 -1.24486696e-02  1.09671561e-02  2.15717704e-04
  1.70075372e-03 -1.94777488e-03 -9.94336211e-03  1.77283987e-02 -2.40410746e-01
 -1.37912053e-01 -5.94904119e-02 -2.15309240e-02  2.46320831e-02 -1.53269322e-02
 -1.34093949e-02  9.05880106e-03  8.11415150e-03  2.94592182e-03  2.29457764e-03
  8.44280664e-03 -5.75347994e-03  4.84756024e-03 -1.10388431e-01 -6.23001606e-02
  7.16510666e-02 -8.60016369e-02 -1.40219966e-02  2.41303036e-02 -1.52233729e-02
 -6.44678022e-03  3.01122171e-03 -1.29941675e-03 -1.59247808e-03  1.30881877e-02
  4.39411533e-03  8.36138922e-04  9.84446154e-02  9.68656164e-02  1.41759657e-02
 -4.65788468e-03 -4.95856792e-03  1.21430717e-02 -7.86572550e-03 -2.36278339e-03
  7.21270222e-04  2.99391884e-04 -5.33848643e-04 -5.42134132e-04  2.30955150e-03
  1.57197536e-02  3.34697947e-03  4.17612017e-04 -1.03509940e-02 -6.87477841e-04
 -5.73300944e-02  1.21956925e-03  6.34161907e-03  7.09335338e-03 -4.24748452e-03
 -6.90596694e-02 -3.03072324e-03  7.60121574e-03 -5.10880694e-03  6.51088883e-03
 -2.65406962e-02  3.92428172e-04  3.48885910e-04 -4.80255729e-03 -3.86159024e-04
 -7.81723111e-02 -6.46325733e-03 -1.28313687e-02 -1.53957997e-03  9.07314124e-04
 -9.70848169e-02 -1.33223380e-02 -8.23309993e-03  1.09658962e-02 -6.35677354e-03
  1.56454816e-02 -2.30732945e-01 -1.28351088e-01  4.80667812e-02  1.54457247e-02
  1.28311928e-02  8.21676337e-05 -4.82155021e-05  3.84441432e-03  4.03046691e-03
 -1.95864071e-03 -2.94497901e-03 -3.88817745e-03  9.49330105e-04  8.12370694e-03
 -1.20798033e-01 -9.77513308e-02 -1.16254842e-01 -7.61558361e-02  7.21359559e-04
 -5.13375472e-02 -1.00502922e-02 -5.29659035e-03  2.47689367e-03 -2.82855908e-03
 -1.93670034e-03 -1.55726627e-02  2.20996297e-03 -1.31788737e-02  2.04206708e-01
  1.31081279e-01  1.34322039e-02 -1.09732251e-01 -1.63292327e-02  1.85078462e-02
 -2.92411835e-02 -1.89648086e-03 -3.21543161e-03 -6.65149137e-04  3.46129586e-03
 -6.87160259e-03 -1.21051085e-02 -1.00678234e-02  2.46843103e-01  1.42764234e-01
 -7.85719347e-02  5.14333637e-02  1.25245955e-02 -2.40807211e-02  1.41546858e-02
  2.65677698e-03 -5.09781991e-03 -9.07046059e-04  1.73376611e-03 -4.93431146e-03
 -1.10370377e-02 -2.00708590e-03 -8.79120628e-02 -8.14294964e-02 -1.00441837e-01
 -5.35353241e-02  1.98365422e-02 -4.89711038e-02 -1.04576987e-02  7.45876470e-03
 -1.48842095e-03 -1.21743989e-03  1.09623671e-03  7.00228885e-03 -3.72590055e-03
 -1.08705004e-01 -2.27638164e-02  3.20448848e-03  8.39115354e-03 -3.56125554e-03
 -9.62803332e-02 -8.03896799e-03  7.21650156e-03  1.06137378e-02 -7.05183917e-03
 -1.02905820e-01 -1.32309526e-02  9.04578833e-03 -6.26129332e-03  9.46155269e-03
  1.10253132e-01  1.18842829e-02  4.17913324e-03  1.39999933e-02  1.66694467e-03
  9.28505464e-02  1.37585139e-02  1.29547076e-02 -2.42144805e-03 -8.77228936e-04
 -5.24149175e-02 -1.22573850e-02 -6.27084259e-03  2.91187490e-03 -3.10445715e-03
  1.06627631e-02 -1.99162857e-01 -1.32821907e-01 -2.58251623e-02 -2.73385316e-02
  7.56993232e-03 -2.48047234e-02  2.70694131e-03 -8.35063991e-03 -1.49125138e-03
 -2.93093351e-04  2.27780567e-04  1.15478728e-03  2.35893470e-03 -2.54707898e-03
  8.95756027e-02  4.30709042e-02 -1.57494832e-01 -9.03626806e-02 -2.97014797e-03
 -5.66392322e-02 -3.85327515e-02  9.25681978e-04 -4.28069035e-04 -3.61025407e-03
 -2.14145928e-03 -1.03766980e-02  1.41567478e-03 -5.26517703e-03  1.44735588e-01
  9.53079731e-02 -1.58574097e-02  1.33166323e-01 -1.53060892e-02  7.80752790e-03
  4.09329767e-02 -2.94287402e-03 -4.75099985e-04 -8.61787956e-04 -5.20634672e-03
 -1.26041037e-03  8.03490567e-03  4.25626746e-03 -2.19398136e-01 -1.42339911e-01
 -2.28947598e-02  1.41974643e-01  1.04886617e-02 -7.29318685e-03  2.23496706e-02
 -1.92914273e-03  1.02796778e-03  1.32618243e-03 -2.05750753e-03 -7.01757572e-03
  7.20787604e-03  1.04571952e-03  7.50164265e-02  8.42811682e-02  2.02197946e-01
  1.40290117e-01 -4.21618849e-02  9.59276452e-02  4.97460464e-02 -1.76187630e-02
  2.06697412e-03  1.97833832e-03 -9.99291389e-04 -1.14649513e-02  4.49600977e-04
  1.56254397e-01  3.37956316e-02 -5.31818258e-03 -2.36093704e-02  2.32091694e-03
 -1.28964283e-01 -2.67999329e-02  6.63577594e-03  1.05421070e-02 -8.11328262e-03
 -9.63044086e-02 -4.90386015e-03  6.31347354e-03 -9.00976748e-03  7.36161882e-03
 -1.85807124e-01 -3.87929624e-02 -8.74882189e-03 -1.59960203e-02 -2.18557265e-03
  8.48752541e-02  1.98204321e-02  9.45445447e-03  3.24166976e-03 -7.26625570e-04
  6.21636282e-02  1.14909951e-02  4.95569900e-04 -6.71104951e-03  2.71129263e-03
  4.87210919e-03 -1.16447078e-01 -7.02036264e-02 -1.43989095e-01  4.77357602e-02
 -3.53484835e-02 -5.66715034e-02  1.74507767e-02 -1.14742737e-02 -3.33344928e-03
  3.25293121e-03 -4.38064933e-04  1.27353430e-02  2.45865375e-03 -4.78073278e-03
  2.16002935e-01  1.28178612e-01 -9.20074342e-02  7.82637316e-02 -4.00705959e-02
 -3.75299363e-02  1.50833675e-02 -8.58924713e-03  4.83431254e-03 -1.61493886e-03
 -5.12878417e-04 -1.26285120e-03  1.19303662e-03  2.08373217e-03 -8.95552402e-02
 -3.73340826e-02 -1.03767997e-02  1.71108015e-01 -9.22205835e-03 -6.01744735e-03
  4.05941429e-02 -8.57694488e-03 -1.11816390e-03 -7.30002795e-04 -6.02645778e-03
 -4.54485834e-03  6.80124002e-03  1.90644537e-03 -3.14067430e-03 -5.80211945e-03
  1.53860927e-01 -1.77956816e-01 -4.15559882e-02  4.85512603e-02 -5.52655633e-02
 -1.09683654e-02 -2.37315762e-03 -1.67554174e-03 -1.43641502e-04  1.08496180e-02
 -9.14006192e-03  1.20947082e-03  3.67845048e-02  5.09323461e-02 -1.74621818e-01
 -1.95887914e-01  2.92295569e-02 -6.93805824e-02 -8.39642856e-02  7.49534663e-03
  7.56487483e-04 -7.69847661e-04  4.60588062e-04  1.13868758e-02  1.14224774e-03
 -1.91317274e-01 -4.87622862e-02  4.73205507e-03  1.01196808e-02 -6.70252025e-03
 -7.65096335e-02 -1.66534598e-02  3.72916906e-04  7.55848322e-03 -5.65326465e-03
 -1.63955773e-01 -3.41447051e-02  6.33970530e-03 -4.72054494e-03  1.14718917e-02
  5.24690589e-02  1.14066207e-02  4.07791638e-03  2.17191828e-03 -4.97858055e-06
 -4.84426559e-02 -1.34861756e-02 -5.92947662e-03  3.32537321e-03  1.70430909e-04
  1.96522547e-01  4.21750779e-02  1.00157429e-02 -1.33397185e-02  9.22320657e-03
  1.34951102e-03 -4.93574589e-02 -5.69684730e-02 -1.04735375e-01 -1.14047029e-01
  3.93951824e-02 -1.98450674e-02 -4.85100407e-02  1.37164639e-02 -4.00943530e-03
  1.97038806e-03  2.76495373e-03  9.21345618e-04  4.47218378e-03 -4.94365831e-04
  4.30865357e-02  4.00292119e-02  9.86053092e-02 -1.23982828e-01  4.78354792e-02
  6.19190082e-02 -4.27916141e-02  1.45831399e-02 -8.49587669e-04  2.05925999e-03
  8.82523840e-04 -8.48383883e-03 -1.02764353e-02  5.27518286e-03 -5.61124356e-02