[Molden Format]
[Atoms] (AU)
C    1    6           1.6407852029         3.0066836559         0.3003605078
C    2    6          -0.7933027246         2.4110493511        -0.1746278419
C    3    6          -2.0439680342        -0.0069450262         0.2890089040
C    4    6          -0.8858160623        -2.2784838146         0.1070636727
O    5    8           1.5812919002        -2.6868286860        -0.4036913155
H    6    1           2.3543095618        -1.0454634448        -0.7285213659
H    7    1           2.4207685463         4.8326427685        -0.2567224959
H    8    1           2.9029833032         1.7620428688         1.3659948522
H    9    1          -1.9245147986        -4.0539831390         0.2818034917
H   10    1          -4.0831231758        -0.0101416491         0.6049425585
H   11    1          -1.9730647729         3.8610145320        -1.0736685421
[GTO]
  1 0
 s    8  1.00
     6665.0000000000         0.0006920000
     1000.0000000000         0.0053290000
      228.0000000000         0.0270770000
       64.7100000000         0.1017180000
       21.0600000000         0.2747400000
        7.4950000000         0.4485640000
        2.7970000000         0.2850740000
        0.5215000000         0.0152040000
 s    8  1.00
     6665.0000000000        -0.0001460000
     1000.0000000000        -0.0011540000
      228.0000000000        -0.0057250000
       64.7100000000        -0.0233120000
       21.0600000000        -0.0639550000
        7.4950000000        -0.1499810000
        2.7970000000        -0.1272620000
        0.5215000000         0.5445290000
 s    1  1.00
        0.1596000000         1.0000000000
 p    3  1.00
        9.4390000000         0.0381090000
        2.0020000000         0.2094800000
        0.5456000000         0.5085570000
 p    1  1.00
        0.1517000000         1.0000000000
 d    1  1.00
        0.5500000000         1.0000000000

  2 0
 s    8  1.00
     6665.0000000000         0.0006920000
     1000.0000000000         0.0053290000
      228.0000000000         0.0270770000
       64.7100000000         0.1017180000
       21.0600000000         0.2747400000
        7.4950000000         0.4485640000
        2.7970000000         0.2850740000
        0.5215000000         0.0152040000
 s    8  1.00
     6665.0000000000        -0.0001460000
     1000.0000000000        -0.0011540000
      228.0000000000        -0.0057250000
       64.7100000000        -0.0233120000
       21.0600000000        -0.0639550000
        7.4950000000        -0.1499810000
        2.7970000000        -0.1272620000
        0.5215000000         0.5445290000
 s    1  1.00
        0.1596000000         1.0000000000
 p    3  1.00
        9.4390000000         0.0381090000
        2.0020000000         0.2094800000
        0.5456000000         0.5085570000
 p    1  1.00
        0.1517000000         1.0000000000
 d    1  1.00
        0.5500000000         1.0000000000

  3 0
 s    8  1.00
     6665.0000000000         0.0006920000
     1000.0000000000         0.0053290000
      228.0000000000         0.0270770000
       64.7100000000         0.1017180000
       21.0600000000         0.2747400000
        7.4950000000         0.4485640000
        2.7970000000         0.2850740000
        0.5215000000         0.0152040000
 s    8  1.00
     6665.0000000000        -0.0001460000
     1000.0000000000        -0.0011540000
      228.0000000000        -0.0057250000
       64.7100000000        -0.0233120000
       21.0600000000        -0.0639550000
        7.4950000000        -0.1499810000
        2.7970000000        -0.1272620000
        0.5215000000         0.5445290000
 s    1  1.00
        0.1596000000         1.0000000000
 p    3  1.00
        9.4390000000         0.0381090000
        2.0020000000         0.2094800000
        0.5456000000         0.5085570000
 p    1  1.00
        0.1517000000         1.0000000000
 d    1  1.00
        0.5500000000         1.0000000000

  4 0
 s    8  1.00
     6665.0000000000         0.0006920000
     1000.0000000000         0.0053290000
      228.0000000000         0.0270770000
       64.7100000000         0.1017180000
       21.0600000000         0.2747400000
        7.4950000000         0.4485640000
        2.7970000000         0.2850740000
        0.5215000000         0.0152040000
 s    8  1.00
     6665.0000000000        -0.0001460000
     1000.0000000000        -0.0011540000
      228.0000000000        -0.0057250000
       64.7100000000        -0.0233120000
       21.0600000000        -0.0639550000
        7.4950000000        -0.1499810000
        2.7970000000        -0.1272620000
        0.5215000000         0.5445290000
 s    1  1.00
        0.1596000000         1.0000000000
 p    3  1.00
        9.4390000000         0.0381090000
        2.0020000000         0.2094800000
        0.5456000000         0.5085570000
 p    1  1.00
        0.1517000000         1.0000000000
 d    1  1.00
        0.5500000000         1.0000000000

  5 0
 s    8  1.00
    11720.0000000000         0.0007100000
     1759.0000000000         0.0054700000
      400.8000000000         0.0278370000
      113.7000000000         0.1048000000
       37.0300000000         0.2830620000
       13.2700000000         0.4487190000
        5.0250000000         0.2709520000
        1.0130000000         0.0154580000
 s    8  1.00
    11720.0000000000        -0.0001600000
     1759.0000000000        -0.0012630000
      400.8000000000        -0.0062670000
      113.7000000000        -0.0257160000
       37.0300000000        -0.0709240000
       13.2700000000        -0.1654110000
        5.0250000000        -0.1169550000
        1.0130000000         0.5573680000
 s    1  1.00
        0.3023000000         1.0000000000
 p    3  1.00
       17.7000000000         0.0430180000
        3.8540000000         0.2289130000
        1.0460000000         0.5087280000
 p    1  1.00
        0.2753000000         1.0000000000
 d    1  1.00
        1.1850000000         1.0000000000

  6 0
 s    3  1.00
       13.0100000000         0.0196850000
        1.9620000000         0.1379770000
        0.4446000000         0.4781480000
 s    1  1.00
        0.1220000000         1.0000000000
 p    1  1.00
        0.7270000000         1.0000000000

  7 0
 s    3  1.00
       13.0100000000         0.0196850000
        1.9620000000         0.1379770000
        0.4446000000         0.4781480000
 s    1  1.00
        0.1220000000         1.0000000000
 p    1  1.00
        0.7270000000         1.0000000000

  8 0
 s    3  1.00
       13.0100000000         0.0196850000
        1.9620000000         0.1379770000
        0.4446000000         0.4781480000
 s    1  1.00
        0.1220000000         1.0000000000
 p    1  1.00
        0.7270000000         1.0000000000

  9 0
 s    3  1.00
       13.0100000000         0.0196850000
        1.9620000000         0.1379770000
        0.4446000000         0.4781480000
 s    1  1.00
        0.1220000000         1.0000000000
 p    1  1.00
        0.7270000000         1.0000000000

  10 0
 s    3  1.00
       13.0100000000         0.0196850000
        1.9620000000         0.1379770000
        0.4446000000         0.4781480000
 s    1  1.00
        0.1220000000         1.0000000000
 p    1  1.00
        0.7270000000         1.0000000000

  11 0
 s    3  1.00
       13.0100000000         0.0196850000
        1.9620000000         0.1379770000
        0.4446000000         0.4781480000
 s    1  1.00
        0.1220000000         1.0000000000
 p    1  1.00
        0.7270000000         1.0000000000

[5D7F]
[9G]

[MO]
 Sym= A
 Ene=        -1.9175028675e+01
 Spin= Alpha
 Occup=         2.0000000000e+00
  1        -7.5659509956e-05
  2        -1.3008277347e-04
  3         1.1736661750e-03
  4        -1.0078108628e-04
  5         7.3799016293e-05
  6         2.2832436803e-05
  7        -2.2528205168e-04
  8        -1.3274668578e-03
  9         1.6327670652e-04
 10        -6.9497128722e-05
 11         1.1092420428e-05
 12         4.1988034970e-05
 13        -5.0205402818e-05
 14         7.5311375362e-05
 15         2.1068744790e-04
 16         3.6277462963e-04
 17        -5.5780183832e-03
 18        -6.2282621889e-06
 19         6.0624475412e-06
 20         6.3929266797e-05
 21         2.6273932557e-04
 22         2.9599578441e-03
 23        -8.9002095386e-04
 24         6.5119332455e-05
 25        -1.2616363435e-04
 26         1.0291634106e-04
 27        -5.0259048627e-06
 28         2.4865268422e-05
 29        -1.9366037633e-04
 30        -2.8347991365e-04
 31         4.7290176119e-03
 32         4.7399894575e-05
 33        -2.6488924965e-04
 34         6.6212420363e-06
 35         4.6515125142e-03
 36         3.1768859684e-03
 37        -1.0715980224e-03
 38        -1.6028549943e-04
 39        -1.4087046339e-04
 40         6.6693259819e-05
 41         3.9564050190e-04
 42        -4.0008573143e-04
 43        -2.0374563832e-04
 44        -3.6977171037e-04
 45        -5.6389203251e-03
 46        -3.2654314057e-04
 47         2.2181879693e-04
 48         9.7944106438e-05
 49        -5.9115937182e-03
 50        -1.4222452214e-03
 51         1.2244261920e-03
 52         3.9774585768e-04
 53         5.8070755055e-06
 54         7.5677727193e-05
 55         7.1010905661e-04
 56        -4.0444275135e-04
 57        -1.0040843805e+00
 58        -9.3608393852e-03
 59         1.4051598426e-02
 60         8.9597608715e-04
 61        -1.4560939663e-03
 62        -3.9534133200e-05
 63        -3.2470304559e-03
 64         1.4164504349e-03
 65         6.0234217489e-04
 66         2.0185633078e-05
 67         5.7766135661e-06
 68         8.8783344392e-05
 69         1.4995913984e-04
 70        -2.6398519525e-04
 71        -2.4427198131e-04
 72        -2.9853842560e-04
 73        -2.3384900289e-04
 74        -9.8402312927e-04
 75         7.7380698646e-05
 76         5.4071567284e-05
 77         2.9235535411e-04
 78         3.7204937333e-05
 79         6.1774379329e-05
 80         6.7845322124e-06
 81        -2.2848670365e-04
 82        -2.0875499921e-04
 83         3.2051512228e-06
 84        -2.1121336518e-05
 85        -8.9587673868e-06
 86         3.9618173591e-04
 87        -8.9950143191e-04
 88         6.3937409149e-04
 89         1.3838824582e-04
 90        -1.2843859466e-04
 91         1.6657407552e-04
 92         1.2603106787e-03
 93        -2.2691903585e-04
 94        -2.1037975106e-04
 95         6.4705423318e-05
 96         9.3875123249e-05
 97        -6.0312275754e-04
 98        -3.5325094278e-05
 99        -1.0915933722e-04
100         2.9109123336e-05
 Sym= A
 Ene=        -1.0250635972e+01
 Spin= Alpha
 Occup=         2.0000000000e+00
  1        -2.8224883735e-04
  2        -3.4747176596e-04
  3         1.1267955136e-03
  4         1.4613516411e-04
  5         8.1459994925e-05
  6         7.2857352119e-05
  7        -1.2808111692e-03
  8         4.7388726294e-04
  9        -6.3732872877e-04
 10        -7.6220644378e-05
 11        -1.7052707157e-05
 12        -3.0237645593e-05
 13         5.3209616148e-05
 14        -3.7182387335e-05
 15        -4.8798781679e-04
 16        -7.0078822948e-04
 17         4.8777248140e-03
 18        -1.2068706063e-04
 19         1.0719989841e-05
 20         2.9889578023e-06
 21        -2.4112419840e-03
 22        -4.1479863997e-03
 23         7.5891721934e-04
 24        -3.5296557379e-04
 25        -9.8799101856e-05
 26        -1.0520604953e-04
 27         9.3499651718e-06
 28         1.8974201356e-04
 29         4.5633750140e-03
 30        -9.9798348580e-04
 31         1.4549621136e-04
 32        -5.7165566102e-04
 33         1.3454929629e-03
 34         9.1914983297e-05
 35        -1.9613182726e-03
 36        -6.4991691623e-03
 37         7.8402312226e-04
 38         1.0752018411e-03
 39         2.3481256845e-04
 40        -4.4749576369e-05
 41         5.7972262475e-04
 42         9.0069198296e-04
 43         1.0059205221e+00
 44         1.5309914078e-02
 45        -1.2576600259e-02
 46         5.6964035491e-04
 47        -4.7660006423e-04
 48        -1.7659968566e-04
 49         5.1045299293e-03
 50        -2.3823690722e-03
 51        -1.0149470274e-03
 52        -1.6295455942e-03
 53        -5.1626151136e-04
 54         2.6250794087e-05
 55        -2.8534033765e-04
 56        -2.2430644605e-05
 57         7.2457416914e-04
 58         1.3078346510e-03
 59        -4.9885693619e-03
 60         2.6932192436e-04
 61        -2.1101586947e-04
 62        -3.3317625812e-05
 63         3.2795590989e-03
 64        -2.8309955101e-04
 65        -6.9678464029e-04
 66         6.9741319039e-04
 67         4.3316204576e-04
 68        -1.2524692244e-05
 69        -7.6685753619e-04
 70         2.0635264472e-04
 71         5.2913349536e-04
 72        -4.4071369200e-04
 73        -6.2698762529e-04
 74        -2.6735321671e-05
 75         1.1904585035e-04
 76        -5.3172260881e-05
 77         1.7788083962e-04
 78        -2.6012743208e-05
 79        -5.4602269093e-05
 80         3.0990855773e-05
 81         4.1637933479e-06
 82         9.3079968158e-04
 83         1.1567586201e-05
 84         6.4693863613e-05
 85        -2.9649692683e-05
 86        -2.1489951599e-03
 87         2.3382492099e-03
 88        -1.5354284176e-03
 89        -1.5837161986e-03
 90         2.7107399007e-04
 91        -1.4703750045e-04
 92        -2.7664556494e-04
 93         2.9846956290e-04
 94         2.9366547820e-04
 95        -7.2413304369e-05
 96        -5.5764641693e-05
 97         5.4886699303e-04
 98         1.7234933020e-04
 99         1.3084075364e-04
100        -3.2341319965e-05
 Sym= A
 Ene=        -1.0205786377e+01
 Spin= Alpha
 Occup=         2.0000000000e+00
  1         2.1552425271e-02
  2        -1.1331264826e-03
  3         4.7945120479e-03
  4         1.3262615391e-03
  5         3.3877679765e-04
  6         1.6765786072e-04
  7        -2.0844513063e-03
  8        -1.8073592291e-03
  9         3.8048578368e-04
 10         7.6130087951e-04
 11        -5.5365067733e-04
 12        -3.3022393425e-05
 13        -1.0663395179e-03
 14        -4.0035519912e-04
 15         1.0062030514e+00
 16         1.6277708177e-02
 17        -1.9225689175e-02
 18        -1.3160219911e-04
 19         2.1332569147e-04
 20        -2.3447102233e-04
 21        -1.7160151349e-03
 22         3.1921782363e-03
 23        -1.7692523976e-03
 24        -7.7569668893e-04
 25         6.8763541749e-04
 26        -6.3945730964e-04
 27         2.2135019038e-04
 28        -3.6018813638e-05
 29         5.7405917261e-03
 30        -4.4636412939e-04
 31         1.0964579251e-03
 32        -4.6736358243e-04
 33        -6.3586348272e-04
 34         1.4584809030e-04
 35         7.5522525341e-04
 36         3.8793026983e-03
 37         2.7821993197e-04
 38         8.0074623274e-04
 39         4.5573517463e-05
 40         5.8845093130e-04
 41         1.0943182822e-03
 42        -9.5612787797e-04
 43        -3.5962431122e-04
 44        -7.0095292266e-04
 45         4.1326455987e-03
 46        -1.0440196199e-04
 47        -1.6137265059e-04
 48         1.2750876241e-04
 49        -6.2024932549e-04
 50         2.7926847916e-03
 51        -2.7832407232e-04
 52        -4.3211290567e-04
 53        -3.1481626376e-04
 54         5.9458272964e-05
 55         4.0573819222e-04
 56        -3.0875888842e-04
 57         9.0274140554e-05
 58         1.3274977801e-04
 59        -1.2310627736e-03
 60         1.6376208683e-04
 61        -3.9624309032e-05
 62        -2.6824497387e-05
 63         1.3003361328e-04
 64        -6.9956642667e-04
 65         9.6775308748e-05
 66         8.3295594089e-05
 67         2.5117548036e-05
 68         2.1146945271e-05
 69        -1.4028290494e-05
 70         1.8148339053e-05
 71         2.9612974624e-04
 72         6.0881340291e-04
 73        -2.7449311012e-04
 74        -8.2297945280e-05
 75        -1.2915139927e-05
 76        -5.3132045889e-05
 77         8.9874975174e-04
 78         1.4560261977e-04
 79        -1.1466569291e-04
 80         7.6304798431e-05
 81        -2.5570355984e-04
 82        -2.0692221106e-04
 83         4.1131515415e-05
 84         2.4909034214e-04
 85        -1.1740001063e-04
 86         9.4044125517e-05
 87         7.9974466626e-04
 88         1.7920049259e-04
 89        -5.9386543974e-05
 90         2.2567369221e-06
 91        -2.9244240921e-04
 92         4.0474204231e-04
 93        -6.6972636776e-05
 94        -3.8220039460e-04
 95        -5.7734918580e-05
 96        -2.2959796255e-03
 97         1.1933522022e-03
 98        -1.1630594659e-03
 99         1.5222793318e-03
100        -9.1536326824e-04
 Sym= A
 Ene=        -1.0189985920e+01
 Spin= Alpha
 Occup=         2.0000000000e+00
  1         1.0061999726e+00
  2         1.6371928463e-02
  3        -1.5190578718e-02
  4         2.8046465447e-04
  5        -3.1785778401e-05
  6         4.6154804586e-05
  7         2.1695247845e-03
  8         6.9500162220e-04
  9         7.2918244573e-04
 10        -1.0406062661e-03
 11         7.6156678560e-04
 12        -1.1714541812e-03
 13         6.3247135815e-05
 14         3.3475805259e-04
 15        -2.2772835901e-02
 16        -1.4398585823e-03
 17         8.8938530090e-04
 18        -1.3437324900e-03
 19        -3.3410195645e-04
 20        -2.7706675184e-04
 21         2.8738601561e-03
 22         2.5255864508e-03
 23        -5.3348019567e-05
 24         1.0089441314e-03
 25        -5.8099512307e-04
 26         1.8336583850e-04
 27        -1.0014953913e-03
 28        -7.8175941017e-04
 29        -1.1101671159e-03
 30        -5.2125875933e-04
 31         3.5554089953e-03
 32        -8.4577348252e-05
 33         5.7100379292e-05
 34        -6.7813296604e-05
 35         1.9596889082e-03
 36         2.4803919753e-03
 37        -5.0897515660e-04
 38        -3.7607146045e-04
 39         7.5387476717e-05
 40        -2.4791656039e-04
 41        -3.4087199889e-04
 42         3.0935113408e-05
 43         9.5151393607e-06
 44        -2.0948067189e-04
 45        -6.5224701194e-04
 46         8.8607151865e-07
 47        -1.3676635119e-04
 48        -5.2316665968e-05
 49        -1.3158069865e-03
 50        -1.5117936698e-04
 51         3.0469791550e-04
 52         5.9858508118e-05
 53         9.8648318292e-05
 54        -8.9092594592e-05
 55        -4.6425585627e-05
 56         1.0814664919e-04
 57         9.9591728352e-06
 58         3.2895043685e-05
 59         4.0683273083e-04
 60         1.1801929796e-04
 61         6.3796552246e-05
 62        -4.0957872059e-05
 63        -6.6777412538e-04
 64        -1.7201791138e-04
 65         1.0942850156e-04
 66        -2.8331609008e-05
 67        -3.5349724319e-05
 68        -2.8535149817e-05
 69         8.0763383231e-05
 70         5.1931152767e-05
 71         1.6250697871e-04
 72         1.2833246188e-03
 73        -1.2068080960e-04
 74         4.1255420053e-04
 75         9.3279567556e-05
 76        -2.3141277299e-03
 77         1.9077795195e-03
 78         7.3934871123e-04
 79         2.0277232850e-03
 80        -6.8614889027e-04
 81        -2.1478319389e-03
 82         1.5008071562e-03
 83         1.2193497312e-03
 84        -1.4818375139e-03
 85         1.2340430076e-03
 86        -8.0463161322e-05
 87        -2.9271779290e-05
 88         3.8929524232e-05
 89         2.0842068177e-05
 90        -1.9375984861e-05
 91         1.0940095595e-04
 92         5.8499349345e-04
 93         1.1198453871e-05
 94        -1.3303017504e-04
 95         4.5365001074e-05
 96         7.3342970864e-05
 97         2.3527377312e-04
 98         1.7222774469e-05
 99        -3.1598019463e-04
100         1.0128840729e-04
 Sym= A
 Ene=        -1.0182512067e+01
 Spin= Alpha
 Occup=         2.0000000000e+00
  1         3.8908001456e-04
  2        -4.5190853291e-04
  3         2.8426788460e-03
  4         7.3078562267e-05
  5         1.0445794341e-04
  6        -8.4421407203e-05
  7        -2.1063952885e-03
  8        -4.3470935090e-04
  9        -4.9945013421e-05
 10        -2.5299443016e-04
 11         5.2303842990e-04
 12        -3.0841513894e-04
 13         2.7553993498e-04
 14        -4.7621334004e-04
 15        -6.1343374586e-03
 16        -7.0004624295e-04
 17         3.0053134997e-03
 18         2.1762898457e-04
 19         7.0769154461e-04
 20        -1.7857679062e-04
 21        -2.1148744414e-03
 22        -3.8627343757e-03
 23        -5.0458868767e-05
 24         9.0641580713e-04
 25         4.9073290907e-04
 26         3.6658602695e-04
 27         5.6019933365e-04
 28        -1.3112226459e-03
 29         1.0066458990e+00
 30         1.6747334593e-02
 31        -2.1849421321e-02
 32        -2.3022206482e-04
 33        -1.4855936040e-04
 34        -1.2614529463e-04
 35        -5.1301669812e-03
 36        -2.6399536724e-04
 37         1.5755935091e-03
 38        -1.0843306975e-03
 39        -3.6938403644e-04
 40        -1.1582981907e-05
 41         2.8790441887e-04
 42        -2.0784727850e-04
 43        -5.8039662857e-03
 44        -1.5862923903e-03
 45         6.7165383513e-03
 46         6.3699511639e-04
 47        -1.2318124242e-03
 48        -8.8555124307e-05
 49         3.0808732651e-04
 50         4.1791196711e-03
 51        -3.5880356872e-04
 52         8.4344147529e-04
 53         1.5578000565e-04
 54        -2.0280627992e-04
 55         6.9731694752e-04
 56         1.0221792883e-03
 57         3.5540192705e-05
 58         5.0966948212e-05
 59        -9.6345300026e-04
 60         2.7162326118e-05
 61        -5.8486310529e-05
 62        -1.2526012968e-06
 63        -1.0968085032e-04
 64        -7.1148140274e-04
 65         7.6856791381e-05
 66        -5.7672308197e-05
 67        -4.2212599399e-05
 68        -8.8145921124e-06
 69         9.8185653146e-05
 70         8.2847624123e-05
 71         2.7378850804e-04
 72         4.0025941328e-05
 73        -1.3517479155e-04
 74        -1.6257292349e-04
 75         2.6808483968e-05
 76         1.0769738759e-04
 77         5.1248662901e-04
 78         1.4133800838e-04
 79        -1.4375820904e-04
 80         5.0632751555e-05
 81        -7.0481899420e-04
 82         5.0135049301e-04
 83         1.9428229248e-04
 84        -1.1871677575e-04
 85         1.2363261548e-04
 86         1.3771283469e-04
 87         1.2081078638e-03
 88         2.8147024380e-04
 89        -2.4501580909e-05
 90        -1.8320002371e-05
 91        -2.3826143184e-03
 92         8.4036584140e-04
 93        -2.1213522959e-03
 94        -5.5404997076e-05
 95         2.5245246357e-04
 96        -3.2595050936e-04
 97         6.8885766553e-04
 98         2.0835977929e-04
 99         2.8574777585e-04
100         7.4163666488e-05
 Sym= A
 Ene=        -1.0659377378e+00
 Spin= Alpha
 Occup=         2.0000000000e+00
  1         1.4330981059e-04
  2         8.2499300779e-03
  3        -4.2932275328e-03
  4        -1.8670582192e-03
  5        -4.9853108352e-03
  6        -6.7051250378e-04
  7         2.5034954516e-03
  8         5.0842303506e-03
  9        -1.9035030919e-03
 10        -2.5994999971e-04
 11        -5.5877965763e-04
 12         7.0964371291e-04
 13        -8.2058145830e-04
 14         9.7954946056e-04
 15        -6.0918502440e-05
 16         1.2999895649e-02
 17         1.5977441294e-03
 18         1.4838621996e-03
 19        -8.5721694710e-03
 20         9.7007803427e-04
 21         5.8235438099e-03
 22         3.3481865716e-03
 23         7.4827816809e-05
 24        -1.3657159483e-03
 25        -1.5913364590e-04
 26        -4.1727498964e-04
 27        -1.3165680687e-03
 28         4.4417633374e-04
 29        -1.3143359543e-03
 30         3.4773588217e-02
 31        -4.4033090645e-03
 32         2.0995145485e-02
 33        -1.7927784004e-02
 34        -4.2307748381e-03
 35         5.4728845903e-03
 36         1.5149597352e-02
 37        -2.0412449791e-03
 38        -2.2248392112e-03
 39        -1.0962412124e-03
 40         1.5511468667e-03
 41         2.2346546104e-03
 42        -8.0657901878e-03
 43        -1.2708309422e-02
 44         1.5397754155e-01
 45         8.5129031101e-02
 46         1.2610063694e-01
 47        -6.2599202724e-03
 48        -2.7313388437e-02
 49         4.8870243764e-03
 50         2.3957086998e-02
 51        -1.4456797040e-03
 52        -1.1075065701e-02
 53        -1.0860675587e-02
 54         9.9766402001e-04
 55         2.8366411661e-02
 56        -5.0781505583e-03
 57        -6.7003740648e-03
 58         4.2411032251e-01
 59         3.7254705753e-01
 60        -7.3094977404e-02
 61         9.0618830740e-02
 62         7.8524430036e-03
 63        -3.1091807900e-02
 64        -1.6683408705e-03
 65         6.8495550642e-03
 66        -6.3197251053e-03
 67        -3.3660365966e-03
 68        -4.7374706058e-04
 69         3.9471419505e-03
 70        -1.8858980245e-03
 71         1.7170212530e-01
 72         4.8436345246e-03
 73        -1.8810538374e-02
 74        -2.9759440624e-02
 75         7.4770108580e-03
 76         9.7411993525e-07
 77        -3.8876548113e-03
 78         6.1451385564e-05
 79         1.1845947298e-04
 80        -1.6488723530e-04
 81         7.2752835259e-03
 82         4.6734025976e-03
 83        -1.1337044045e-03
 84        -6.7175884761e-04
 85        -9.4321204775e-04
 86         3.4200964564e-02
 87         5.3004986993e-03
 88         8.3197987378e-03
 89         4.4094794233e-03
 90        -1.5460383651e-03
 91         5.0091446177e-03
 92         2.0394575659e-03
 93         3.9733522389e-04
 94        -2.3017781127e-03
 95         1.4999205746e-05
 96         1.6018315315e-03
 97        -1.2230186322e-03
 98        -3.0198876656e-04
 99        -4.4324369674e-04
100        -8.5100627585e-05
 Sym= A
 Ene=        -8.0191927302e-01
 Spin= Alpha
 Occup=         2.0000000000e+00
  1         1.4721773858e-02
  2        -1.9123095201e-01
  3        -1.0351991090e-01
  4         8.2751563245e-02
  5         2.8955895886e-02
  6         1.3792978155e-02
  7         8.6878987410e-03
  8        -2.9157069780e-03
  9         8.2259968124e-03
 10         4.8046644123e-03
 11        -2.2759303324e-03
 12        -3.3206274428e-03
 13        -7.8030964888e-03
 14        -5.9892541077e-03
 15         1.9410661148e-02
 16        -2.7775316709e-01
 17        -1.7813312523e-01
 18        -3.7196273378e-02
 19         4.0603278952e-02
 20        -1.9371186669e-02
 21        -1.8600983410e-02
 22         2.0994228390e-02
 23        -1.3687235137e-02
 24         1.0412007711e-02
 25        -8.6024365797e-04
 26         1.3387371432e-03
 27        -1.4651272874e-03
 28        -1.1031309890e-02
 29         1.8204175754e-02
 30        -2.4183450522e-01
 31        -1.4234424599e-01
 32        -5.4674437981e-02
 33        -1.5909018509e-02
 34         1.5445440089e-02
 35        -1.8903321769e-02
 36        -1.1708974445e-02
 37         9.4023885794e-03
 38         8.6484456748e-03
 39         1.7485750639e-03
 40         2.6468349336e-03
 41         9.5178539272e-03
 42        -5.2883917771e-03
 43         5.5182605874e-03
 44        -1.2485200918e-01
 45        -6.7258165238e-02
 46         6.0748053575e-02
 47        -8.5477314524e-02
 48        -9.8122578782e-03
 49         2.3168075204e-02
 50        -1.2888885227e-02
 51        -6.5518296187e-03
 52         3.4003608257e-03
 53        -1.6788478293e-03
 54        -4.4361560710e-04
 55         1.2071810700e-02
 56         4.1282351945e-03
 57         1.1059732766e-03
 58         8.7685991630e-02
 59         8.0734212279e-02
 60         2.6965741547e-02
 61         2.3937211597e-03
 62        -7.7531087840e-03
 63         1.6388111257e-02
 64        -7.8715782925e-03
 65        -3.3653130449e-03
 66         8.0473299293e-04
 67         3.8295638230e-04
 68        -7.1792116911e-04
 69        -1.0658326340e-03
 70         2.9294677882e-03
 71         3.4183332466e-02
 72         3.7443013704e-03
 73        -1.9954502992e-03
 74        -9.0772507257e-03
 75         4.1006566275e-04
 76        -5.9632170773e-02
 77        -5.8511144605e-04
 78         5.8203178117e-03
 79         8.8245310581e-03
 80        -2.1013690015e-03
 81        -6.8826478372e-02
 82        -4.6386825724e-03
 83         8.1294017181e-03
 84        -5.4863791478e-03
 85         5.8185834462e-03
 86        -3.3627338516e-02
 87         9.2603155332e-04
 88        -5.5521136019e-04
 89        -5.9070597725e-03
 90         2.5140900260e-04
 91        -8.1592297433e-02
 92        -8.4353745513e-03
 93        -1.3131327618e-02
 94        -9.3612575794e-04
 95         1.9729392687e-03
 96        -9.5389331827e-02
 97        -1.2276887607e-02
 98        -8.5101971947e-03
 99         1.0855105333e-02
100        -6.2354606118e-03
 Sym= A
 Ene=        -7.3117789493e-01
 Spin= Alpha
 Occup=         2.0000000000e+00
  1         1.6375041447e-02
  2        -2.2743596863e-01
  3        -1.2670298917e-01
  4         5.4539648844e-02
  5         8.6334764520e-03
  6         1.3741829819e-02
  7         2.8777670033e-03
  8         1.2283242914e-03
  9         2.8347115661e-03
 10         3.0999971861e-03
 11        -2.5816414181e-03
 12        -2.2545723579e-03
 13        -5.5098219993e-03
 14         2.4753313167e-05
 15         8.9216568668e-03
 16        -1.3528124538e-01
 17        -1.0134045873e-01
 18        -1.0926821245e-01
 19        -7.6864274301e-02
 20        -6.9591751849e-03
 21        -4.7976699119e-02
 22        -1.2808818128e-02
 23        -6.5975494104e-03
 24         2.3716086653e-03
 25        -4.1851427120e-03
 26        -2.6170650426e-03
 27        -1.4484936784e-02
 28         2.5933785347e-04
 29        -1.3266302841e-02
 30         1.9747475209e-01
 31         1.2900449789e-01
 32         9.7393005209e-03
 33        -1.1986282983e-01
 34        -4.3395998383e-03
 35         1.8550766652e-02
 36        -3.4226523741e-02
 37         3.6688449081e-05
 38        -3.3508703648e-03
 39         2.0496829979e-04
 40         1.9341912838e-03
 41        -6.7938209913e-03
 42        -1.2126856746e-02
 43        -9.9907807218e-03
 44         2.5162854864e-01
 45         1.3973083884e-01
 46        -7.3028642630e-02
 47         5.8501945739e-02
 48         1.1243823110e-02
 49        -2.2075634847e-02
 50         9.8648604787e-03
 51         2.4641168793e-03