[Molden Format]
[Atoms] (AU)
C    1    6           1.9278027789         2.5720968280        -0.1588222357
C    2    6          -0.9346116816         2.4356902169        -0.1346559456
C    3    6          -2.1087212756         0.2079748576         0.2112746355
C    4    6          -0.8071197211        -2.2909129126         0.0747493874
O    5    8           1.4602784884        -2.7130696599         0.0608139422
H    6    1           2.7337825177         1.0626713579        -1.2979272044
H    7    1           2.7190282542         4.2850041523        -1.0455456443
H    8    1           2.6346780798         2.4265604775         1.8681269004
H    9    1          -2.1713200220        -3.8831477689        -0.2287023614
H   10    1          -4.1762204006         0.1494738689         0.3334647425
H   11    1          -2.0229647671         4.1921463931        -0.5058224396
[GTO]
  1 0
 s    8  1.00
     6665.0000000000         0.0006920000
     1000.0000000000         0.0053290000
      228.0000000000         0.0270770000
       64.7100000000         0.1017180000
       21.0600000000         0.2747400000
        7.4950000000         0.4485640000
        2.7970000000         0.2850740000
        0.5215000000         0.0152040000
 s    8  1.00
     6665.0000000000        -0.0001460000
     1000.0000000000        -0.0011540000
      228.0000000000        -0.0057250000
       64.7100000000        -0.0233120000
       21.0600000000        -0.0639550000
        7.4950000000        -0.1499810000
        2.7970000000        -0.1272620000
        0.5215000000         0.5445290000
 s    1  1.00
        0.1596000000         1.0000000000
 p    3  1.00
        9.4390000000         0.0381090000
        2.0020000000         0.2094800000
        0.5456000000         0.5085570000
 p    1  1.00
        0.1517000000         1.0000000000
 d    1  1.00
        0.5500000000         1.0000000000

  2 0
 s    8  1.00
     6665.0000000000         0.0006920000
     1000.0000000000         0.0053290000
      228.0000000000         0.0270770000
       64.7100000000         0.1017180000
       21.0600000000         0.2747400000
        7.4950000000         0.4485640000
        2.7970000000         0.2850740000
        0.5215000000         0.0152040000
 s    8  1.00
     6665.0000000000        -0.0001460000
     1000.0000000000        -0.0011540000
      228.0000000000        -0.0057250000
       64.7100000000        -0.0233120000
       21.0600000000        -0.0639550000
        7.4950000000        -0.1499810000
        2.7970000000        -0.1272620000
        0.5215000000         0.5445290000
 s    1  1.00
        0.1596000000         1.0000000000
 p    3  1.00
        9.4390000000         0.0381090000
        2.0020000000         0.2094800000
        0.5456000000         0.5085570000
 p    1  1.00
        0.1517000000         1.0000000000
 d    1  1.00
        0.5500000000         1.0000000000

  3 0
 s    8  1.00
     6665.0000000000         0.0006920000
     1000.0000000000         0.0053290000
      228.0000000000         0.0270770000
       64.7100000000         0.1017180000
       21.0600000000         0.2747400000
        7.4950000000         0.4485640000
        2.7970000000         0.2850740000
        0.5215000000         0.0152040000
 s    8  1.00
     6665.0000000000        -0.0001460000
     1000.0000000000        -0.0011540000
      228.0000000000        -0.0057250000
       64.7100000000        -0.0233120000
       21.0600000000        -0.0639550000
        7.4950000000        -0.1499810000
        2.7970000000        -0.1272620000
        0.5215000000         0.5445290000
 s    1  1.00
        0.1596000000         1.0000000000
 p    3  1.00
        9.4390000000         0.0381090000
        2.0020000000         0.2094800000
        0.5456000000         0.5085570000
 p    1  1.00
        0.1517000000         1.0000000000
 d    1  1.00
        0.5500000000         1.0000000000

  4 0
 s    8  1.00
     6665.0000000000         0.0006920000
     1000.0000000000         0.0053290000
      228.0000000000         0.0270770000
       64.7100000000         0.1017180000
       21.0600000000         0.2747400000
        7.4950000000         0.4485640000
        2.7970000000         0.2850740000
        0.5215000000         0.0152040000
 s    8  1.00
     6665.0000000000        -0.0001460000
     1000.0000000000        -0.0011540000
      228.0000000000        -0.0057250000
       64.7100000000        -0.0233120000
       21.0600000000        -0.0639550000
        7.4950000000        -0.1499810000
        2.7970000000        -0.1272620000
        0.5215000000         0.5445290000
 s    1  1.00
        0.1596000000         1.0000000000
 p    3  1.00
        9.4390000000         0.0381090000
        2.0020000000         0.2094800000
        0.5456000000         0.5085570000
 p    1  1.00
        0.1517000000         1.0000000000
 d    1  1.00
        0.5500000000         1.0000000000

  5 0
 s    8  1.00
    11720.0000000000         0.0007100000
     1759.0000000000         0.0054700000
      400.8000000000         0.0278370000
      113.7000000000         0.1048000000
       37.0300000000         0.2830620000
       13.2700000000         0.4487190000
        5.0250000000         0.2709520000
        1.0130000000         0.0154580000
 s    8  1.00
    11720.0000000000        -0.0001600000
     1759.0000000000        -0.0012630000
      400.8000000000        -0.0062670000
      113.7000000000        -0.0257160000
       37.0300000000        -0.0709240000
       13.2700000000        -0.1654110000
        5.0250000000        -0.1169550000
        1.0130000000         0.5573680000
 s    1  1.00
        0.3023000000         1.0000000000
 p    3  1.00
       17.7000000000         0.0430180000
        3.8540000000         0.2289130000
        1.0460000000         0.5087280000
 p    1  1.00
        0.2753000000         1.0000000000
 d    1  1.00
        1.1850000000         1.0000000000

  6 0
 s    3  1.00
       13.0100000000         0.0196850000
        1.9620000000         0.1379770000
        0.4446000000         0.4781480000
 s    1  1.00
        0.1220000000         1.0000000000
 p    1  1.00
        0.7270000000         1.0000000000

  7 0
 s    3  1.00
       13.0100000000         0.0196850000
        1.9620000000         0.1379770000
        0.4446000000         0.4781480000
 s    1  1.00
        0.1220000000         1.0000000000
 p    1  1.00
        0.7270000000         1.0000000000

  8 0
 s    3  1.00
       13.0100000000         0.0196850000
        1.9620000000         0.1379770000
        0.4446000000         0.4781480000
 s    1  1.00
        0.1220000000         1.0000000000
 p    1  1.00
        0.7270000000         1.0000000000

  9 0
 s    3  1.00
       13.0100000000         0.0196850000
        1.9620000000         0.1379770000
        0.4446000000         0.4781480000
 s    1  1.00
        0.1220000000         1.0000000000
 p    1  1.00
        0.7270000000         1.0000000000

  10 0
 s    3  1.00
       13.0100000000         0.0196850000
        1.9620000000         0.1379770000
        0.4446000000         0.4781480000
 s    1  1.00
        0.1220000000         1.0000000000
 p    1  1.00
        0.7270000000         1.0000000000

  11 0
 s    3  1.00
       13.0100000000         0.0196850000
        1.9620000000         0.1379770000
        0.4446000000         0.4781480000
 s    1  1.00
        0.1220000000         1.0000000000
 p    1  1.00
        0.7270000000         1.0000000000

[5D7F]
[9G]

[MO]
 Sym= A
 Ene=        -1.9137578505e+01
 Spin= Alpha
 Occup=         2.0000000000e+00
  1        -8.1139662977e-05
  2        -1.6782226533e-04
  3         2.2988134625e-05
  4         6.3306915335e-05
  5         5.8429928343e-05
  6         9.0287997564e-06
  7         8.0889045178e-08
  8        -1.7374772738e-04
  9         1.4621605601e-04
 10         6.6844244582e-05
 11         4.1899732944e-05
 12         3.8226243184e-05
 13         5.6357108746e-05
 14        -8.8313549099e-05
 15        -1.9903617196e-04
 16        -3.5228314285e-04
 17         5.2640000027e-03
 18        -2.0609937322e-05
 19        -1.7157012462e-05
 20        -6.6501943786e-05
 21        -7.2376495465e-04
 22        -2.1659326848e-03
 23         5.3755364362e-04
 24        -3.0743485148e-05
 25         4.6961564740e-05
 26        -2.7815420615e-05
 27        -5.8623817458e-05
 28        -7.2265060256e-05
 29         2.2045030766e-04
 30         3.4866762993e-04
 31        -3.5359155565e-03
 32         6.5793159405e-05
 33         2.3854294636e-04
 34        -8.0833224908e-06
 35        -4.3344992797e-03
 36        -3.6111028158e-03
 37         3.4222436783e-04
 38         1.3536077284e-04
 39         6.5109557624e-05
 40         8.6390754862e-05
 41        -4.3650979639e-04
 42         4.6575050164e-04
 43         4.6876921479e-04
 44         6.1795550845e-04
 45         5.1823853628e-03
 46        -9.6200071065e-05
 47        -1.8049436804e-04
 48        -4.1082225875e-05
 49         6.6146437156e-03
 50         3.2652143076e-04
 51        -2.2889898060e-05
 52         2.1250145756e-05
 53         4.3113976198e-05
 54         9.9119836791e-05
 55        -1.1181568850e-03
 56         5.1577038804e-04
 57         1.0041691583e+00
 58         9.4688061440e-03
 59        -1.5100070012e-02
 60        -1.8416316609e-03
 61         3.6771100243e-04
 62         2.9458867391e-06
 63         3.5176318286e-03
 64        -8.4550894079e-04
 65        -1.7507905875e-05
 66        -1.7987947168e-05
 67        -2.3431713510e-06
 68        -5.4029070683e-06
 69         6.4810940569e-05
 70         6.3163429183e-06
 71        -1.1617386403e-04
 72        -1.7472646122e-04
 73         4.7771296114e-05
 74         2.1867957431e-06
 75         1.7557320274e-05
 76         1.0760552046e-04
 77         3.4460730657e-04
 78        -6.9711692800e-05
 79        -5.6533442424e-05
 80         4.4657350391e-05
 81        -9.3498397933e-05
 82        -2.4149036724e-04
 83         6.2040348834e-05
 84         6.4199268462e-05
 85         6.0174313877e-05
 86        -1.3719801301e-04
 87         8.2829546992e-04
 88        -7.5439199563e-04
 89         1.2474453283e-04
 90         1.9755429162e-05
 91        -2.7894246422e-04
 92        -1.3207286220e-03
 93         1.8436393301e-04
 94         2.5523064004e-04
 95        -8.1580743987e-06
 96        -1.7137782140e-04
 97         2.7574087023e-04
 98         3.3682261635e-05
 99         8.9486904089e-05
100        -3.3508245080e-05
 Sym= A
 Ene=        -1.0276468788e+01
 Spin= Alpha
 Occup=         2.0000000000e+00
  1        -3.8304869500e-04
  2        -5.1512935890e-04
  3         1.0004879592e-03
  4         2.7234541421e-04
  5         7.6615262542e-05
  6        -2.9099021925e-06
  7        -7.3972966522e-04
  8        -7.3394879322e-05
  9         2.8245304235e-06
 10        -3.8437018503e-05
 11        -7.4105226399e-05
 12         5.3739929847e-06
 13        -1.1626673381e-04
 14         1.7149538265e-05
 15        -4.0052584684e-04
 16        -5.7436634075e-04
 17         5.9323506681e-03
 18        -2.8528367434e-04
 19        -3.8004349228e-05
 20         6.2147877533e-05
 21        -2.0400240045e-03
 22        -3.5027509011e-03
 23         6.6092446901e-04
 24        -3.4744261130e-04
 25        -2.1302828812e-04
 26        -9.2706165922e-05
 27         2.8690179148e-04
 28         3.9049934179e-04
 29         1.4003377441e-03
 30        -2.1974381206e-04
 31        -1.3597748831e-03
 32        -3.2746094606e-04
 33         6.8604537807e-04
 34         5.9686886216e-05
 35        -2.1554898667e-03
 36        -5.9214641110e-03
 37         3.7583658937e-04
 38         9.8624111575e-04
 39         1.0967863275e-05
 40        -4.0399219563e-05
 41         1.1353023567e-03
 42         8.9821072908e-04
 43         1.0059028931e+00
 44         1.5180514802e-02
 45        -1.0851296278e-02
 46         7.4248557535e-04
 47        -5.0930060000e-04
 48        -1.7205514052e-04
 49         5.4170765509e-03
 50        -2.2393659866e-03
 51        -7.1835636775e-05
 52        -1.5789977955e-03
 53         1.6618570791e-04
 54         2.5125381196e-04
 55         9.4959402271e-04
 56        -3.2820293794e-05
 57         3.5986907999e-04
 58         8.9647264724e-04
 59        -5.9314524009e-03
 60         7.5412703471e-04
 61        -2.1766098607e-04
 62        -1.5884261839e-05
 63         3.3828844005e-03
 64        -2.3376101980e-04
 65        -2.7139368391e-05
 66         5.6307970852e-04
 67         2.5244036817e-05
 68        -3.3816113032e-05
 69        -7.2371301367e-04
 70         2.6842224929e-04
 71        -1.2357780733e-04
 72        -6.3485243969e-05
 73         2.8375135297e-05
 74         1.3609896496e-05
 75        -2.4074206736e-06
 76        -6.1384607490e-05
 77         3.8994214795e-04
 78        -3.8874811800e-05
 79        -1.2279225917e-05
 80         6.4179426929e-06
 81        -7.3022067833e-05
 82         3.3264676856e-05
 83         1.0386481709e-04
 84         5.1546243061e-05
 85        -5.2001287589e-05
 86        -1.6180833269e-03
 87         2.4196947844e-03
 88        -1.4071690881e-03
 89        -1.4171114431e-03
 90        -2.8167206357e-04
 91        -5.7123120746e-04
 92        -4.5411902511e-04
 93        -4.1362151487e-06
 94         3.0221761026e-04
 95        -2.6777088547e-05
 96         2.4512179579e-05
 97         5.6186146233e-04
 98         2.3158435924e-04
 99         7.5885779787e-05
100        -2.8192375805e-05
 Sym= A
 Ene=        -1.0225187378e+01
 Spin= Alpha
 Occup=         2.0000000000e+00
  1         2.6940103079e-03
  2        -2.9712237687e-04
  3         4.5124591855e-03
  4         5.6661230986e-04
  5         1.0410319418e-05
  6         5.2418777240e-05
  7        -2.5987476871e-03
  8        -6.6304185174e-04
  9        -3.5362774862e-04
 10         8.0052960018e-04
 11         4.4091137999e-05
 12         6.1343324697e-05
 13        -8.9486191432e-04
 14         7.1240342825e-06
 15         1.0062890181e+00
 16         1.6060937641e-02
 17        -2.0573422765e-02
 18        -4.8334224855e-04
 19         8.0514469430e-05
 20        -6.8889955584e-05
 21        -2.4297016914e-03
 22         4.2143584057e-03
 23        -5.8837313186e-04
 24        -9.4191485548e-04
 25         1.8519345374e-04
 26        -4.9226384903e-04
 27        -7.8840138239e-04
 28        -4.6017208480e-04
 29         1.3699238484e-02
 30        -1.2750077343e-03
 31         5.2993477735e-03
 32        -7.1295402139e-04
 33        -1.1283001929e-03
 34         1.7069088623e-04
 35         2.7329580079e-03
 36         2.8523908833e-03
 37        -3.3142744149e-04
 38         8.5838138471e-04
 39         1.2689123663e-04
 40         3.0979519055e-04
 41         4.5330079954e-04
 42        -9.9217263818e-04
 43        -2.6012754602e-04
 44        -5.4733793707e-04
 45         1.0389257826e-03
 46         1.3832854028e-05
 47        -2.2329680087e-04
 48         3.6641240314e-05
 49        -6.1841089691e-04
 50         9.3237297730e-04
 51        -7.1539948669e-05
 52        -2.8889918576e-04
 53        -1.0734074528e-04
 54        -1.4014113728e-05
 55         1.4866204174e-04
 56         5.4025274005e-05
 57        -2.9725234132e-05
 58        -6.1513829083e-05
 59        -1.2761414250e-05
 60         1.1104037968e-04
 61         2.8369192061e-05
 62         9.2022385391e-06
 63        -1.5541330800e-04
 64        -3.8839412523e-04
 65         4.8407591989e-05
 66         1.7189935032e-05
 67        -2.4198139735e-05
 68         4.1524150228e-06
 69         1.6208391914e-05
 70         3.5744875743e-05
 71        -4.8653597022e-04
 72         5.6594207758e-04
 73        -7.1545667008e-05
 74        -2.0374030854e-05
 75         9.4022468190e-05
 76        -2.8015796145e-04
 77         1.4358077060e-04
 78         1.7436127262e-04
 79         2.1845467818e-05
 80         9.6589399139e-05
 81        -4.8793647342e-04
 82         1.1206269168e-03
 83        -1.5139715028e-04
 84        -2.7518871974e-06
 85         4.6602553565e-05
 86        -1.2726464936e-04
 87         2.5108913670e-04
 88         3.5175411792e-05
 89        -7.9572266535e-05
 90        -1.9513250825e-05
 91         1.7972359337e-04
 92         9.5641112801e-04
 93         1.8450367332e-04
 94        -2.6673439307e-04
 95        -3.0626394300e-06
 96        -2.4268428774e-03
 97         9.5339806947e-04
 98        -1.2349630445e-03
 99         1.7844507641e-03
100        -4.0562000607e-04
 Sym= A
 Ene=        -1.0199821928e+01
 Spin= Alpha
 Occup=         2.0000000000e+00
  1         1.1552100862e-03
  2         5.1933036064e-04
  3        -2.9097654188e-04
  4        -1.2797283943e-04
  5        -1.3910880458e-04
  6         9.4465747024e-05
  7         9.9874380103e-04
  8         1.9227810016e-04
  9        -4.4391081388e-04
 10         2.8636451257e-04
 11         9.5920310973e-07
 12         8.9164625107e-05
 13        -2.2856426921e-05
 14         1.9265540897e-05
 15         1.5200626354e-02
 16         1.7453052070e-03
 17        -6.0434804816e-03
 18        -5.7371266539e-04
 19        -1.2311171868e-03
 20         1.9519434514e-04
 21         6.8857311755e-04
 22         3.5823776050e-03
 23        -1.4849920593e-04
 24        -8.9844420943e-04
 25        -1.9669962168e-04
 26        -3.9256538918e-04
 27        -6.6650049397e-04
 28         8.2430091292e-04
 29        -1.0064564439e+00
 30        -1.6505380054e-02
 31         2.0980558954e-02
 32         3.2883051609e-04
 33        -3.1468110874e-04
 34         2.0131621397e-04
 35         5.1062248653e-03
 36         3.3387607756e-04
 37        -1.0935764819e-03
 38         1.0683471258e-03
 39         1.6571089258e-04
 40         1.1963637314e-04
 41        -4.4095867733e-04
 42        -5.2706043479e-04
 43         1.6643561540e-03
 44         7.0061147387e-04
 45        -5.5761724613e-03
 46        -2.3032535510e-04
 47         6.3558464892e-04
 48         6.4996101188e-05
 49        -1.7889278473e-04
 50        -3.3715027893e-03
 51         4.5117349830e-05
 52        -6.6676998865e-04
 53        -1.9562398282e-04
 54         1.0865136351e-04
 55        -5.0971789900e-04
 56        -1.2406032549e-03
 57        -5.1912476369e-05
 58        -9.2274248997e-05
 59         7.0920600488e-04
 60        -2.4907454910e-06
 61         5.5934123821e-05
 62         4.0414582493e-05
 63         1.3225789815e-04
 64         7.0188886060e-04
 65        -4.5538991996e-05
 66         1.2125200198e-04
 67        -3.6769385373e-05
 68        -4.2497906475e-06
 69        -9.9635972987e-05
 70        -2.3522206004e-04
 71         5.0283711351e-05
 72        -3.6641735218e-04
 73        -2.0685376846e-05
 74        -1.3458736629e-04
 75         2.6757133902e-05
 76        -4.8594079473e-05
 77        -4.2783813056e-04
 78        -4.6672549950e-05
 79         4.1650389443e-05
 80         4.3314231842e-05
 81         1.3416715078e-04
 82        -1.7523479983e-04
 83        -4.9513558759e-05
 84        -6.9917952225e-05
 85         1.3092526483e-04
 86         3.5387771292e-04
 87        -9.2076044446e-04
 88        -3.7337949954e-05
 89         2.0309640945e-04
 90        -2.6987100065e-05
 91         2.4473978040e-03
 92        -8.7951317031e-04
 93         2.1725103143e-03
 94        -6.6139685169e-05
 95        -4.1442492768e-05
 96        -1.4714347523e-04
 97        -7.7452876619e-04
 98        -3.1833901264e-04
 99         4.4576996732e-05
100        -8.0197145187e-05
 Sym= A
 Ene=        -1.0190680959e+01
 Spin= Alpha
 Occup=         2.0000000000e+00
  1         1.0068700807e+00
  2         1.7165099145e-02
  3        -1.8562027533e-02
  4         4.7871081710e-04
  5        -1.9418061924e-05
  6        -2.0992001487e-04
  7         2.7180839070e-03
  8         2.9218051192e-04
  9        -2.0086392212e-04
 10         4.0876099596e-04
 11        -2.7256935183e-04
 12        -2.6991582280e-05
 13        -4.6775072912e-04
 14         1.3713539956e-04
 15        -2.7847884645e-03
 16        -1.4716503472e-04
 17         1.0433593321e-03
 18        -4.1548586396e-04
 19         4.4232006684e-05
 20        -1.9402409977e-05
 21         3.6859249756e-03
 22         2.6428369421e-03
 23        -4.6227174301e-04
 24         5.9553372011e-04
 25         7.1850552080e-06
 26        -5.0653549513e-05
 27        -1.2618722746e-03
 28        -2.7018188187e-04
 29         3.9505568040e-04
 30        -7.7372893336e-04
 31         4.0102642745e-03
 32        -2.7857485671e-04
 33        -2.8980184626e-06
 34        -6.9155613656e-06
 35         1.4356280809e-03
 36         2.6166302425e-03
 37        -3.8220846230e-04
 38        -3.8252919208e-04
 39         2.2227687273e-05
 40        -1.1942559424e-04
 41        -2.6541034045e-04
 42        -1.8791597845e-04
 43        -1.3772356259e-04
 44        -5.1904964371e-04
 45         3.4152456039e-04
 46        -8.5910283026e-05
 47        -2.7338413180e-04
 48        -4.2808507245e-05
 49        -9.9784892587e-05
 50         5.2610782837e-04
 51         1.4940321745e-04
 52        -7.3872744020e-05
 53        -3.3340121086e-05
 54        -3.9562170968e-05
 55         4.3506001679e-05
 56         2.4513935427e-05
 57        -1.0947976472e-04
 58        -2.1403263633e-04
 59         3.0259766042e-04
 60         3.2937907343e-05
 61        -1.2269967939e-04
 62        -2.3521719545e-05
 63        -2.0506229096e-04
 64         2.7867390222e-04
 65         6.9279943910e-05
 66        -5.7158180745e-05
 67        -1.3278673576e-06
 68         8.3323559865e-06
 69        -7.0124250636e-06
 70        -2.9605537591e-06
 71        -1.2351768764e-03
 72         2.1029665808e-03
 73         5.7742856570e-04
 74        -1.4980222205e-03
 75        -1.0115442633e-03
 76        -1.4078174235e-03
 77         1.7387171475e-03
 78         6.1962414486e-04
 79         1.7151764679e-03
 80        -8.2106644810e-04
 81        -8.8354625035e-04
 82         2.1550926321e-03
 83         4.6151650332e-04
 84        -1.8949819785e-04
 85         1.7075882655e-03
 86         4.1532652840e-05
 87         4.4040043463e-04
 88         1.3420277443e-05
 89         6.4832674752e-05
 90        -1.5194145409e-05
 91        -2.7906777608e-05
 92         5.8411699217e-04
 93         1.7645804423e-05
 94        -1.8375536882e-04
 95         2.9528069651e-05
 96        -4.5522393379e-04
 97        -8.3036989627e-05
 98        -3.9688794025e-04
 99        -1.4963808739e-04
100         2.4974239088e-05
 Sym= A
 Ene=        -1.0404745626e+00
 Spin= Alpha
 Occup=         2.0000000000e+00
  1        -4.1755676845e-04
  2         8.1271925311e-03
  3         4.7571039160e-03
  4        -3.2186911165e-03
  5        -3.9604301080e-03
  6        -2.2321347305e-04
  7        -2.2426076631e-03
  8        -1.0300034483e-03
  9         8.8489307518e-04
 10        -7.1413421443e-04
 11        -9.3683141902e-05
 12        -1.6014363222e-04
 13         6.0329762022e-05
 14         7.4514555733e-04
 15         6.1607639880e-04
 16         1.5982072935e-02
 17        -1.2403604606e-02
 18         6.1378931778e-04
 19        -1.0114004843e-02
 20         1.1269867772e-03
 21        -1.7209510252e-03
 22         9.9040687046e-03
 23        -1.5599308081e-03
 24        -4.0428211359e-04
 25        -2.0746427701e-04
 26        -4.5928816719e-04
 27        -1.3538313320e-03
 28         6.4703515624e-04
 29        -3.6585798528e-03
 30         3.3277030689e-02
 31         3.0364877912e-02
 32         1.9735129833e-02
 33        -1.7587309915e-02
 34        -1.6421292414e-03
 35         1.9381391531e-02
 36         3.2627164545e-03
 37        -2.2952975287e-03
 38        -3.6164822782e-03
 39        -6.8005224552e-04
 40         1.2959608760e-04
 41         3.4281548499e-04
 42        -8.8458740438e-03
 43        -1.4464142836e-02
 44         2.2375554081e-01
 45         9.5589843175e-02
 46         1.8477341961e-01
 47        -2.6922954264e-02
 48        -1.1451519595e-03
 49         1.2093797341e-02
 50        -1.8794416317e-03
 51         7.6045425795e-04
 52        -1.4028378286e-02
 53        -1.2302477003e-03
 54        -1.4697704354e-03
 55         3.1142459615e-02
 56        -1.4132105185e-02
 57        -9.0820688267e-03
 58         4.0317038370e-01
 59         3.6144396594e-01
 60        -1.5512952128e-01
 61         3.1901348471e-02
 62         4.0082472617e-04
 63        -3.1779056917e-02
 64         7.3097383941e-03
 65        -6.3563684993e-04
 66        -5.3794493748e-03
 67        -3.3548730279e-04
 68        -7.3511742493e-04
 69         1.2009822470e-02
 70        -5.1895579881e-03
 71         7.3340678808e-03
 72         4.0149746776e-03
 73        -6.8825513500e-04
 74        -4.4249166179e-04
 75         7.1773957714e-04
 76         1.1068472757e-03
 77        -7.6239466757e-04
 78         1.6002794075e-05
 79        -3.6107009707e-05
 80        -8.3273521259e-05
 81         2.5306193024e-03
 82         6.0728175600e-04
 83        -3.1068300218e-04
 84        -3.5306106296e-04
 85        -5.3364111410e-04
 86         3.9686439153e-02
 87        -3.2320729395e-03
 88         1.0096322612e-02
 89         5.8396041698e-03
 90         1.1630376521e-03
 91         6.6264152914e-03
 92         6.0655225362e-03
 93         8.5827318924e-04
 94        -1.9473545149e-03
 95        -6.8543059339e-05
 96         1.5396931191e-03
 97        -3.2423601064e-03
 98        -1.9164286128e-04
 99        -7.6607842695e-04
100         1.4407087515e-04
 Sym= A
 Ene=        -8.0997934122e-01
 Spin= Alpha
 Occup=         2.0000000000e+00
  1         1.0431267134e-02
  2        -1.7057797967e-01
  3        -7.6764360479e-02
  4         6.5015267757e-02
  5         1.2216360137e-02
  6        -1.6634126408e-04
  7         4.9046915626e-03
  8        -6.5965180480e-03
  9         5.3287044368e-04
 10         6.0750665318e-03
 11         2.2302682488e-04
 12        -4.9119607134e-05
 13        -9.8289382539e-03
 14        -2.5982027416e-03
 15         1.9633564404e-02
 16        -2.8804864065e-01
 17        -2.0372264734e-01
 18        -7.4146058283e-04
 19         8.0642431267e-02
 20        -1.0201872084e-02
 21        -2.4094329225e-02
 22         2.6775106402e-02
 23        -4.1248002044e-03
 24         9.9427283454e-03
 25         1.5422554283e-03
 26         2.0870157712e-03
 27        -1.1805735069e-03
 28        -9.2544314714e-03
 29         1.7552723416e-02
 30        -2.6308325432e-01
 31        -1.4160646765e-01
 32        -5.8967541479e-02
 33        -6.1491988578e-02
 34         1.8005382453e-02
 35        -4.2696907553e-03
 36        -1.6112320498e-02
 37         3.9397233072e-03
 38         6.9406997978e-03
 39         1.7667519321e-03
 40         2.3471224815e-03
 41         9.3224080501e-03
 42        -8.2135506834e-03
 43         2.6473401428e-03
 44        -6.7396276477e-02
 45        -5.0503031160e-02
 46         7.3423970566e-02
 47        -8.0254182401e-02
 48        -7.6658945099e-04
 49         2.2609899930e-02
 50        -2.2476434550e-02
 51        -1.5445321561e-03
 52         2.9166405575e-03
 53         2.0769631621e-04
 54        -4.2357664264e-04
 55         1.3099209746e-02
 56         3.7258774271e-03
 57        -3.3871029273e-04
 58         7.5829498884e-02
 59         7.3577334198e-02
 60        -1.1519755398e-02
 61        -1.6110967018e-02
 62         3.9924467886e-04
 63         1.4084313048e-03
 64        -7.0912575653e-03
 65         5.4644144513e-04
 66         1.6763831345e-04
 67        -4.4437124742e-05
 68        -4.4121651702e-05
 69         1.6706546885e-03
 70         1.6122206448e-03
 71        -6.5361149218e-02
 72        -1.9501344647e-03
 73         4.4223094974e-03
 74        -7.1210406887e-03
 75        -5.0186010504e-03
 76        -5.5363425351e-02
 77        -2.3311207818e-03
 78         4.7192314799e-03
 79         7.1820458693e-03
 80        -3.1671836817e-03
 81        -5.9531594737e-02
 82        -1.7592508563e-03
 83         3.8102863999e-03
 84        -2.2482082480e-05
 85         8.4458042726e-03
 86        -2.1023665454e-02
 87        -1.5367790496e-04
 88        -1.8479035483e-04
 89        -3.7248010274e-03
 90        -2.8890678120e-04
 91        -8.6143143146e-02
 92        -3.5051896866e-03
 93        -1.4519410852e-02
 94        -2.3071562101e-03
 95         1.2103401945e-03
 96        -9.2891016107e-02
 97        -1.1704259182e-02
 98        -6.3335515919e-03
 99         1.3232226033e-02
100        -2.6047165784e-03
 Sym= A
 Ene=        -7.1057640911e-01
 Spin= Alpha
 Occup=         2.0000000000e+00
  1         1.4186471945e-02
  2        -2.8898324201e-01
  3        -1.3504971402e-01
  4         1.5827016455e-02
  5        -9.4283689134e-03
  6         7.4838538769e-03
  7        -1.1410855057e-02
  8        -4.0033165761e-03
  9        -4.1974794034e-03
 10         2.0261136138e-03
 11        -1.9567501958e-04
 12        -1.2432122665e-04
 13        -2.8332160792e-03
 14         2.2519363476e-03
 15         5.7417450504e-03
 16        -5.9400469810e-02
 17        -8.7677076978e-02
 18        -1.3172298135e-01
 19        -8.4874634777e-02
 20         1.1589335481e-02
 21        -8.4745661506e-02
 22        -4.6805947573e-03
 23         3.2672860783e-03
 24         3.8600233838e-03
 25         8.3241580990e-06
 26        -1.2090509797e-03
 27        -1.7753612053e-02
 28         4.4434322791e-03
 29        -1.3022203857e-02
 30         2.1725808162e-01
 31         1.6500272404e-01
 32        -1.0755272460e-02
 33        -6.4067108055e-02
 34        -5.4941311476e-03
 35         3.4004304337e-02
 36        -3.8001444390e-02
 37        -2.4723015637e-03
 38        -4.1795517803e-03
 39        -5.4830702658e-05
 40         8.4588185820e-04
 41        -9.1783524810e-03
 42        -6.9135920522e-03
 43        -2.7924652415e-03
 44         1.5982515199e-01
 45         7.1544098383e-02
 46        -1.1015162105e-01
 47         6.7227900496e-02
 48         1.8715283245e-03
 49        -3.7992964347e-02
 50         7.1471711476e-03
 51        -6.2530852493e-04