[Molden Format]
[Atoms] (AU)
C    1    6           1.9472877142         2.6097175828        -0.1764997820
C    2    6          -0.8665687217         2.4074356669        -0.1487414438
C    3    6          -2.0986884481         0.2031780260         0.1906799379
C    4    6          -0.8483930146        -2.2921297903         0.0702809133
O    5    8           1.4196941513        -2.7089550910         0.0960483684
H    6    1           2.7358086701         1.0026597525        -1.2222433795
H    7    1           2.6699265624         4.3595131925        -0.9898842803
H    8    1           2.6390448848         2.4144089642         1.7679595584
H    9    1          -2.1821243352        -3.9048844078        -0.1976114810
H   10    1          -4.1727756307         0.1303561070         0.3188002323
H   11    1          -1.9989983841         4.1254360866        -0.4360025483
[GTO]
  1 0
 s    8  1.00
     6665.0000000000         0.0006920000
     1000.0000000000         0.0053290000
      228.0000000000         0.0270770000
       64.7100000000         0.1017180000
       21.0600000000         0.2747400000
        7.4950000000         0.4485640000
        2.7970000000         0.2850740000
        0.5215000000         0.0152040000
 s    8  1.00
     6665.0000000000        -0.0001460000
     1000.0000000000        -0.0011540000
      228.0000000000        -0.0057250000
       64.7100000000        -0.0233120000
       21.0600000000        -0.0639550000
        7.4950000000        -0.1499810000
        2.7970000000        -0.1272620000
        0.5215000000         0.5445290000
 s    1  1.00
        0.1596000000         1.0000000000
 p    3  1.00
        9.4390000000         0.0381090000
        2.0020000000         0.2094800000
        0.5456000000         0.5085570000
 p    1  1.00
        0.1517000000         1.0000000000
 d    1  1.00
        0.5500000000         1.0000000000

  2 0
 s    8  1.00
     6665.0000000000         0.0006920000
     1000.0000000000         0.0053290000
      228.0000000000         0.0270770000
       64.7100000000         0.1017180000
       21.0600000000         0.2747400000
        7.4950000000         0.4485640000
        2.7970000000         0.2850740000
        0.5215000000         0.0152040000
 s    8  1.00
     6665.0000000000        -0.0001460000
     1000.0000000000        -0.0011540000
      228.0000000000        -0.0057250000
       64.7100000000        -0.0233120000
       21.0600000000        -0.0639550000
        7.4950000000        -0.1499810000
        2.7970000000        -0.1272620000
        0.5215000000         0.5445290000
 s    1  1.00
        0.1596000000         1.0000000000
 p    3  1.00
        9.4390000000         0.0381090000
        2.0020000000         0.2094800000
        0.5456000000         0.5085570000
 p    1  1.00
        0.1517000000         1.0000000000
 d    1  1.00
        0.5500000000         1.0000000000

  3 0
 s    8  1.00
     6665.0000000000         0.0006920000
     1000.0000000000         0.0053290000
      228.0000000000         0.0270770000
       64.7100000000         0.1017180000
       21.0600000000         0.2747400000
        7.4950000000         0.4485640000
        2.7970000000         0.2850740000
        0.5215000000         0.0152040000
 s    8  1.00
     6665.0000000000        -0.0001460000
     1000.0000000000        -0.0011540000
      228.0000000000        -0.0057250000
       64.7100000000        -0.0233120000
       21.0600000000        -0.0639550000
        7.4950000000        -0.1499810000
        2.7970000000        -0.1272620000
        0.5215000000         0.5445290000
 s    1  1.00
        0.1596000000         1.0000000000
 p    3  1.00
        9.4390000000         0.0381090000
        2.0020000000         0.2094800000
        0.5456000000         0.5085570000
 p    1  1.00
        0.1517000000         1.0000000000
 d    1  1.00
        0.5500000000         1.0000000000

  4 0
 s    8  1.00
     6665.0000000000         0.0006920000
     1000.0000000000         0.0053290000
      228.0000000000         0.0270770000
       64.7100000000         0.1017180000
       21.0600000000         0.2747400000
        7.4950000000         0.4485640000
        2.7970000000         0.2850740000
        0.5215000000         0.0152040000
 s    8  1.00
     6665.0000000000        -0.0001460000
     1000.0000000000        -0.0011540000
      228.0000000000        -0.0057250000
       64.7100000000        -0.0233120000
       21.0600000000        -0.0639550000
        7.4950000000        -0.1499810000
        2.7970000000        -0.1272620000
        0.5215000000         0.5445290000
 s    1  1.00
        0.1596000000         1.0000000000
 p    3  1.00
        9.4390000000         0.0381090000
        2.0020000000         0.2094800000
        0.5456000000         0.5085570000
 p    1  1.00
        0.1517000000         1.0000000000
 d    1  1.00
        0.5500000000         1.0000000000

  5 0
 s    8  1.00
    11720.0000000000         0.0007100000
     1759.0000000000         0.0054700000
      400.8000000000         0.0278370000
      113.7000000000         0.1048000000
       37.0300000000         0.2830620000
       13.2700000000         0.4487190000
        5.0250000000         0.2709520000
        1.0130000000         0.0154580000
 s    8  1.00
    11720.0000000000        -0.0001600000
     1759.0000000000        -0.0012630000
      400.8000000000        -0.0062670000
      113.7000000000        -0.0257160000
       37.0300000000        -0.0709240000
       13.2700000000        -0.1654110000
        5.0250000000        -0.1169550000
        1.0130000000         0.5573680000
 s    1  1.00
        0.3023000000         1.0000000000
 p    3  1.00
       17.7000000000         0.0430180000
        3.8540000000         0.2289130000
        1.0460000000         0.5087280000
 p    1  1.00
        0.2753000000         1.0000000000
 d    1  1.00
        1.1850000000         1.0000000000

  6 0
 s    3  1.00
       13.0100000000         0.0196850000
        1.9620000000         0.1379770000
        0.4446000000         0.4781480000
 s    1  1.00
        0.1220000000         1.0000000000
 p    1  1.00
        0.7270000000         1.0000000000

  7 0
 s    3  1.00
       13.0100000000         0.0196850000
        1.9620000000         0.1379770000
        0.4446000000         0.4781480000
 s    1  1.00
        0.1220000000         1.0000000000
 p    1  1.00
        0.7270000000         1.0000000000

  8 0
 s    3  1.00
       13.0100000000         0.0196850000
        1.9620000000         0.1379770000
        0.4446000000         0.4781480000
 s    1  1.00
        0.1220000000         1.0000000000
 p    1  1.00
        0.7270000000         1.0000000000

  9 0
 s    3  1.00
       13.0100000000         0.0196850000
        1.9620000000         0.1379770000
        0.4446000000         0.4781480000
 s    1  1.00
        0.1220000000         1.0000000000
 p    1  1.00
        0.7270000000         1.0000000000

  10 0
 s    3  1.00
       13.0100000000         0.0196850000
        1.9620000000         0.1379770000
        0.4446000000         0.4781480000
 s    1  1.00
        0.1220000000         1.0000000000
 p    1  1.00
        0.7270000000         1.0000000000

  11 0
 s    3  1.00
       13.0100000000         0.0196850000
        1.9620000000         0.1379770000
        0.4446000000         0.4781480000
 s    1  1.00
        0.1220000000         1.0000000000
 p    1  1.00
        0.7270000000         1.0000000000

[5D7F]
[9G]

[MO]
 Sym= A
 Ene=        -1.9134965793e+01
 Spin= Alpha
 Occup=         2.0000000000e+00
  1        -7.4481457249e-05
  2        -1.5406949174e-04
  3         7.9336494462e-05
  4         6.4702024930e-05
  5         4.6426429051e-05
  6         1.1760206348e-05
  7        -4.7915833377e-05
  8        -1.7930891703e-04
  9         1.5324590286e-04
 10         7.5509746622e-05
 11         3.7810303312e-05
 12         3.4381302455e-05
 13         7.1712634358e-05
 14        -9.4701957284e-05
 15        -1.9931445827e-04
 16        -3.5490352421e-04
 17         5.2855522188e-03
 18        -2.3027040219e-05
 19        -2.2749659054e-05
 20        -6.4534763294e-05
 21        -9.1042353599e-04
 22        -2.1447121003e-03
 23         5.3795366686e-04
 24        -3.0679718161e-05
 25         4.0113078993e-05
 26        -2.4890862747e-05
 27        -5.1285461350e-05
 28        -5.5141954700e-05
 29         2.0757685414e-04
 30         3.2178931183e-04
 31        -3.7338449220e-03
 32         3.1003833607e-05
 33         2.7015904404e-04
 34        -7.0319101548e-06
 35        -4.3991957829e-03
 36        -3.5857362463e-03
 37         3.1541462150e-04
 38         1.2590026181e-04
 39         6.1916147033e-05
 40         9.4032720353e-05
 41        -4.0267979478e-04
 42         4.8395809758e-04
 43         4.5609123880e-04
 44         5.9802053478e-04
 45         5.2540083598e-03
 46        -9.5865926906e-05
 47        -1.8595150199e-04
 48        -3.5525730145e-05
 49         6.5624042210e-03
 50         4.1310500821e-04
 51         6.8534841105e-05
 52        -5.1878015499e-06
 53         2.6804802327e-05
 54         1.0112817100e-04
 55        -1.1457621348e-03
 56         5.2589295399e-04
 57         1.0041631716e+00
 58         9.4597508037e-03
 59        -1.5051115375e-02
 60        -1.8356672374e-03
 61         3.6905381610e-04
 62        -3.7709170116e-05
 63         3.4974609028e-03
 64        -8.4238391688e-04
 65         5.6969909081e-05
 66        -1.7927097418e-05
 67         5.3375802281e-07
 68        -4.3915402781e-06
 69         6.7289859768e-05
 70         6.7886412065e-06
 71        -1.2036864761e-04
 72        -1.4040934238e-04
 73         3.8322234166e-05
 74        -1.6489661992e-05
 75         2.8630637918e-05
 76         1.2234645671e-04
 77         3.6827956268e-04
 78        -7.3431915681e-05
 79        -6.3113354269e-05
 80         4.7215201656e-05
 81        -1.1206713138e-04
 82        -2.3954537816e-04
 83         6.7359629512e-05
 84         6.4854535944e-05
 85         5.8887699462e-05
 86        -1.8811068963e-04
 87         8.5303025451e-04
 88        -7.6241418674e-04
 89         1.0461559392e-04
 90         3.0113132790e-06
 91        -2.9605643955e-04
 92        -1.2787544968e-03
 93         1.7619993666e-04
 94         2.4287741217e-04
 95        -3.1424418054e-06
 96        -1.8085226198e-04
 97         2.1953240571e-04
 98         3.7714636900e-05
 99         8.0517202710e-05
100        -3.1693530009e-05
 Sym= A
 Ene=        -1.0272740904e+01
 Spin= Alpha
 Occup=         2.0000000000e+00
  1        -3.7441126143e-04
  2        -5.0222397472e-04
  3         9.0175501448e-04
  4         2.8538313878e-04
  5         7.2772080255e-05
  6         8.3723936703e-09
  7        -6.6434129313e-04
  8         1.5678464356e-05
  9         1.1784047489e-05
 10        -2.4440609763e-05
 11        -8.1762917063e-05
 12         5.3331140706e-07
 13        -1.1292414118e-04
 14        -2.5094499344e-05
 15        -4.2878284576e-04
 16        -6.2592804711e-04
 17         6.3563802055e-03
 18        -2.7301799988e-04
 19        -2.4805201871e-05
 20         5.5635573354e-05
 21        -2.0846937791e-03
 22        -3.7148420808e-03
 23         6.5241736378e-04
 24        -3.8483496812e-04
 25        -2.1112919363e-04
 26        -1.0007177442e-04
 27         2.8827594158e-04
 28         3.5572902500e-04
 29         1.6020935356e-03
 30        -2.4559408745e-04
 31        -1.8240663920e-03
 32        -3.4700867846e-04
 33         7.4955003719e-04
 34         5.7246447526e-05
 35        -2.5184615575e-03
 36        -5.9031381583e-03
 37         4.2309234835e-04
 38         1.0258594169e-03
 39         1.6015368791e-05
 40        -3.5191873493e-05
 41         1.1231537300e-03
 42         8.6563622605e-04
 43         1.0059346255e+00
 44         1.5267856061e-02
 45        -1.0717904533e-02
 46         7.3017199424e-04
 47        -5.1657674471e-04
 48        -1.2609841620e-04
 49         5.3547481907e-03
 50        -2.1052885336e-03
 51        -4.0851295237e-05
 52        -1.6230419746e-03
 53         1.9747257561e-04
 54         2.2797429712e-04
 55         8.3458862027e-04
 56        -1.7733514392e-05
 57         3.6318714391e-04
 58         9.0286321989e-04
 59        -5.8940568689e-03
 60         7.4186177247e-04
 61        -2.1141441893e-04
 62        -6.6553588843e-06
 63         3.3871019915e-03
 64        -2.2307864982e-04
 65         6.2848586276e-05
 66         5.6673463488e-04
 67        -1.0585478635e-05
 68        -2.4565809815e-05
 69        -7.2279124957e-04
 70         2.5799915646e-04
 71        -1.1808888058e-04
 72        -5.5356745233e-05
 73         2.2035202448e-05
 74         3.9733672673e-07
 75        -8.6567445537e-06
 76        -5.0589920588e-05
 77         3.7813794638e-04
 78        -5.0091459846e-05
 79        -2.2389201135e-05
 80         1.0341122719e-05
 81        -6.4429522342e-05
 82         1.0427814670e-05
 83         1.0897120499e-04
 84         5.4610337846e-05
 85        -5.2860678804e-05
 86        -1.6995953970e-03
 87         2.4592936270e-03
 88        -1.4290417208e-03
 89        -1.4480199644e-03
 90        -2.4877716314e-04
 91        -5.5720612402e-04
 92        -4.8284923695e-04
 93         2.9689262473e-05
 94         2.5909266688e-04
 95        -3.2187064357e-05
 96        -2.3242875700e-05
 97         5.9304250392e-04
 98         2.2440094905e-04
 99         9.8896039004e-05
100        -3.5668393719e-05
 Sym= A
 Ene=        -1.0223312576e+01
 Spin= Alpha
 Occup=         2.0000000000e+00
  1         2.9787117985e-03
  2        -3.8636317988e-04
  3         4.3649889701e-03
  4         7.1917346597e-04
  5         3.2926677677e-05
  6         6.1396191682e-05
  7        -2.4784999237e-03
  8        -7.4701868342e-04
  9        -3.3117831448e-04
 10         8.0822910988e-04
 11         5.6181094238e-05
 12         3.5387139453e-05
 13        -9.6691744179e-04
 14        -5.7727173286e-05
 15         1.0063453783e+00
 16         1.6195313359e-02
 17        -2.0408678131e-02
 18        -5.0317582539e-04
 19         1.5182319375e-04
 20        -2.8290957168e-05
 21        -2.3235895416e-03
 22         3.9877241388e-03
 23        -5.7917731316e-04
 24        -1.0214886420e-03
 25         1.4236329459e-04
 26        -3.8530245748e-04
 27        -5.5284728635e-04
 28        -4.4918772426e-04
 29         1.3412626783e-02
 30        -1.2173610241e-03
 31         4.8942094616e-03
 32        -7.1621037179e-04
 33        -1.0852564701e-03
 34         1.7464561703e-04
 35         2.7298784698e-03
 36         2.7617654959e-03
 37        -2.9228668318e-04
 38         8.6908510632e-04
 39         1.4328243627e-04
 40         3.2463796056e-04
 41         4.9407290853e-04
 42        -9.6272421736e-04
 43        -2.7994858488e-04
 44        -5.6331981621e-04
 45         1.2040286954e-03
 46        -1.3550850950e-05
 47        -2.0835999317e-04
 48         4.2027374324e-05
 49        -5.2170661195e-04
 50         1.0708749852e-03
 51        -7.3207785670e-05
 52        -3.1885594089e-04
 53        -1.1124831931e-04
 54        -1.2047713114e-05
 55         1.5563536063e-04
 56         8.9656356922e-06
 57        -3.2556693666e-05
 58        -6.8438947938e-05
 59        -8.5726302342e-05
 60         1.1906146971e-04
 61         1.9342689717e-05
 62         1.4270830358e-05
 63        -1.3877834976e-04
 64        -3.6300781127e-04
 65         4.1307032317e-05
 66         1.2438714362e-05
 67        -2.7627677478e-05
 68         4.0265843099e-06
 69         8.1180241751e-06
 70         2.8326395248e-05
 71        -4.2547267044e-04
 72         5.1061284843e-04
 73        -1.4585212496e-04
 74        -1.5649893542e-05
 75         6.4367232671e-05
 76        -2.6466040643e-04
 77         1.8716932562e-04
 78         1.5474207370e-04
 79         8.2116412412e-06
 80         8.8803066749e-05
 81        -4.7229237225e-04
 82         1.1653211845e-03
 83        -1.8999538585e-04
 84         3.9853482040e-07
 85         2.2542682065e-05
 86        -9.9684190540e-05
 87         3.1117407985e-04
 88         4.5760877733e-05
 89        -7.7465877786e-05
 90        -1.6649050689e-05
 91         1.8691662735e-04
 92         9.4490815219e-04
 93         1.6677341499e-04
 94        -2.6676735954e-04
 95         6.6077072594e-07
 96        -2.4569752149e-03
 97         1.0587153475e-03
 98        -1.2472535378e-03
 99         1.7922622829e-03
100        -3.0089378797e-04
 Sym= A
 Ene=        -1.0198067656e+01
 Spin= Alpha
 Occup=         2.0000000000e+00
  1         9.9044485087e-04
  2         4.9875799546e-04
  3        -3.0870059860e-04
  4        -1.0967087749e-04
  5        -1.4267324026e-04
  6         1.0726539566e-04
  7         9.5678532051e-04
  8         1.2893864412e-04
  9        -3.4996824880e-04
 10         3.0099093394e-04
 11         1.2379576439e-05
 12         8.0060739973e-05
 13        -4.3604596335e-05
 14         8.9503646003e-05
 15         1.4883575117e-02
 16         1.7637059242e-03
 17        -6.1291235579e-03
 18        -5.9855211753e-04
 19        -1.2298240726e-03
 20         1.9636167985e-04
 21         7.5955262903e-04
 22         3.6588343914e-03
 23        -1.7420846624e-04
 24        -9.0479099683e-04
 25        -2.0591543378e-04
 26        -3.6651062068e-04
 27        -6.2556876049e-04
 28         8.9501754264e-04
 29        -1.0064689380e+00
 30        -1.6532683181e-02
 31         2.1141246305e-02
 32         2.9071347363e-04
 33        -2.5253793222e-04
 34         2.0033725425e-04
 35         5.2414590313e-03
 36         2.7295454499e-04
 37        -1.0576025871e-03
 38         1.0820004548e-03
 39         1.7637573485e-04
 40         1.2512810450e-04
 41        -4.3010385907e-04
 42        -5.7860185645e-04
 43         1.9012014804e-03
 44         7.5114516577e-04
 45        -5.6637207693e-03
 46        -2.4941539336e-04
 47         6.7936608585e-04
 48         6.2553718222e-05
 49        -2.8005127169e-04
 50        -3.4643892712e-03
 51         4.5769169961e-05
 52        -6.8866871872e-04
 53        -1.8791770486e-04
 54         9.7406440349e-05
 55        -5.3422990967e-04
 56        -1.2246536194e-03
 57        -4.0500978085e-05
 58        -7.0995872390e-05
 59         7.0546777145e-04
 60        -8.4914096611e-06
 61         5.9273356573e-05
 62         4.3365557818e-05
 63         1.4599752206e-04
 64         6.6366114783e-04
 65        -5.1845481137e-05
 66         1.2627365511e-04
 67        -4.2674956034e-05
 68        -1.0496128787e-05
 69        -9.1596757715e-05
 70        -2.2459610570e-04
 71         1.0826582414e-04
 72        -3.3295350117e-04
 73        -1.9088790291e-05
 74        -9.9245588746e-05
 75         4.6667454230e-05
 76        -4.1711909999e-05
 77        -3.9947406112e-04
 78        -4.7167426025e-05
 79         4.7383276060e-05
 80         3.4490573732e-05
 81         1.0162507713e-04
 82        -1.9998444769e-04
 83        -4.0724598813e-05
 84        -8.4535769665e-05
 85         1.3619238850e-04
 86         3.0686715407e-04
 87        -9.6608200380e-04
 88        -6.9863609385e-05
 89         2.0349228477e-04
 90        -3.3914857742e-05
 91         2.4352987904e-03
 92        -8.2300795570e-04
 93         2.1743009443e-03
 94        -7.4000678047e-05
 95        -5.1457964648e-05
 96        -1.0932251207e-04
 97        -8.1219967094e-04
 98        -2.9795938877e-04
 99         4.3382899909e-05
100        -5.5270818590e-05
 Sym= A
 Ene=        -1.0187168746e+01
 Spin= Alpha
 Occup=         2.0000000000e+00
  1         1.0071005801e+00
  2         1.7674546376e-02
  3        -1.9275185767e-02
  4         4.3723410515e-04
  5         2.0885602450e-05
  6         1.3482662268e-04
  7         2.8515766334e-03
  8         4.6035530119e-04
  9        -3.5737873367e-04
 10         3.0014824705e-04
 11        -5.6118187714e-05
 12        -1.6347746085e-04
 13        -5.9266694912e-04
 14         1.3761851926e-04
 15        -3.1374816085e-03
 16        -2.2781082002e-04
 17         1.3444274997e-03
 18        -4.9136448109e-04
 19         4.7127449604e-05
 20        -9.2303626836e-06
 21         4.0490385730e-03
 22         2.5025660697e-03
 23        -3.6561865611e-04
 24         6.4732614330e-04
 25         6.3545431656e-05
 26        -1.9767670680e-05
 27        -1.3381578447e-03
 28        -3.5154410355e-04
 29         2.7163403950e-04
 30        -7.0809030553e-04
 31         3.8961653692e-03
 32        -2.5264712632e-04
 33         2.7984933308e-05
 34        -6.4974578772e-06
 35         1.3769679725e-03
 36         2.6321684158e-03
 37        -4.0767870505e-04
 38        -3.7772234801e-04
 39         2.8951601464e-05
 40        -1.2248031210e-04
 41        -3.7975374399e-04
 42        -2.0755304978e-04
 43        -1.3202434097e-04
 44        -5.1019078613e-04
 45         3.0735611037e-04
 46        -7.8403475931e-05
 47        -2.7011236270e-04
 48        -4.4963364658e-05
 49        -2.2270500262e-04
 50         4.7110721374e-04
 51         1.4556781098e-04
 52        -4.6382349088e-05
 53        -2.9311575773e-05
 54        -3.6064164897e-05
 55         3.6868942603e-05
 56         4.9842954700e-05
 57        -1.0704915157e-04
 58        -2.0759845753e-04
 59         3.6553271617e-04
 60         3.2962120370e-05
 61        -1.1274139569e-04
 62        -2.4190834411e-05
 63        -2.5431206261e-04
 64         2.4711371035e-04
 65         6.8935930851e-05
 66        -5.6722566472e-05
 67         3.9573272839e-07
 68         7.8776046353e-06
 69         8.4625475913e-07
 70        -1.6647704132e-06
 71        -1.0890805235e-03
 72         2.1431095310e-03
 73         5.7446825649e-04
 74        -1.4896821530e-03
 75        -9.4732253551e-04
 76        -1.5735549176e-03
 77         1.7765138111e-03
 78         6.4225830997e-04
 79         1.8075923639e-03
 80        -8.2048100756e-04
 81        -1.1718278733e-03
 82         2.3720695688e-03
 83         4.9918600650e-04
 84        -2.2503050165e-04
 85         1.8718755793e-03
 86         2.0754187790e-05
 87         3.8439008456e-04
 88         1.3617752997e-05
 89         5.9186553296e-05
 90        -1.7488369784e-05
 91         3.2275097820e-05
 92         5.4407839911e-04
 93         5.0771490622e-05
 94        -1.8996712278e-04
 95         3.1154978391e-05
 96        -3.8384966549e-04
 97         6.7800904203e-05
 98        -3.9961655271e-04
 99        -1.8559662916e-04
100         2.8001846965e-05
 Sym= A
 Ene=        -1.0393017845e+00
 Spin= Alpha
 Occup=         2.0000000000e+00
  1        -4.9524241765e-04
  2         8.2841625299e-03
  3         4.8143049885e-03
  4        -3.3967491702e-03
  5        -3.9704301472e-03
  6        -1.0441188734e-04
  7        -2.4746506128e-03
  8        -1.1738845955e-03
  9         8.0518771988e-04
 10        -7.1875087719e-04
 11        -9.7871093556e-05
 12        -1.4696797804e-04
 13         8.8592953344e-05
 14         8.5840613510e-04
 15         4.7717868663e-04
 16         1.6921450934e-02
 17        -1.1688905829e-02
 18         4.9766073124e-04
 19        -1.0644731389e-02
 20         1.1869555827e-03
 21        -1.6628095025e-03
 22         9.2367425523e-03
 23        -1.3485594975e-03
 24        -4.7645354203e-04
 25        -2.2151070200e-04
 26        -4.9133601901e-04
 27        -1.4528974812e-03
 28         7.2532471213e-04
 29        -3.7126008735e-03
 30         3.5594458569e-02
 31         3.1194285342e-02
 32         2.0903043418e-02
 33        -1.9020530724e-02
 34        -1.4719078621e-03
 35         1.9481268908e-02
 36         2.2483382500e-03
 37        -2.1394658368e-03
 38        -3.6805193923e-03
 39        -6.1731776297e-04
 40         2.0409346684e-05
 41        -1.6758108229e-04
 42        -9.0032538200e-03
 43        -1.4751888110e-02
 44         2.2409321231e-01
 45         9.4930295825e-02
 46         1.8407808006e-01
 47        -2.5746358702e-02
 48         2.0696794981e-03
 49         1.2710765276e-02
 50        -1.9651287804e-03
 51         8.9489570899e-04
 52        -1.3908599993e-02
 53        -1.7172670113e-04
 54        -1.5275243929e-03
 55         3.1211291299e-02
 56        -1.3954612982e-02
 57        -9.2065541518e-03
 58         4.0215446273e-01
 59         3.6079002832e-01
 60        -1.5484631083e-01
 61         3.1903436417e-02
 62        -2.3733357165e-03
 63        -3.1700808922e-02
 64         7.5790848156e-03
 65        -1.2251354366e-03
 66        -5.4004432060e-03
 67         7.7734722452e-05
 68        -7.8146536059e-04
 69         1.1990262472e-02
 70        -5.1031613201e-03
 71         7.8257014373e-03
 72         4.0179448660e-03
 73        -7.0870111819e-04
 74        -3.6993963876e-04
 75         7.2097786710e-04
 76         1.1631574916e-03
 77        -5.9273737431e-04
 78         1.0340881308e-05
 79        -5.8262249866e-05
 80        -8.0228688864e-05
 81         2.8948688274e-03
 82         6.8695228741e-04
 83        -3.3527824163e-04
 84        -3.6501037095e-04
 85        -5.6450620662e-04
 86         4.0793790548e-02
 87        -3.0864095719e-03
 88         1.0034885450e-02
 89         6.1856904746e-03
 90         1.1162752674e-03
 91         7.1899808860e-03
 92         5.9347130110e-03
 93         1.0744052159e-03
 94        -1.8278350533e-03
 95        -9.7662656847e-05
 96         1.8849077171e-03
 97        -2.9571936324e-03
 98        -1.6727664523e-04
 99        -8.4134532137e-04
100         1.5241635144e-04
 Sym= A
 Ene=        -8.1257196497e-01
 Spin= Alpha
 Occup=         2.0000000000e+00
  1         1.1703490535e-02
  2        -1.8216438667e-01
  3        -7.3526875792e-02
  4         6.7814561441e-02
  5         1.3946733836e-02
  6        -3.6311303800e-03
  7         1.6505917573e-03
  8        -8.3386559157e-03
  9         2.2860620400e-03
 10         5.9265284100e-03
 11         4.1051538590e-04
 12        -1.4865843968e-04
 13        -1.0077670513e-02
 14        -3.0728963888e-03
 15         2.0140481113e-02
 16        -2.8954968087e-01
 17        -2.0447575082e-01
 18        -6.0645450993e-03
 19         7.2495976496e-02
 20        -9.9816064697e-03
 21        -3.3751845203e-02
 22         2.5343835718e-02
 23        -4.2121630640e-03
 24         1.0005899450e-02
 25         1.3236604016e-03
 26         2.0113524711e-03
 27        -2.2268973692e-03
 28        -9.6860623765e-03
 29         1.7144757106e-02
 30        -2.5294881243e-01
 31        -1.3785205682e-01
 32        -5.9998218742e-02
 33        -5.7928144969e-02
 34         1.6854940902e-02
 35        -1.5832717707e-03
 36        -2.1659616978e-02
 37         4.1842836991e-03
 38         6.8408398487e-03
 39         1.7633910416e-03
 40         2.2736477321e-03
 41         8.7120314772e-03
 42        -8.5630765515e-03
 43         2.5971149929e-03
 44        -6.3348159524e-02
 45        -5.1196231349e-02
 46         7.1568990831e-02
 47        -8.0089137841e-02
 48         2.4101419225e-04
 49         2.2808578117e-02
 50        -2.3288544311e-02
 51        -1.6013488427e-03
 52         2.7382128164e-03
 53         3.5637794358e-04
 54        -4.2896440025e-04
 55         1.3211995617e-02
 56         3.1255703372e-03
 57        -3.8085609337e-04
 58         7.6467174219e-02
 59         7.4051065641e-02
 60        -1.2569647138e-02
 61        -1.6322566197e-02
 62         1.7101288134e-04
 63         8.8888417328e-04
 64        -7.1475059554e-03
 65         5.9784138099e-04
 66         1.5484906699e-04
 67        -4.8432125932e-06
 68         1.2723788580e-06
 69         1.7487452273e-03
 70         1.5516145819e-03
 71        -6.9309590181e-02
 72        -2.0359776550e-03
 73         4.6062852289e-03
 74        -7.9807522944e-03
 75        -5.3654145505e-03
 76        -6.0753234856e-02
 77        -1.1762086862e-03
 78         5.0527941347e-03
 79         8.1568224964e-03
 80        -3.5676516876e-03
 81        -7.0072543614e-02
 82        -3.2394003622e-03
 83         4.3913202804e-03
 84        -1.8162808523e-04
 85         9.4824324817e-03
 86        -1.8313525707e-02
 87        -3.0460237267e-04
 88         8.0802625006e-05
 89        -3.4377287492e-03
 90        -1.5729236091e-04
 91        -8.0259743624e-02
 92        -1.8753242287e-03
 93        -1.3758805956e-02
 94        -2.1032110737e-03
 95         1.1524907210e-03
 96        -9.7295280623e-02
 97        -1.3521740270e-02
 98        -6.9182719843e-03
 99         1.3501029599e-02
100        -2.1416457178e-03
 Sym= A
 Ene=        -7.1670251270e-01
 Spin= Alpha
 Occup=         2.0000000000e+00
  1         1.4917089582e-02
  2        -2.8356805030e-01
  3        -1.1969956468e-01
  4         1.7390931770e-02
  5        -8.1100541389e-03
  6        -2.0838710610e-03
  7        -1.5938277037e-02
  8        -6.7696972380e-03
  9        -6.5600968450e-04
 10         1.4533786946e-03
 11        -2.1363098877e-04
 12        -1.4236257601e-04
 13        -2.7338667252e-03
 14         2.3654468692e-03
 15         5.2091184485e-03
 16        -4.8228343187e-02
 17        -8.5565004814e-02
 18        -1.3803052899e-01
 19        -8.9082054909e-02
 20         1.0525292150e-02
 21        -8.8577543399e-02
 22        -6.4729020419e-03
 23         1.5923678209e-03
 24         3.8046223261e-03
 25        -5.2856726919e-04
 26        -1.2259639354e-03
 27        -1.7952051589e-02
 28         4.4936645757e-03
 29        -1.3694729673e-02
 30         2.2837612921e-01
 31         1.6751183437e-01
 32        -5.9964442633e-03
 33        -5.9840086591e-02
 34        -6.3786816200e-03
 35         3.3598810605e-02
 36        -3.4778904443e-02
 37        -1.9064168457e-03
 38        -4.3952340246e-03
 39        -1.5004017171e-04
 40         5.5214771634e-04
 41        -9.8431862433e-03
 42        -6.0576604134e-03
 43        -3.2625439548e-03
 44         1.5825924989e-01
 45         7.1729103805e-02
 46        -1.1035076536e-01
 47         7.4342779263e-02
 48         1.2623463556e-03
 49        -3.8983650709e-02
 50         9.6653051763e-03
 51        -1.1681740966e-03