[Molden Format]
[Atoms] (AU)
C    1    6           1.6444314363         3.0044891889         0.3031593068
C    2    6          -0.7904247215         2.4109916541        -0.1664894895
C    3    6          -2.0456183818        -0.0127428041         0.2917689448
C    4    6          -0.8902958024        -2.2817649875         0.1021428838
O    5    8           1.5791094434        -2.6754134399        -0.4101181972
H    6    1           2.3562075718        -1.0300305654        -0.6945486053
H    7    1           2.4311302427         4.8262324737        -0.2698319783
H    8    1           2.9024881829         1.7429539290         1.3572461018
H    9    1          -1.9188994706        -4.0717044273         0.2611075526
H   10    1          -4.0795536842        -0.0183873782         0.6284746955
H   11    1          -1.9640700666         3.8507973083        -1.0911191223
[GTO]
  1 0
 s    8  1.00
     6665.0000000000         0.0006920000
     1000.0000000000         0.0053290000
      228.0000000000         0.0270770000
       64.7100000000         0.1017180000
       21.0600000000         0.2747400000
        7.4950000000         0.4485640000
        2.7970000000         0.2850740000
        0.5215000000         0.0152040000
 s    8  1.00
     6665.0000000000        -0.0001460000
     1000.0000000000        -0.0011540000
      228.0000000000        -0.0057250000
       64.7100000000        -0.0233120000
       21.0600000000        -0.0639550000
        7.4950000000        -0.1499810000
        2.7970000000        -0.1272620000
        0.5215000000         0.5445290000
 s    1  1.00
        0.1596000000         1.0000000000
 p    3  1.00
        9.4390000000         0.0381090000
        2.0020000000         0.2094800000
        0.5456000000         0.5085570000
 p    1  1.00
        0.1517000000         1.0000000000
 d    1  1.00
        0.5500000000         1.0000000000

  2 0
 s    8  1.00
     6665.0000000000         0.0006920000
     1000.0000000000         0.0053290000
      228.0000000000         0.0270770000
       64.7100000000         0.1017180000
       21.0600000000         0.2747400000
        7.4950000000         0.4485640000
        2.7970000000         0.2850740000
        0.5215000000         0.0152040000
 s    8  1.00
     6665.0000000000        -0.0001460000
     1000.0000000000        -0.0011540000
      228.0000000000        -0.0057250000
       64.7100000000        -0.0233120000
       21.0600000000        -0.0639550000
        7.4950000000        -0.1499810000
        2.7970000000        -0.1272620000
        0.5215000000         0.5445290000
 s    1  1.00
        0.1596000000         1.0000000000
 p    3  1.00
        9.4390000000         0.0381090000
        2.0020000000         0.2094800000
        0.5456000000         0.5085570000
 p    1  1.00
        0.1517000000         1.0000000000
 d    1  1.00
        0.5500000000         1.0000000000

  3 0
 s    8  1.00
     6665.0000000000         0.0006920000
     1000.0000000000         0.0053290000
      228.0000000000         0.0270770000
       64.7100000000         0.1017180000
       21.0600000000         0.2747400000
        7.4950000000         0.4485640000
        2.7970000000         0.2850740000
        0.5215000000         0.0152040000
 s    8  1.00
     6665.0000000000        -0.0001460000
     1000.0000000000        -0.0011540000
      228.0000000000        -0.0057250000
       64.7100000000        -0.0233120000
       21.0600000000        -0.0639550000
        7.4950000000        -0.1499810000
        2.7970000000        -0.1272620000
        0.5215000000         0.5445290000
 s    1  1.00
        0.1596000000         1.0000000000
 p    3  1.00
        9.4390000000         0.0381090000
        2.0020000000         0.2094800000
        0.5456000000         0.5085570000
 p    1  1.00
        0.1517000000         1.0000000000
 d    1  1.00
        0.5500000000         1.0000000000

  4 0
 s    8  1.00
     6665.0000000000         0.0006920000
     1000.0000000000         0.0053290000
      228.0000000000         0.0270770000
       64.7100000000         0.1017180000
       21.0600000000         0.2747400000
        7.4950000000         0.4485640000
        2.7970000000         0.2850740000
        0.5215000000         0.0152040000
 s    8  1.00
     6665.0000000000        -0.0001460000
     1000.0000000000        -0.0011540000
      228.0000000000        -0.0057250000
       64.7100000000        -0.0233120000
       21.0600000000        -0.0639550000
        7.4950000000        -0.1499810000
        2.7970000000        -0.1272620000
        0.5215000000         0.5445290000
 s    1  1.00
        0.1596000000         1.0000000000
 p    3  1.00
        9.4390000000         0.0381090000
        2.0020000000         0.2094800000
        0.5456000000         0.5085570000
 p    1  1.00
        0.1517000000         1.0000000000
 d    1  1.00
        0.5500000000         1.0000000000

  5 0
 s    8  1.00
    11720.0000000000         0.0007100000
     1759.0000000000         0.0054700000
      400.8000000000         0.0278370000
      113.7000000000         0.1048000000
       37.0300000000         0.2830620000
       13.2700000000         0.4487190000
        5.0250000000         0.2709520000
        1.0130000000         0.0154580000
 s    8  1.00
    11720.0000000000        -0.0001600000
     1759.0000000000        -0.0012630000
      400.8000000000        -0.0062670000
      113.7000000000        -0.0257160000
       37.0300000000        -0.0709240000
       13.2700000000        -0.1654110000
        5.0250000000        -0.1169550000
        1.0130000000         0.5573680000
 s    1  1.00
        0.3023000000         1.0000000000
 p    3  1.00
       17.7000000000         0.0430180000
        3.8540000000         0.2289130000
        1.0460000000         0.5087280000
 p    1  1.00
        0.2753000000         1.0000000000
 d    1  1.00
        1.1850000000         1.0000000000

  6 0
 s    3  1.00
       13.0100000000         0.0196850000
        1.9620000000         0.1379770000
        0.4446000000         0.4781480000
 s    1  1.00
        0.1220000000         1.0000000000
 p    1  1.00
        0.7270000000         1.0000000000

  7 0
 s    3  1.00
       13.0100000000         0.0196850000
        1.9620000000         0.1379770000
        0.4446000000         0.4781480000
 s    1  1.00
        0.1220000000         1.0000000000
 p    1  1.00
        0.7270000000         1.0000000000

  8 0
 s    3  1.00
       13.0100000000         0.0196850000
        1.9620000000         0.1379770000
        0.4446000000         0.4781480000
 s    1  1.00
        0.1220000000         1.0000000000
 p    1  1.00
        0.7270000000         1.0000000000

  9 0
 s    3  1.00
       13.0100000000         0.0196850000
        1.9620000000         0.1379770000
        0.4446000000         0.4781480000
 s    1  1.00
        0.1220000000         1.0000000000
 p    1  1.00
        0.7270000000         1.0000000000

  10 0
 s    3  1.00
       13.0100000000         0.0196850000
        1.9620000000         0.1379770000
        0.4446000000         0.4781480000
 s    1  1.00
        0.1220000000         1.0000000000
 p    1  1.00
        0.7270000000         1.0000000000

  11 0
 s    3  1.00
       13.0100000000         0.0196850000
        1.9620000000         0.1379770000
        0.4446000000         0.4781480000
 s    1  1.00
        0.1220000000         1.0000000000
 p    1  1.00
        0.7270000000         1.0000000000

[5D7F]
[9G]

[MO]
 Sym= A
 Ene=        -1.9174213236e+01
 Spin= Alpha
 Occup=         2.0000000000e+00
  1        -8.0522406195e-05
  2        -1.3854737821e-04
  3         1.2385190960e-03
  4        -1.0355571897e-04
  5         7.5793691950e-05
  6         2.3130186286e-05
  7        -2.5598519766e-04
  8        -1.3627184954e-03
  9         1.5791761365e-04
 10        -7.0849619046e-05
 11         1.3291158457e-05
 12         4.1587897316e-05
 13        -5.0247977868e-05
 14         7.7138885243e-05
 15         2.1426067999e-04
 16         3.6920539287e-04
 17        -5.6036467430e-03
 18        -5.3491470065e-06
 19         4.5776346259e-06
 20         6.5329955206e-05
 21         2.1454715427e-04
 22         2.9722768750e-03
 23        -8.9744202142e-04
 24         6.8913411191e-05
 25        -1.2629240491e-04
 26         1.0331811324e-04
 27        -6.6614059797e-06
 28         2.0699475201e-05
 29        -1.9057252170e-04
 30        -2.7721865238e-04
 31         4.8084353537e-03
 32         5.4470968529e-05
 33        -2.6846864607e-04
 34         7.3618314633e-06
 35         4.6644629800e-03
 36         3.1198391291e-03
 37        -1.0684154112e-03
 38        -1.5899279484e-04
 39        -1.4056587743e-04
 40         6.7362367319e-05
 41         3.8939793127e-04
 42        -3.9656355367e-04
 43        -1.9512945550e-04
 44        -3.5488880436e-04
 45        -5.7216547539e-03
 46        -3.2796505429e-04
 47         2.1522899728e-04
 48         1.0051959728e-04
 49        -5.8533608230e-03
 50        -1.4989981780e-03
 51         1.2044833131e-03
 52         4.0398524461e-04
 53         3.6129961918e-06
 54         7.0000652285e-05
 55         7.1335285315e-04
 56        -4.0096512443e-04
 57        -1.0040850101e+00
 58        -9.3631949546e-03
 59         1.4043712810e-02
 60         8.8864358835e-04
 61        -1.4558092392e-03
 62        -6.6176996301e-05
 63        -3.2322229353e-03
 64         1.4078484263e-03
 65         6.1349259985e-04
 66         2.4393843876e-05
 67         1.3171227769e-06
 68         8.3216402069e-05
 69         1.5047430201e-04
 70        -2.6694017387e-04
 71        -2.4346424118e-04
 72        -3.4262045979e-04
 73        -2.3246240396e-04
 74        -9.9360291449e-04
 75         5.6026992034e-05
 76         5.5413586718e-05
 77         3.0175578086e-04
 78         3.7633852762e-05
 79         6.2853649008e-05
 80         7.9825300809e-06
 81        -2.3519873747e-04
 82        -1.9285152857e-04
 83         2.9750340203e-06
 84        -2.7765928180e-05
 85        -1.5667214323e-05
 86         4.0251960113e-04
 87        -8.9857894206e-04
 88         6.3286220384e-04
 89         1.4788306151e-04
 90        -1.2546082728e-04
 91         1.6677170343e-04
 92         1.2575878449e-03
 93        -2.2637793466e-04
 94        -2.0823367405e-04
 95         6.2992786515e-05
 96         8.8607234344e-05
 97        -6.1663327521e-04
 98        -3.4775261209e-05
 99        -1.0833058287e-04
100         2.8161858998e-05
 Sym= A
 Ene=        -1.0250705888e+01
 Spin= Alpha
 Occup=         2.0000000000e+00
  1        -2.7952381397e-04
  2        -3.4242690417e-04
  3         1.1116126946e-03
  4         1.4530993347e-04
  5         7.9119499917e-05
  6         7.2526780892e-05
  7        -1.2714640918e-03
  8         5.0128931491e-04
  9        -6.3758828731e-04
 10        -7.4685159411e-05
 11        -1.5516362106e-05
 12        -2.8119786987e-05
 13         5.4655966374e-05
 14        -3.8607070615e-05
 15        -4.9563653785e-04
 16        -7.0817691214e-04
 17         4.8552451039e-03
 18        -1.1637325419e-04
 19         1.4115062327e-05
 20         1.8082960939e-06
 21        -2.3981241638e-03
 22        -4.1434466993e-03
 23         7.5587971984e-04
 24        -3.5256814314e-04
 25        -9.4844414488e-05
 26        -1.0297856123e-04
 27         5.3215818551e-06
 28         1.8499256485e-04
 29         4.6044913039e-03
 30        -1.0158809936e-03
 31         1.6266023937e-04
 32        -5.7732544062e-04
 33         1.3569492892e-03
 34         9.5337110159e-05
 35        -1.9434608090e-03
 36        -6.4756879203e-03
 37         7.5886836360e-04
 38         1.0747548070e-03
 39         2.3931885270e-04
 40        -5.5309609858e-05
 41         5.6591259421e-04
 42         9.0179333460e-04
 43         1.0059061035e+00
 44         1.5282485223e-02
 45        -1.2550554083e-02
 46         5.7977736745e-04
 47        -4.5328102581e-04
 48        -1.8849218945e-04
 49         5.0619430864e-03
 50        -2.3744418016e-03
 51        -1.0077196331e-03
 52        -1.6330675393e-03
 53        -5.0722036235e-04
 54         4.3451848249e-05
 55        -3.1401228615e-04
 56        -2.0618989492e-05
 57         7.1843641582e-04
 58         1.2971736233e-03
 59        -4.9329947021e-03
 60         2.6571493534e-04
 61        -2.0880045208e-04
 62        -3.5157273413e-05
 63         3.2681836131e-03
 64        -2.4965425898e-04
 65        -7.0413525478e-04
 66         6.9575031832e-04
 67         4.3213459550e-04
 68        -1.9775524836e-05
 69        -7.6592175034e-04
 70         1.9328414468e-04
 71         5.1668733783e-04
 72        -4.4611552522e-04
 73        -6.2592243306e-04
 74        -2.4460767750e-05
 75         1.1987409375e-04
 76        -5.5781163483e-05
 77         1.6457582058e-04
 78        -2.5818497914e-05
 79        -5.4866740355e-05
 80         3.0676696644e-05
 81         6.3214597153e-06
 82         9.4226832055e-04
 83         1.0379723332e-05
 84         6.2933804973e-05
 85        -2.9509372531e-05
 86        -2.1449027340e-03
 87         2.3076050480e-03
 88        -1.5302193419e-03
 89        -1.5929716918e-03
 90         2.5539980846e-04
 91        -1.3746559981e-04
 92        -2.5681780788e-04
 93         3.0561759748e-04
 94         2.9303959676e-04
 95        -7.5995575124e-05
 96        -5.5182828204e-05
 97         5.4727255734e-04
 98         1.7171531498e-04
 99         1.3061345750e-04
100        -3.1032508139e-05
 Sym= A
 Ene=        -1.0206223390e+01
 Spin= Alpha
 Occup=         2.0000000000e+00
  1         2.2071276242e-02
  2        -1.1293312706e-03
  3         4.7918478452e-03
  4         1.3314586049e-03
  5         3.3786811029e-04
  6         1.6357641701e-04
  7        -2.0752298787e-03
  8        -1.8132880379e-03
  9         3.7886439248e-04
 10         7.6092966636e-04
 11        -5.3540660717e-04
 12        -2.6793411090e-05
 13        -1.0656738948e-03
 14        -4.0223389505e-04
 15         1.0061845665e+00
 16         1.6257819089e-02
 17        -1.9217924118e-02
 18        -1.2197469257e-04
 19         2.1061982693e-04
 20        -2.5680508112e-04
 21        -1.7134220903e-03
 22         3.2028445873e-03
 23        -1.7329074490e-03
 24        -7.4800373050e-04
 25         7.0356118031e-04
 26        -6.5020908670e-04
 27         2.3467598865e-04
 28        -2.9408049203e-05
 29         5.4716049515e-03
 30        -4.3938211938e-04
 31         1.1094621239e-03
 32        -4.6331897757e-04
 33        -6.2076554965e-04
 34         1.4269893123e-04
 35         7.8524929318e-04
 36         3.8639578770e-03
 37         2.7226862617e-04
 38         7.9622888258e-04
 39         3.4131269271e-05
 40         5.7949182814e-04
 41         1.0992187651e-03
 42        -9.5967705747e-04
 43        -3.5506516486e-04
 44        -7.0321746580e-04
 45         4.1074254154e-03
 46        -1.0599031390e-04
 47        -1.6289595264e-04
 48         1.2862445121e-04
 49        -6.1521264261e-04
 50         2.7738500419e-03
 51        -2.6341412177e-04
 52        -4.2924816972e-04
 53        -3.1618332214e-04
 54         6.1769109882e-05
 55         4.1206776074e-04
 56        -3.1277593031e-04
 57         8.7857655167e-05
 58         1.2806017574e-04
 59        -1.2254652928e-03
 60         1.6384163802e-04
 61        -4.1741482402e-05
 62        -2.6346990253e-05
 63         1.3583855882e-04
 64        -6.8270658688e-04
 65         8.3600357327e-05
 66         8.3042962087e-05
 67         2.5398788850e-05
 68         1.8392391043e-05
 69        -1.5313472514e-05
 70         1.5855318034e-05
 71         2.8887707252e-04
 72         6.0597465671e-04
 73        -2.7834280462e-04
 74        -7.9650324283e-05
 75        -2.0600104360e-05
 76        -5.0172561195e-05
 77         8.9802889297e-04
 78         1.4396543845e-04
 79        -1.1415275925e-04
 80         7.6939917404e-05
 81        -2.6640569781e-04
 82        -2.1290966757e-04
 83         3.6752292106e-05
 84         2.4118156021e-04
 85        -1.1058452762e-04
 86         1.0190277336e-04
 87         7.9359132020e-04
 88         1.7980009368e-04
 89        -5.3467058016e-05
 90         2.4848638127e-06
 91        -2.9845381625e-04
 92         4.2117946229e-04
 93        -7.1728812220e-05
 94        -3.8731425649e-04
 95        -5.8240594590e-05
 96        -2.2900448527e-03
 97         1.2025663196e-03
 98        -1.1506661180e-03
 99         1.5075277192e-03
100        -9.4798976180e-04
 Sym= A
 Ene=        -1.0190730316e+01
 Spin= Alpha
 Occup=         2.0000000000e+00
  1         1.0061812115e+00
  2         1.6355391877e-02
  3        -1.5261740272e-02
  4         2.7826059401e-04
  5        -5.4904286192e-05
  6         2.9265138985e-05
  7         2.2063553621e-03
  8         7.3615960840e-04
  9         7.3626749667e-04
 10        -1.0416535356e-03
 11         7.2517410581e-04
 12        -1.1880469881e-03
 13         4.9724408159e-05
 14         3.2783820107e-04
 15        -2.3297500192e-02
 16        -1.4499590772e-03
 17         1.0233699631e-03
 18        -1.3386781916e-03
 19        -3.3182007715e-04
 20        -2.7316019796e-04
 21         2.9223846658e-03
 22         2.4774443498e-03
 23        -3.4452643087e-05
 24         1.0005986368e-03
 25        -5.8587450146e-04
 26         1.8464237250e-04
 27        -9.9528574718e-04
 28        -7.7033659051e-04
 29        -1.0383190048e-03
 30        -5.1742033850e-04
 31         3.4843155247e-03
 32        -8.3875163296e-05
 33         5.1233338361e-05
 34        -6.5611411528e-05
 35         1.9252059310e-03
 36         2.4616518938e-03
 37        -5.0092917354e-04
 38        -3.7323989303e-04
 39         7.6178392776e-05
 40        -2.4359831616e-04
 41        -3.3769899095e-04
 42         3.1059811545e-05
 43         1.0552797955e-05
 44        -2.0629719008e-04
 45        -6.3237471695e-04
 46        -1.9670263259e-07
 47        -1.3387933118e-04
 48        -5.1021124017e-05
 49        -1.3112031763e-03
 50        -1.6072234573e-04
 51         3.0059031420e-04
 52         5.9377896640e-05
 53         9.8740689173e-05
 54        -8.9625317152e-05
 55        -4.6549322928e-05
 56         1.0516717398e-04
 57         1.1308206957e-05
 58         3.5768524496e-05
 59         4.0841030821e-04
 60         1.2060613132e-04
 61         6.7597230484e-05
 62        -3.7138804280e-05
 63        -6.6123109164e-04
 64        -1.6912184070e-04
 65         1.0093242881e-04
 66        -3.1931513988e-05
 67        -3.3379739369e-05
 68        -2.7101274231e-05
 69         7.8908754369e-05
 70         5.6287493012e-05
 71         1.6826472420e-04
 72         1.2745323318e-03
 73        -1.2003886021e-04
 74         4.2743731820e-04
 75         8.6084196824e-05
 76        -2.3085303700e-03
 77         1.8916442364e-03
 78         7.4961023911e-04
 79         2.0164303995e-03
 80        -7.0421907987e-04
 81        -2.1279549016e-03
 82         1.4916765100e-03
 83         1.2190655335e-03
 84        -1.4870375403e-03
 85         1.2164661455e-03
 86        -8.1783368071e-05
 87        -3.6117585800e-05
 88         4.0076593148e-05
 89         1.9268625980e-05
 90        -1.9970210201e-05
 91         1.1058918273e-04
 92         5.7710322987e-04
 93         1.2842810873e-05
 94        -1.3095283142e-04
 95         4.3990131190e-05
 96         8.2086257954e-05
 97         2.5802594741e-04
 98         1.7726350789e-05
 99        -3.1677548598e-04
100         1.0899362059e-04
 Sym= A
 Ene=        -1.0182438875e+01
 Spin= Alpha
 Occup=         2.0000000000e+00
  1         3.2565835858e-04
  2        -4.4889644814e-04
  3         2.7742907990e-03
  4         7.3415355154e-05
  5         1.0547668029e-04
  6        -8.6049468610e-05
  7        -2.0783712151e-03
  8        -4.1358713074e-04
  9        -4.3859509910e-05
 10        -2.5472461272e-04
 11         5.2097265432e-04
 12        -3.0118471861e-04
 13         2.7308745643e-04
 14        -4.8425719965e-04
 15        -5.8536513225e-03
 16        -6.8477241734e-04
 17         3.0370243694e-03
 18         2.0832410622e-04
 19         6.9763059781e-04
 20        -1.7661963430e-04
 21        -2.0754443738e-03
 22        -3.8627167915e-03
 23        -3.3679193773e-05
 24         9.0440552214e-04
 25         4.9572842587e-04
 26         3.5334290726e-04
 27         5.5975062626e-04
 28        -1.3106417345e-03
 29         1.0066484008e+00
 30         1.6749207986e-02
 31        -2.1867284771e-02
 32        -2.3258270882e-04
 33        -1.6404309955e-04
 34        -1.0263609317e-04
 35        -5.1540105078e-03
 36        -2.5275420897e-04
 37         1.5664561835e-03
 38        -1.0764034189e-03
 39        -3.9575218823e-04
 40        -3.6615115637e-06
 41         2.9340514883e-04
 42        -2.1519840337e-04
 43        -5.8648311629e-03
 44        -1.5997139481e-03
 45         6.7595941565e-03
 46         6.3973423877e-04
 47        -1.2372556233e-03
 48        -9.2773067357e-05
 49         3.0962404578e-04
 50         4.2050320131e-03
 51        -3.3429233498e-04
 52         8.4208947127e-04
 53         1.6072117005e-04
 54        -2.0544761011e-04
 55         7.0312059672e-04
 56         1.0142199665e-03
 57         3.3618796300e-05
 58         4.7193494864e-05
 59        -9.6725404945e-04
 60         2.9236369441e-05
 61        -5.8868935570e-05
 62        -2.8243779535e-06
 63        -1.0459452002e-04
 64        -7.0315732278e-04
 65         6.6257827471e-05
 66        -5.7725933810e-05
 67        -4.1476310782e-05
 68        -1.1362784015e-05
 69         9.4634668524e-05
 70         8.0415443861e-05
 71         2.7167117517e-04
 72         3.9177612918e-05
 73        -1.3908334307e-04
 74        -1.6092065764e-04
 75         2.2927764277e-05
 76         1.1351133823e-04
 77         5.0505736678e-04
 78         1.4028841411e-04
 79        -1.4723865705e-04
 80         5.0561170525e-05
 81        -6.9992031267e-04
 82         5.0720369527e-04
 83         1.8818428800e-04
 84        -1.2340842262e-04
 85         1.1992238822e-04
 86         1.5007414567e-04
 87         1.2087215916e-03
 88         2.8687338912e-04
 89        -2.0603324794e-05
 90        -1.6437543974e-05
 91        -2.3983931021e-03
 92         8.3880370795e-04
 93        -2.1201818722e-03
 94        -5.8029014040e-05
 95         2.7975994796e-04
 96        -3.3929086871e-04
 97         7.0865415357e-04
 98         2.0062672369e-04
 99         2.8865946952e-04
100         7.1882413361e-05
 Sym= A
 Ene=        -1.0655488371e+00
 Spin= Alpha
 Occup=         2.0000000000e+00
  1         1.5337054373e-04
  2         8.4629832530e-03
  3        -4.6676385932e-03
  4        -1.8799965686e-03
  5        -5.1152921410e-03
  6        -6.6894652529e-04
  7         2.7647608768e-03
  8         5.3096461812e-03
  9        -1.9130280116e-03
 10        -2.4711894624e-04
 11        -5.6698451367e-04
 12         6.9751427619e-04
 13        -8.1186700947e-04
 14         9.6711181907e-04
 15        -1.0879999605e-04
 16         1.3087399206e-02
 17         2.2975540536e-03
 18         1.5510158253e-03
 19        -8.6305867359e-03
 20         9.4768432694e-04
 21         6.2054238645e-03
 22         3.1131901266e-03
 23         2.4155135233e-04
 24        -1.3951019146e-03
 25        -1.5020555578e-04
 26        -4.2312973301e-04
 27        -1.3235225276e-03
 28         4.1310967118e-04
 29        -1.2890474971e-03
 30         3.5227164125e-02
 31        -4.8830962463e-03
 32         2.1257496488e-02
 33        -1.8120135642e-02
 34        -4.2972606266e-03
 35         5.1135467290e-03
 36         1.5267062301e-02
 37        -2.0663352043e-03
 38        -2.2216936163e-03
 39        -1.0899340851e-03
 40         1.5375437604e-03
 41         2.1555151642e-03
 42        -8.0469931664e-03
 43        -1.2705988855e-02
 44         1.5404536767e-01
 45         8.5520870652e-02
 46         1.2605266922e-01
 47        -5.3551707866e-03
 48        -2.7154280406e-02
 49         4.9664125341e-03
 50         2.4423220902e-02
 51        -1.1365514014e-03
 52        -1.1105177573e-02
 53        -1.0786003520e-02
 54         8.6335228585e-04
 55         2.8382632262e-02
 56        -4.7154793121e-03
 57        -6.7212303196e-03
 58         4.2396095877e-01
 59         3.7215615794e-01
 60        -7.2910444103e-02
 61         9.0361715040e-02
 62         9.6008099263e-03
 63        -3.1159329190e-02
 64        -1.9890286879e-03
 65         6.7700584768e-03
 66        -6.3532799065e-03
 67        -3.3575320152e-03
 68        -3.2324148917e-04
 69         3.9636878395e-03
 70        -1.7666618319e-03
 71         1.7202919485e-01
 72         4.9962761494e-03
 73        -1.8920477155e-02
 74        -2.9864728270e-02
 75         6.7478922514e-03
 76         1.9484751812e-05
 77        -3.9749157584e-03
 78         5.2980172053e-05
 79         1.0438350594e-04
 80        -1.6160569656e-04
 81         7.5706930038e-03
 82         4.5918526173e-03
 83        -1.1464138883e-03
 84        -6.3733213882e-04
 85        -9.0775439713e-04
 86         3.4171779058e-02
 87         5.4750703483e-03
 88         8.2504412382e-03
 89         4.5200908172e-03
 90        -1.5000158068e-03
 91         5.0932166612e-03
 92         1.9102870335e-03
 93         4.4087505764e-04
 94        -2.2930614267e-03
 95         1.1364932571e-05
 96         1.6459981483e-03
 97        -1.0797649509e-03
 98        -3.0498128077e-04
 99        -4.4742902653e-04
100        -8.8345883985e-05
 Sym= A
 Ene=        -8.0171576781e-01
 Spin= Alpha
 Occup=         2.0000000000e+00
  1         1.4767459517e-02
  2        -1.9246389391e-01
  3        -1.0450973411e-01
  4         8.3105614671e-02
  5         2.9201283932e-02
  6         1.3872727782e-02
  7         8.6502696480e-03
  8        -2.8826632762e-03
  9         8.2874809316e-03
 10         4.8098883347e-03
 11        -2.3000808608e-03
 12        -3.3181497985e-03
 13        -7.8192987706e-03
 14        -6.0049303807e-03
 15         1.9356535229e-02
 16        -2.7785126533e-01
 17        -1.7795712603e-01
 18        -3.8252255529e-02
 19         3.9968521004e-02
 20        -1.8768363505e-02
 21        -1.8749046156e-02
 22         2.0645864961e-02
 23        -1.3778958478e-02
 24         1.0479448930e-02
 25        -8.4453389211e-04
 26         1.2730370916e-03
 27        -1.5497895548e-03
 28        -1.0978207315e-02
 29         1.8198632301e-02
 30        -2.4079516298e-01
 31        -1.4238990946e-01
 32        -5.4449182094e-02
 33        -1.5318865190e-02
 34         1.5150014079e-02
 35        -1.9498360351e-02
 36        -1.1906494939e-02
 37         9.6223707951e-03
 38         8.6573341345e-03
 39         1.6980361913e-03
 40         2.5764713165e-03
 41         9.4657143021e-03
 42        -5.3001480900e-03
 43         5.4594632793e-03
 44        -1.2428865063e-01
 45        -6.6657309478e-02
 46         6.0835991784e-02
 47        -8.5582408785e-02
 48        -1.0094173986e-02
 49         2.3488899976e-02
 50        -1.2369203099e-02
 51        -6.7408168905e-03
 52         3.3590560754e-03
 53        -1.6536207861e-03
 54        -5.3668923240e-04
 55         1.2107420621e-02
 56         4.1223830083e-03
 57         1.0978616280e-03
 58         8.8182629660e-02
 59         8.1163803978e-02
 60         2.6867044242e-02
 61         2.3404559137e-03
 62        -7.2456568874e-03
 63         1.6358044029e-02
 64        -7.9144156375e-03
 65        -3.3271098819e-03
 66         7.9123071980e-04
 67         4.0829467417e-04
 68        -6.9440005938e-04
 69        -1.0666611807e-03
 70         2.9217090277e-03
 71         3.3917603383e-02
 72         3.7179363243e-03
 73        -1.9751723027e-03
 74        -9.1874388455e-03
 75         2.5220400086e-04
 76        -5.9862779265e-02
 77        -5.4573673354e-04
 78         5.8706785001e-03
 79         8.8323829441e-03
 80        -2.1734012837e-03
 81        -6.9490612289e-02
 82        -4.6666077916e-03
 83         8.1753927285e-03
 84        -5.5831848181e-03
 85         5.8392374605e-03
 86        -3.2811948700e-02
 87         1.1677595400e-03
 88        -4.8597427516e-04
 89        -5.8080031004e-03
 90         2.1065596431e-04
 91        -8.1445267407e-02
 92        -8.6774767864e-03
 93        -1.3063819388e-02
 94        -9.2965554561e-04
 95         2.0643505448e-03
 96        -9.5472572666e-02
 97        -1.2208417558e-02
 98        -8.5055577127e-03
 99         1.0773386245e-02
100        -6.3889048640e-03
 Sym= A
 Ene=        -7.3160283999e-01
 Spin= Alpha
 Occup=         2.0000000000e+00
  1         1.6271819813e-02
  2        -2.2705330119e-01
  3        -1.2667667699e-01
  4         5.4328206829e-02
  5         9.2647853634e-03
  6         1.3776573022e-02
  7         2.5777098732e-03
  8         1.0208368007e-03
  9         2.8452374812e-03
 10         3.1034888386e-03
 11        -2.5828337437e-03
 12        -2.2462098060e-03
 13        -5.4691117038e-03
 14         5.5685082298e-05
 15         8.8566519660e-03
 16        -1.3431645135e-01
 17        -1.0137681233e-01
 18        -1.0957606983e-01
 19        -7.6531534286e-02
 20        -6.6307321140e-03
 21        -4.7704685025e-02
 22        -1.2658002379e-02
 23        -6.5620692146e-03
 24         2.3643051723e-03
 25        -4.1460823297e-03
 26        -2.5685958416e-03
 27        -1.4506265010e-02
 28         4.0035122992e-04
 29        -1.3386803187e-02
 30         1.9880600914e-01
 31         1.2983915269e-01
 32         1.0083143217e-02
 33        -1.1968171427e-01
 34        -4.5058117869e-03
 35         1.8835921795e-02
 36        -3.3388973771e-02
 37        -2.7601326091e-04
 38        -3.3730750488e-03
 39         1.7833984353e-04
 40         1.9941397483e-03
 41        -6.8074845272e-03
 42        -1.2114918847e-02
 43        -9.9674839468e-03
 44         2.5178379414e-01
 45         1.4026584710e-01
 46        -7.2638210681e-02
 47         5.9566976228e-02
 48         1.1145852414e-02
 49        -2.2631499557e-02
 50         9.5298753086e-03
 51         2.6731542698e-03