[Molden Format]
[Atoms] (AU)
C    1    6           1.8591324728         2.3935325138        -0.1340229333
C    2    6          -0.9295712927         2.3547794844        -0.0687779657
C    3    6          -2.1687241829         0.1447605977         0.3945150769
C    4    6          -0.7679156351        -2.2055631973         0.0744004413
O    5    8           1.5358604827        -2.4406543491        -0.1613366568
H    6    1           2.2832418741         0.4885171434        -0.8206483825
H    7    1           2.6526481449         4.1433816973        -0.9402529852
H    8    1           2.7319869924         2.0270071305         1.7430437468
H    9    1          -1.9035659010        -3.9297984092        -0.2328574805
H   10    1          -4.2274794127         0.0275055483         0.4217097477
H   11    1          -2.0141106085         3.9786285518        -0.7790460052
[GTO]
  1 0
 s    8  1.00
     6665.0000000000         0.0006920000
     1000.0000000000         0.0053290000
      228.0000000000         0.0270770000
       64.7100000000         0.1017180000
       21.0600000000         0.2747400000
        7.4950000000         0.4485640000
        2.7970000000         0.2850740000
        0.5215000000         0.0152040000
 s    8  1.00
     6665.0000000000        -0.0001460000
     1000.0000000000        -0.0011540000
      228.0000000000        -0.0057250000
       64.7100000000        -0.0233120000
       21.0600000000        -0.0639550000
        7.4950000000        -0.1499810000
        2.7970000000        -0.1272620000
        0.5215000000         0.5445290000
 s    1  1.00
        0.1596000000         1.0000000000
 p    3  1.00
        9.4390000000         0.0381090000
        2.0020000000         0.2094800000
        0.5456000000         0.5085570000
 p    1  1.00
        0.1517000000         1.0000000000
 d    1  1.00
        0.5500000000         1.0000000000

  2 0
 s    8  1.00
     6665.0000000000         0.0006920000
     1000.0000000000         0.0053290000
      228.0000000000         0.0270770000
       64.7100000000         0.1017180000
       21.0600000000         0.2747400000
        7.4950000000         0.4485640000
        2.7970000000         0.2850740000
        0.5215000000         0.0152040000
 s    8  1.00
     6665.0000000000        -0.0001460000
     1000.0000000000        -0.0011540000
      228.0000000000        -0.0057250000
       64.7100000000        -0.0233120000
       21.0600000000        -0.0639550000
        7.4950000000        -0.1499810000
        2.7970000000        -0.1272620000
        0.5215000000         0.5445290000
 s    1  1.00
        0.1596000000         1.0000000000
 p    3  1.00
        9.4390000000         0.0381090000
        2.0020000000         0.2094800000
        0.5456000000         0.5085570000
 p    1  1.00
        0.1517000000         1.0000000000
 d    1  1.00
        0.5500000000         1.0000000000

  3 0
 s    8  1.00
     6665.0000000000         0.0006920000
     1000.0000000000         0.0053290000
      228.0000000000         0.0270770000
       64.7100000000         0.1017180000
       21.0600000000         0.2747400000
        7.4950000000         0.4485640000
        2.7970000000         0.2850740000
        0.5215000000         0.0152040000
 s    8  1.00
     6665.0000000000        -0.0001460000
     1000.0000000000        -0.0011540000
      228.0000000000        -0.0057250000
       64.7100000000        -0.0233120000
       21.0600000000        -0.0639550000
        7.4950000000        -0.1499810000
        2.7970000000        -0.1272620000
        0.5215000000         0.5445290000
 s    1  1.00
        0.1596000000         1.0000000000
 p    3  1.00
        9.4390000000         0.0381090000
        2.0020000000         0.2094800000
        0.5456000000         0.5085570000
 p    1  1.00
        0.1517000000         1.0000000000
 d    1  1.00
        0.5500000000         1.0000000000

  4 0
 s    8  1.00
     6665.0000000000         0.0006920000
     1000.0000000000         0.0053290000
      228.0000000000         0.0270770000
       64.7100000000         0.1017180000
       21.0600000000         0.2747400000
        7.4950000000         0.4485640000
        2.7970000000         0.2850740000
        0.5215000000         0.0152040000
 s    8  1.00
     6665.0000000000        -0.0001460000
     1000.0000000000        -0.0011540000
      228.0000000000        -0.0057250000
       64.7100000000        -0.0233120000
       21.0600000000        -0.0639550000
        7.4950000000        -0.1499810000
        2.7970000000        -0.1272620000
        0.5215000000         0.5445290000
 s    1  1.00
        0.1596000000         1.0000000000
 p    3  1.00
        9.4390000000         0.0381090000
        2.0020000000         0.2094800000
        0.5456000000         0.5085570000
 p    1  1.00
        0.1517000000         1.0000000000
 d    1  1.00
        0.5500000000         1.0000000000

  5 0
 s    8  1.00
    11720.0000000000         0.0007100000
     1759.0000000000         0.0054700000
      400.8000000000         0.0278370000
      113.7000000000         0.1048000000
       37.0300000000         0.2830620000
       13.2700000000         0.4487190000
        5.0250000000         0.2709520000
        1.0130000000         0.0154580000
 s    8  1.00
    11720.0000000000        -0.0001600000
     1759.0000000000        -0.0012630000
      400.8000000000        -0.0062670000
      113.7000000000        -0.0257160000
       37.0300000000        -0.0709240000
       13.2700000000        -0.1654110000
        5.0250000000        -0.1169550000
        1.0130000000         0.5573680000
 s    1  1.00
        0.3023000000         1.0000000000
 p    3  1.00
       17.7000000000         0.0430180000
        3.8540000000         0.2289130000
        1.0460000000         0.5087280000
 p    1  1.00
        0.2753000000         1.0000000000
 d    1  1.00
        1.1850000000         1.0000000000

  6 0
 s    3  1.00
       13.0100000000         0.0196850000
        1.9620000000         0.1379770000
        0.4446000000         0.4781480000
 s    1  1.00
        0.1220000000         1.0000000000
 p    1  1.00
        0.7270000000         1.0000000000

  7 0
 s    3  1.00
       13.0100000000         0.0196850000
        1.9620000000         0.1379770000
        0.4446000000         0.4781480000
 s    1  1.00
        0.1220000000         1.0000000000
 p    1  1.00
        0.7270000000         1.0000000000

  8 0
 s    3  1.00
       13.0100000000         0.0196850000
        1.9620000000         0.1379770000
        0.4446000000         0.4781480000
 s    1  1.00
        0.1220000000         1.0000000000
 p    1  1.00
        0.7270000000         1.0000000000

  9 0
 s    3  1.00
       13.0100000000         0.0196850000
        1.9620000000         0.1379770000
        0.4446000000         0.4781480000
 s    1  1.00
        0.1220000000         1.0000000000
 p    1  1.00
        0.7270000000         1.0000000000

  10 0
 s    3  1.00
       13.0100000000         0.0196850000
        1.9620000000         0.1379770000
        0.4446000000         0.4781480000
 s    1  1.00
        0.1220000000         1.0000000000
 p    1  1.00
        0.7270000000         1.0000000000

  11 0
 s    3  1.00
       13.0100000000         0.0196850000
        1.9620000000         0.1379770000
        0.4446000000         0.4781480000
 s    1  1.00
        0.1220000000         1.0000000000
 p    1  1.00
        0.7270000000         1.0000000000

[5D7F]
[9G]

[MO]
 Sym= A
 Ene=        -1.9136606865e+01
 Spin= Alpha
 Occup=         2.0000000000e+00
  1        -6.6538793038e-06
  2        -1.0337698632e-05
  3         6.1441190887e-05
  4         1.1695096605e-04
  5        -1.0427855494e-04
  6        -1.1356450220e-04
  7        -1.4448948963e-04
  8        -3.3064017584e-04
  9         3.0500602434e-04
 10         5.1012229820e-05
 11        -2.5178520393e-07
 12         1.3766452423e-04
 13         4.0985550237e-05
 14        -2.2631424038e-04
 15        -1.0902870534e-04
 16        -1.9542082146e-04
 17         4.1327547404e-03
 18        -1.8305586093e-05
 19        -3.5505500751e-05
 20        -8.3198337430e-05
 21        -8.5101798350e-04
 22        -1.6350262740e-03
 23         5.7179352427e-04
 24         5.9167429444e-06
 25         7.0938070011e-05
 26        -7.3509367336e-05
 27        -6.9723091687e-05
 28        -7.1465146031e-05
 29         2.0363238305e-04
 30         3.1218181932e-04
 31        -3.5734981426e-03
 32         9.4466181729e-06
 33         2.4696183838e-04
 34         1.7438005653e-05
 35        -4.0523563659e-03
 36        -2.9002889224e-03
 37         5.0455477685e-04
 38         1.2725977100e-04
 39         1.2710823542e-04
 40         7.5675196938e-05
 41        -5.1431878899e-04
 42         4.1517663120e-04
 43         4.3557590582e-04
 44         5.9460259447e-04
 45         5.9503277191e-03
 46         3.5174634313e-05
 47        -1.7525537710e-04
 48        -8.0697301818e-05
 49         5.8369140903e-03
 50         1.1732879278e-03
 51        -5.0418652979e-04
 52        -6.1742374539e-05
 53         1.2729117124e-04
 54         1.6107633424e-04
 55        -1.1580064669e-03
 56         4.7429922698e-04
 57         1.0042268376e+00
 58         9.5985960559e-03
 59        -1.5100952593e-02
 60        -1.7653894594e-03
 61         3.9541405996e-04
 62         1.1689122877e-04
 63         3.4541692108e-03
 64        -1.0903382553e-03
 65        -2.5087290055e-04
 66         4.4470141741e-05
 67        -4.4598111798e-06
 68         1.3055946865e-05
 69         9.5037170469e-05
 70         4.0325186547e-05
 71         3.4060976837e-05
 72         9.8205421790e-05
 73        -1.5861030484e-04
 74        -6.8606382345e-04
 75         1.4814059248e-04
 76         2.2029949359e-04
 77         4.2177799010e-04
 78        -7.5214212561e-05
 79        -8.4451831742e-05
 80         4.9055761962e-05
 81        -1.5186499925e-04
 82        -2.9030987970e-04
 83         7.0675628306e-05
 84         9.2182863108e-05
 85         5.4852442804e-05
 86        -4.2870985351e-04
 87         7.1757636784e-04
 88        -7.3131307196e-04
 89        -7.9690284935e-05
 90         5.5642135439e-05
 91        -1.9598501686e-04
 92        -1.2292549142e-03
 93         1.9706086807e-04
 94         2.2959859226e-04
 95        -3.4541287362e-05
 96        -1.7095388210e-04
 97         1.7883421948e-04
 98         3.2111697026e-05
 99         7.0067628313e-05
100        -4.3185674116e-05
 Sym= A
 Ene=        -1.0272866772e+01
 Spin= Alpha
 Occup=         2.0000000000e+00
  1        -3.5578271278e-04
  2        -4.9962265668e-04
  3         1.2348687595e-03
  4         2.7354326134e-04
  5         1.0533282089e-05
  6        -4.9805027664e-05
  7        -7.8692595943e-04
  8        -3.2459717449e-04
  9        -3.9725577545e-05
 10        -1.0520927002e-04
 11        -1.4465961833e-04
 12         1.9809620284e-05
 13        -8.9954390951e-05
 14        -9.3679039929e-05
 15        -4.1295333552e-04
 16        -6.3349527596e-04
 17         5.1381558711e-03
 18        -1.7679112472e-04
 19         8.2429542471e-07
 20         3.2468818250e-05
 21        -1.9256993952e-03
 22        -2.9908189629e-03
 23         7.3338362084e-04
 24        -3.1247595126e-04
 25        -2.2936180785e-04
 26        -7.6826161315e-05
 27         1.5054322421e-04
 28         1.6987475564e-04
 29         1.8238503265e-03
 30        -3.2630736276e-04
 31        -1.0429521741e-03
 32        -4.0941691369e-04
 33         8.6724381011e-04
 34         1.2752209364e-04
 35        -2.1582088161e-03
 36        -4.9762362407e-03
 37         3.8895594698e-04
 38         1.0152896983e-03
 39         1.8049000542e-04
 40        -1.5726657621e-04
 41         7.9054922883e-04
 42         1.0305271053e-03
 43         1.0059817295e+00
 44         1.5383892150e-02
 45        -1.0296876521e-02
 46         8.1071079079e-04
 47        -4.1559329760e-04
 48        -3.5134327710e-04
 49         4.9257681666e-03
 50        -1.6840693277e-03
 51        -4.8630675722e-04
 52        -1.5941334431e-03
 53        -1.5425732186e-04
 54         4.2825182843e-04
 55         6.0969289064e-04
 56         1.3274674363e-04
 57         4.3624183367e-04
 58         1.0033457294e-03
 59        -5.6633349806e-03
 60         6.9544814214e-04
 61        -8.9441542483e-05
 62        -8.3167878692e-05
 63         3.4156294584e-03
 64        -7.8206058092e-05
 65        -3.4763184156e-04
 66         5.9621827441e-04
 67         1.9762563609e-04
 68        -4.7020267736e-05
 69        -7.6883522974e-04
 70         1.2064720837e-04
 71        -7.8477073621e-05
 72        -4.1521665503e-04
 73        -2.7741850668e-04
 74        -2.9208355427e-04
 75         5.2149012775e-06
 76        -2.2380154018e-05
 77         4.6931945002e-04
 78        -3.7850991312e-05
 79        -5.7828327447e-06
 80         3.1130883174e-05
 81        -6.5277830945e-05
 82         1.4889985585e-04
 83         7.2992104781e-05
 84         8.4029585277e-05
 85        -8.4720551921e-05
 86        -1.9317679804e-03
 87         2.3476123730e-03
 88        -1.3436293791e-03
 89        -1.5698873458e-03
 90        -2.8253731778e-04
 91        -4.4286806378e-04
 92        -4.9022395190e-04
 93         9.5722442430e-05
 94         2.7726327540e-04
 95        -2.7335183836e-05
 96        -7.4727064888e-05
 97         3.9417772031e-04
 98         1.8348540639e-04
 99         1.0014084282e-04
100        -4.9514943016e-05
 Sym= A
 Ene=        -1.0226593460e+01
 Spin= Alpha
 Occup=         2.0000000000e+00
  1         2.4327653472e-03
  2        -4.0566647918e-04
  3         4.4702328669e-03
  4         7.6315035138e-04
  5        -6.6274848163e-05
  6         2.2011662409e-05
  7        -2.5375726871e-03
  8        -4.2151067319e-04
  9         3.9286281550e-05
 10         8.1275513033e-04
 11         1.5808491950e-04
 12         6.9092125610e-05
 13        -9.6990800817e-04
 14        -1.2957404292e-04
 15         1.0064287258e+00
 16         1.6259489435e-02
 17        -2.0226322363e-02
 18        -4.5486326980e-04
 19         4.1397652003e-05
 20        -3.5698261801e-04
 21        -2.3180870789e-03
 22         4.0283979456e-03
 23        -6.7181367695e-04
 24        -7.6826597183e-04
 25         3.8784673450e-04
 26        -8.4179650254e-04
 27        -4.7620533242e-04
 28        -5.5428190985e-04
 29         1.0036221438e-02
 30        -1.0151583549e-03
 31         4.2819388247e-03
 32        -6.1465168635e-04
 33        -1.0056027644e-03
 34         1.7510503880e-04
 35         2.1244991545e-03
 36         2.7275236618e-03
 37        -2.5330680375e-04
 38         8.6956219827e-04
 39         1.4283714676e-04
 40         3.7349671539e-04
 41         4.0622272848e-04
 42        -1.0208244431e-03
 43        -3.3978172209e-04
 44        -6.3343191825e-04
 45         1.5111782506e-03
 46         3.4367425422e-05
 47        -2.0639770636e-04
 48         3.3239377777e-05
 49        -7.3101487816e-04
 50         1.3211171340e-03
 51        -6.8737421659e-05
 52        -3.0412314912e-04
 53        -1.5263830444e-04
 54        -4.8561059745e-05
 55         4.1781964439e-05
 56         1.7400270394e-04
 57         4.8199223162e-07
 58        -4.9478096874e-06
 59        -2.0090847033e-04
 60         1.2037399578e-04
 61         4.0723869525e-05
 62         8.5835370509e-07
 63        -2.4968209838e-04
 64        -5.3613337250e-04
 65         7.5109974161e-05
 66         1.0730313897e-05
 67        -2.4472023976e-05
 68        -4.3779868334e-06
 69         2.3529721866e-05
 70         4.1695087816e-05
 71        -3.2275382318e-04
 72         9.1983279364e-04
 73        -3.4268510290e-04
 74        -1.1840731357e-04
 75         2.4589538595e-05
 76        -1.6960288879e-04
 77         2.0324746395e-04
 78         1.5190502296e-04
 79        -7.5756682166e-05
 80         6.8418162768e-05
 81        -5.3731969988e-04
 82         8.4951147075e-04
 83        -8.0850242103e-05
 84         1.6541221847e-05
 85         2.5105408629e-05
 86        -1.6969639578e-04
 87         3.2378301343e-04
 88         4.6053425081e-05
 89        -1.2889395615e-04
 90        -3.0778450684e-05
 91         1.8952576715e-04
 92         7.1605697073e-04
 93         1.9528111801e-04
 94        -2.8533917438e-04
 95         2.1732136443e-05
 96        -2.5452543784e-03
 97         1.1028441681e-03
 98        -1.2021483051e-03
 99         1.7057083918e-03
100        -8.6828725029e-04
 Sym= A
 Ene=        -1.0196537299e+01
 Spin= Alpha
 Occup=         2.0000000000e+00
  1         5.5934818778e-04
  2         4.7934139273e-04
  3        -7.3745347453e-04
  4        -1.4309643879e-04
  5        -8.7297896999e-05
  6         1.4866005112e-04
  7         1.0755236323e-03
  8         2.0915420808e-04
  9        -5.2585159233e-04
 10         2.7692641577e-04
 11         5.2654691106e-05
 12         1.2268812040e-04
 13         4.2266972130e-06
 14         5.8806088230e-05
 15         1.1187224821e-02
 16         1.4156695354e-03
 17        -5.3770198089e-03
 18        -5.5280337435e-04
 19        -1.0837769463e-03
 20         2.3730927352e-04
 21         1.2525582304e-03
 22         2.9961423059e-03
 23        -8.6803125039e-05
 24        -8.6342595805e-04
 25        -2.8805151408e-04
 26        -5.5815297346e-04
 27        -6.8626330059e-04
 28         8.0557938251e-04
 29        -1.0066099895e+00
 30        -1.6732694318e-02
 31         2.1131829129e-02
 32         2.8950219958e-04
 33        -1.2405389996e-04
 34         4.5666916420e-04
 35         4.8697127712e-03
 36         1.4966952110e-04
 37        -1.7414813913e-03
 38         1.1004429914e-03
 39         7.1673972065e-05
 40         8.0134559698e-05
 41        -7.0279738365e-04
 42        -4.6915925001e-04
 43         2.1834420836e-03
 44         7.8241179269e-04
 45        -5.7636051643e-03
 46        -3.4687369190e-04
 47         6.6789449921e-04
 48         1.2002905856e-04
 49         5.7191139511e-04
 50        -3.3504667183e-03
 51        -2.8942751223e-05
 52        -7.2004843701e-04
 53        -2.8644139779e-04
 54         3.0173506232e-04
 55        -5.1666867769e-04
 56        -1.1934321726e-03
 57        -1.3235889757e-05
 58        -2.2171564973e-05
 59         4.6468514218e-04
 60        -4.0685768130e-05
 61         1.4180537130e-05
 62         4.9810893622e-05
 63         1.8736080033e-04
 64         7.6028336041e-04
 65        -8.6061812117e-05
 66         1.2010656217e-04
 67        -1.0068641321e-05
 68         4.1649299770e-06
 69        -4.8084472317e-05
 70        -2.1517192815e-04
 71         1.4784109907e-04
 72        -5.1115891172e-04
 73         7.7992940216e-05
 74         6.4587212196e-05
 75         3.7276072785e-05
 76         2.1362860844e-06
 77        -4.4027575953e-04
 78        -5.3585890765e-05
 79         1.5064331514e-05
 80         4.7638739870e-05
 81         1.8424937192e-04
 82        -1.5830407753e-04
 83        -1.0341257456e-05
 84        -1.0551504723e-04
 85         1.0229954403e-04
 86         2.5977474788e-04
 87        -8.1902575930e-04
 88        -2.1008294483e-04
 89         1.7971204089e-04
 90        -2.6827751813e-05
 91         2.5356947521e-03
 92        -1.0384201681e-03
 93         2.2517671761e-03
 94         3.1172659794e-05
 95         1.5514597686e-04
 96        -8.5718313777e-06
 97        -5.5230566266e-04
 98        -3.1248652746e-04
 99         9.8591423541e-06
100        -1.4823108393e-04
 Sym= A
 Ene=        -1.0176416679e+01
 Spin= Alpha
 Occup=         2.0000000000e+00
  1         1.0071189580e+00
  2         1.7759506703e-02
  3        -1.9326812164e-02
  4         2.7962267453e-04
  5        -2.8152659606e-04
  6         2.7071571374e-04
  7         2.6479286893e-03
  8         1.5010172128e-03
  9        -5.2151486068e-04
 10        -2.3754743873e-04
 11         2.5145056418e-04
 12        -4.6318766252e-04
 13        -9.4738456908e-04
 14         3.2891730221e-04
 15        -2.6079772901e-03
 16        -2.5973980865e-04
 17         1.9426159340e-03
 18        -5.4236231998e-04
 19         6.2306905985e-05
 20         8.9834762611e-07
 21         3.4257417120e-03
 22         1.5077095605e-03
 23        -2.3700431631e-04
 24         7.3327103040e-04
 25         1.8330115635e-04
 26        -3.5002131457e-05
 27        -1.2722081115e-03
 28        -1.2808288137e-04
 29        -9.3639995226e-05
 30        -6.1383549534e-04
 31         2.5452845579e-03
 32        -2.2943356438e-04
 33        -4.5540217133e-05
 34        -2.0601599101e-05
 35         1.1185820000e-03
 36         2.1354802979e-03
 37        -3.2474390150e-04
 38        -3.6096660207e-04
 39         1.4831791697e-05
 40        -1.2843954856e-04
 41        -2.6868166929e-04
 42        -1.8843918355e-04
 43        -1.9487781307e-04
 44        -5.5177570933e-04
 45        -1.2984412790e-04
 46        -1.5555696908e-04
 47        -2.2506476003e-04
 48        -7.5964770257e-05
 49        -6.8227913277e-04
 50         6.8201922948e-04
 51         2.0176011792e-04
 52        -8.0375458189e-05
 53        -4.0742976899e-05
 54        -4.4193907402e-05
 55        -7.3108217834e-05
 56         2.3341167696e-04
 57        -7.5681935355e-05
 58        -1.3782404086e-04
 59         4.4501980720e-04
 60         1.1199189501e-04
 61        -2.1565904842e-05
 62        -9.8033727477e-05
 63        -8.3734394831e-04
 64        -1.3350060836e-04
 65         4.0466356559e-04
 66        -7.0144554006e-05
 67        -9.4974090669e-06
 68         6.6432869924e-05
 69         4.0613149172e-05
 70         8.0376960064e-07
 71        -1.1826414452e-03
 72         3.6294083289e-03
 73         4.2876328744e-04
 74        -1.7225476460e-03
 75        -7.7951802758e-04
 76        -1.9048025021e-03
 77         1.3758831549e-03
 78         8.7909113629e-04
 79         1.7780943954e-03
 80        -9.9255955916e-04
 81        -9.2310275833e-04
 82         2.1474287629e-03
 83         5.3899420193e-04
 84        -3.2546824434e-04
 85         1.7584714834e-03
 86        -5.9824641091e-05
 87         3.8155649380e-04
 88         1.8975156756e-05
 89        -3.3845642417e-05
 90        -4.1996051769e-05
 91         2.8193639134e-05
 92         4.5884912047e-04
 93         1.5169065136e-05
 94        -1.5144456408e-04
 95         2.3666750595e-05
 96        -2.6538550874e-04
 97         2.0066221252e-04
 98        -3.3196363517e-04
 99        -1.7594211504e-04
100         5.8980363015e-05
 Sym= A
 Ene=        -1.0442960766e+00
 Spin= Alpha
 Occup=         2.0000000000e+00
  1         1.0445363141e-03
  2        -1.6688528268e-02
  3        -1.1401065320e-03
  4         4.7229902232e-03
  5         9.0482387930e-03
  6         7.5573128580e-06
  7        -6.4239767194e-04
  8        -3.1502971971e-03
  9         1.5427558400e-03
 10         5.4589529295e-04
 11         3.5041572351e-04
 12        -8.6315754252e-05
 13        -5.0701550229e-04
 14        -5.2240120978e-04
 15         4.8281336895e-04
 16        -2.0876304659e-02
 17         1.7397441743e-03
 18        -2.3936414913e-03
 19         1.2947735721e-02
 20        -1.1750368350e-03
 21        -1.7019459824e-03
 22        -4.7716775033e-03
 23         5.5397072972e-04
 24         1.2095395534e-03
 25         4.5220135634e-04
 26         5.7964226169e-04
 27         1.0662915337e-03
 28        -3.6316233402e-04
 29         4.1814339022e-03
 30        -3.8214135464e-02
 31        -3.1916635153e-02
 32        -2.4304346098e-02
 33         1.7370043860e-02
 34         5.0983867618e-03
 35        -1.8965816036e-02
 36        -3.7246981985e-04
 37         3.7818086018e-03
 38         3.8036703793e-03
 39         1.9604815432e-03
 40        -8.6022357729e-04
 41        -1.5090839546e-03
 42         8.7922042198e-03
 43         1.5095960720e-02
 44        -2.1900141280e-01
 45        -8.8978078438e-02
 46        -1.7810435296e-01
 47         7.8353394863e-03
 48         1.8759792580e-02
 49        -1.4729513061e-02
 50         8.5090996104e-04
 51         3.8988929795e-04
 52         1.3824403904e-02
 53         6.8051902372e-03
 54         1.6620055554e-03
 55        -3.1833571406e-02
 56         7.7132641578e-03
 57         9.8229455167e-03
 58        -3.9970592868e-01
 59        -3.6718323473e-01
 60         1.4971933795e-01
 61        -2.5760068468e-02
 62        -1.3219376655e-02
 63         3.2661328143e-02
 64        -1.0869097863e-02
 65        -1.7519462908e-03
 66         5.9397740474e-03
 67         2.3788731746e-03
 68         1.1271174688e-03
 69        -1.1038403535e-02
 70         3.1511511111e-03
 71        -2.9123370135e-02
 72        -5.3547820593e-03
 73         2.8086792110e-03
 74         1.1369619811e-03
 75        -1.9777223240e-03
 76        -2.2041436005e-03
 77         2.6828814946e-03
 78         3.3935973176e-04
 79         5.5170531161e-04
 80        -2.3151751545e-04
 81        -6.7715327124e-03
 82        -1.9723716129e-03
 83         7.2047766755e-04
 84         9.0964744710e-04
 85         9.2434244731e-04
 86        -4.2927136743e-02
 87         2.0175146514e-03
 88        -8.9869485391e-03
 89        -7.4351050482e-03
 90        -7.7466993844e-04
 91        -6.7388294998e-03
 92        -5.8589926172e-03
 93        -9.6016811614e-04
 94         1.7769308941e-03
 95         1.1422421173e-04
 96        -2.6612619781e-03
 97         1.3819971733e-03
 98         8.4475636086e-05
 99         8.1948469592e-04
100        -1.3669708715e-04
 Sym= A
 Ene=        -8.1723866698e-01
 Spin= Alpha
 Occup=         2.0000000000e+00
  1         1.2048147071e-02
  2        -1.7860932008e-01
  3        -7.3773394183e-02
  4         7.2601781783e-02
  5         1.7229485981e-02
  6        -6.3761691862e-03
  7         1.4416961304e-03
  8        -1.0717746949e-02
  9         7.2298000314e-03
 10         5.7723305450e-03
 11         1.0439770442e-03
 12        -3.2361849343e-04
 13        -1.0858590985e-02
 14        -2.4990181539e-03
 15         1.9638191946e-02
 16        -2.8566815585e-01
 17        -2.0505590241e-01
 18        -1.1116598863e-02
 19         7.8198869843e-02
 20        -7.4277327710e-03
 21        -2.9503599146e-02
 22         3.1782969063e-02
 23        -8.5692565577e-03
 24         1.0506822535e-02
 25         2.4150498073e-03
 26         2.2489943039e-03
 27        -1.3834715548e-03
 28        -7.3865809968e-03
 29         1.7629931639e-02
 30        -2.4975696295e-01
 31        -1.3081722123e-01
 32        -6.4628995056e-02
 33        -5.2282416563e-02
 34         2.7520307614e-02
 35        -4.1962793155e-03
 36        -1.6303042555e-02
 37         6.7477619949e-03
 38         6.6922418608e-03
 39         3.1597485996e-03
 40         3.0343685184e-03
 41         7.7867682453e-03
 42        -7.9493528749e-03
 43         2.7527978463e-03
 44        -6.1412790854e-02
 45        -4.7605790345e-02
 46         8.5537528075e-02
 47        -8.4541149557e-02
 48        -9.7231695926e-03
 49         2.2869438461e-02
 50        -2.4077376103e-02
 51        -4.7314198292e-03
 52         2.9462811348e-03
 53        -6.1010411464e-04
 54        -1.1941227484e-03
 55         1.4521646866e-02
 56         3.5362997990e-03
 57        -5.6984599455e-04
 58         9.2214213679e-02
 59         9.1891341885e-02
 60        -1.7705442260e-02
 61        -2.3399988857e-02
 62         1.9282146123e-03
 63        -1.5075806425e-04
 64        -9.3826139532e-03
 65        -1.1957718421e-05
 66         5.5618085737e-05
 67        -2.7575554699e-04
 68        -4.8988458107e-04
 69         1.9834678624e-03
 70         1.9894069398e-03
 71        -7.4459859167e-02
 72         8.4754990829e-04
 73         4.0717268046e-03
 74        -9.9997676075e-03
 75        -4.8771938879e-03
 76        -5.4151855480e-02
 77         2.2003802889e-03
 78         5.4602464086e-03
 79         7.3971522597e-03
 80        -3.7604103157e-03
 81        -6.6102037037e-02
 82        -5.0079496585e-03
 83         5.0788946287e-03
 84        -4.9165451138e-04
 85         8.2579674167e-03
 86        -1.4584194862e-02
 87        -1.3135866335e-03
 88         9.8861790393e-04
 89        -2.8394415423e-03
 90        -1.4828515720e-04
 91        -7.8327738966e-02
 92        -2.5814019295e-03
 93        -1.3457838243e-02
 94        -2.4350559151e-03
 95         8.0285313324e-04
 96        -9.3096146594e-02
 97        -1.4048220082e-02
 98        -6.5043030849e-03
 99         1.2256759720e-02
100        -4.5792890061e-03
 Sym= A
 Ene=        -7.1796659084e-01
 Spin= Alpha
 Occup=         2.0000000000e+00
  1         1.4631526679e-02
  2        -2.7247470320e-01
  3        -1.1731452699e-01
  4         2.3778386761e-02
  5         6.6167545956e-03
  6        -7.0844749619e-03
  7        -1.3677270386e-02
  8        -9.8448602751e-03
  9         5.3778374063e-03
 10         1.4693172768e-03
 11         2.1463375300e-05
 12        -7.6125099176e-04
 13        -3.2320619176e-03
 14         3.0663210063e-03
 15         5.5592275866e-03
 16        -6.0771241434e-02
 17        -9.2961892977e-02
 18        -1.3665661786e-01
 19        -7.7706829014e-02
 20         1.5957007424e-02
 21        -7.8893616145e-02
 22         3.3629654587e-04
 23        -2.3909828630e-03
 24         3.4923773497e-03
 25        -1.7312188492e-04
 26        -1.2038272781e-03
 27        -1.7624537527e-02
 28         7.2482315308e-03
 29        -1.3470686286e-02
 30         2.2507801916e-01
 31         1.6361949780e-01
 32        -1.6575546055e-03
 33        -7.1648859860e-02
 34        -1.4579712642e-02
 35         2.8819808849e-02
 36        -2.7944409249e-02
 37        -2.5273434494e-03
 38        -3.5566326869e-03
 39        -3.6760267547e-04
 40         2.3595290952e-03
 41        -8.9468150876e-03
 42        -8.1543333022e-03
 43        -4.1715864587e-03
 44         1.8295024639e-01
 45         9.5166931983e-02
 46        -1.1146213338e-01
 47         5.7596361432e-02
 48         1.1709629138e-02
 49        -3.8808680912e-02
 50         1.1233649558e-02
 51         1.4724725019e-03