[Molden Format]
[Atoms] (AU)
C    1    6           1.6464861798         3.0059929833         0.3031530915
C    2    6          -0.7903264682         2.4116237556        -0.1641783903
C    3    6          -2.0419521555        -0.0115557656         0.2897915751
C    4    6          -0.8936441071        -2.2856546227         0.1027399825
O    5    8           1.5763579709        -2.6755490963        -0.4104960082
H    6    1           2.3607758211        -1.0231290330        -0.6925884850
H    7    1           2.4334167422         4.8281844355        -0.2721079058
H    8    1           2.9037427029         1.7408876528         1.3562914330
H    9    1          -1.9155264919        -4.0702947413         0.2584780762
H   10    1          -4.0782664719        -0.0185230725         0.6305469711
H   11    1          -1.9625924643         3.8516366750        -1.0943045183
[GTO]
  1 0
 s    8  1.00
     6665.0000000000         0.0006920000
     1000.0000000000         0.0053290000
      228.0000000000         0.0270770000
       64.7100000000         0.1017180000
       21.0600000000         0.2747400000
        7.4950000000         0.4485640000
        2.7970000000         0.2850740000
        0.5215000000         0.0152040000
 s    8  1.00
     6665.0000000000        -0.0001460000
     1000.0000000000        -0.0011540000
      228.0000000000        -0.0057250000
       64.7100000000        -0.0233120000
       21.0600000000        -0.0639550000
        7.4950000000        -0.1499810000
        2.7970000000        -0.1272620000
        0.5215000000         0.5445290000
 s    1  1.00
        0.1596000000         1.0000000000
 p    3  1.00
        9.4390000000         0.0381090000
        2.0020000000         0.2094800000
        0.5456000000         0.5085570000
 p    1  1.00
        0.1517000000         1.0000000000
 d    1  1.00
        0.5500000000         1.0000000000

  2 0
 s    8  1.00
     6665.0000000000         0.0006920000
     1000.0000000000         0.0053290000
      228.0000000000         0.0270770000
       64.7100000000         0.1017180000
       21.0600000000         0.2747400000
        7.4950000000         0.4485640000
        2.7970000000         0.2850740000
        0.5215000000         0.0152040000
 s    8  1.00
     6665.0000000000        -0.0001460000
     1000.0000000000        -0.0011540000
      228.0000000000        -0.0057250000
       64.7100000000        -0.0233120000
       21.0600000000        -0.0639550000
        7.4950000000        -0.1499810000
        2.7970000000        -0.1272620000
        0.5215000000         0.5445290000
 s    1  1.00
        0.1596000000         1.0000000000
 p    3  1.00
        9.4390000000         0.0381090000
        2.0020000000         0.2094800000
        0.5456000000         0.5085570000
 p    1  1.00
        0.1517000000         1.0000000000
 d    1  1.00
        0.5500000000         1.0000000000

  3 0
 s    8  1.00
     6665.0000000000         0.0006920000
     1000.0000000000         0.0053290000
      228.0000000000         0.0270770000
       64.7100000000         0.1017180000
       21.0600000000         0.2747400000
        7.4950000000         0.4485640000
        2.7970000000         0.2850740000
        0.5215000000         0.0152040000
 s    8  1.00
     6665.0000000000        -0.0001460000
     1000.0000000000        -0.0011540000
      228.0000000000        -0.0057250000
       64.7100000000        -0.0233120000
       21.0600000000        -0.0639550000
        7.4950000000        -0.1499810000
        2.7970000000        -0.1272620000
        0.5215000000         0.5445290000
 s    1  1.00
        0.1596000000         1.0000000000
 p    3  1.00
        9.4390000000         0.0381090000
        2.0020000000         0.2094800000
        0.5456000000         0.5085570000
 p    1  1.00
        0.1517000000         1.0000000000
 d    1  1.00
        0.5500000000         1.0000000000

  4 0
 s    8  1.00
     6665.0000000000         0.0006920000
     1000.0000000000         0.0053290000
      228.0000000000         0.0270770000
       64.7100000000         0.1017180000
       21.0600000000         0.2747400000
        7.4950000000         0.4485640000
        2.7970000000         0.2850740000
        0.5215000000         0.0152040000
 s    8  1.00
     6665.0000000000        -0.0001460000
     1000.0000000000        -0.0011540000
      228.0000000000        -0.0057250000
       64.7100000000        -0.0233120000
       21.0600000000        -0.0639550000
        7.4950000000        -0.1499810000
        2.7970000000        -0.1272620000
        0.5215000000         0.5445290000
 s    1  1.00
        0.1596000000         1.0000000000
 p    3  1.00
        9.4390000000         0.0381090000
        2.0020000000         0.2094800000
        0.5456000000         0.5085570000
 p    1  1.00
        0.1517000000         1.0000000000
 d    1  1.00
        0.5500000000         1.0000000000

  5 0
 s    8  1.00
    11720.0000000000         0.0007100000
     1759.0000000000         0.0054700000
      400.8000000000         0.0278370000
      113.7000000000         0.1048000000
       37.0300000000         0.2830620000
       13.2700000000         0.4487190000
        5.0250000000         0.2709520000
        1.0130000000         0.0154580000
 s    8  1.00
    11720.0000000000        -0.0001600000
     1759.0000000000        -0.0012630000
      400.8000000000        -0.0062670000
      113.7000000000        -0.0257160000
       37.0300000000        -0.0709240000
       13.2700000000        -0.1654110000
        5.0250000000        -0.1169550000
        1.0130000000         0.5573680000
 s    1  1.00
        0.3023000000         1.0000000000
 p    3  1.00
       17.7000000000         0.0430180000
        3.8540000000         0.2289130000
        1.0460000000         0.5087280000
 p    1  1.00
        0.2753000000         1.0000000000
 d    1  1.00
        1.1850000000         1.0000000000

  6 0
 s    3  1.00
       13.0100000000         0.0196850000
        1.9620000000         0.1379770000
        0.4446000000         0.4781480000
 s    1  1.00
        0.1220000000         1.0000000000
 p    1  1.00
        0.7270000000         1.0000000000

  7 0
 s    3  1.00
       13.0100000000         0.0196850000
        1.9620000000         0.1379770000
        0.4446000000         0.4781480000
 s    1  1.00
        0.1220000000         1.0000000000
 p    1  1.00
        0.7270000000         1.0000000000

  8 0
 s    3  1.00
       13.0100000000         0.0196850000
        1.9620000000         0.1379770000
        0.4446000000         0.4781480000
 s    1  1.00
        0.1220000000         1.0000000000
 p    1  1.00
        0.7270000000         1.0000000000

  9 0
 s    3  1.00
       13.0100000000         0.0196850000
        1.9620000000         0.1379770000
        0.4446000000         0.4781480000
 s    1  1.00
        0.1220000000         1.0000000000
 p    1  1.00
        0.7270000000         1.0000000000

  10 0
 s    3  1.00
       13.0100000000         0.0196850000
        1.9620000000         0.1379770000
        0.4446000000         0.4781480000
 s    1  1.00
        0.1220000000         1.0000000000
 p    1  1.00
        0.7270000000         1.0000000000

  11 0
 s    3  1.00
       13.0100000000         0.0196850000
        1.9620000000         0.1379770000
        0.4446000000         0.4781480000
 s    1  1.00
        0.1220000000         1.0000000000
 p    1  1.00
        0.7270000000         1.0000000000

[5D7F]
[9G]

[MO]
 Sym= A
 Ene=        -1.9174068896e+01
 Spin= Alpha
 Occup=         2.0000000000e+00
  1        -8.0720301119e-05
  2        -1.3861970217e-04
  3         1.2628941829e-03
  4        -1.0550915335e-04
  5         7.5285062616e-05
  6         2.3025747625e-05
  7        -2.6697638925e-04
  8        -1.3688551656e-03
  9         1.5162928439e-04
 10        -7.0064917433e-05
 11         1.4471986621e-05
 12         4.1236412173e-05
 13        -4.9314829667e-05
 14         7.7449989315e-05
 15         2.1691549981e-04
 16         3.7367994524e-04
 17        -5.6456558745e-03
 18        -3.8682772746e-06
 19         4.6522822810e-06
 20         6.5020921723e-05
 21         1.8875575130e-04
 22         2.9892377732e-03
 23        -8.9543077752e-04
 24         7.1438197169e-05
 25        -1.2568636815e-04
 26         1.0281254704e-04
 27        -7.9893264460e-06
 28         1.7789360915e-05
 29        -1.9095922564e-04
 30        -2.7737448162e-04
 31         4.9196380901e-03
 32         6.0508529479e-05
 33        -2.7533404605e-04
 34         7.0392752921e-06
 35         4.6821437633e-03
 36         3.0874607212e-03
 37        -1.0691847725e-03
 38        -1.5905237403e-04
 39        -1.3737556842e-04
 40         6.8378317456e-05
 41         3.7855202006e-04
 42        -3.9712429546e-04
 43        -1.9244275867e-04
 44        -3.5093560113e-04
 45        -5.7782985115e-03
 46        -3.2755921179e-04
 47         2.1848479351e-04
 48         1.0147280616e-04
 49        -5.8304511512e-03
 50        -1.5598857195e-03
 51         1.2013752919e-03
 52         4.1036161261e-04
 53         5.9428538236e-06
 54         6.9955651351e-05
 55         7.1532208403e-04
 56        -3.9845268866e-04
 57        -1.0040801183e+00
 58        -9.3503464565e-03
 59         1.4071930652e-02
 60         8.9355703723e-04
 61        -1.4388419413e-03
 62        -7.1661640349e-05
 63        -3.2202201845e-03
 64         1.4293395832e-03
 65         6.1184463956e-04
 66         1.8209527046e-05
 67        -9.0314801613e-07
 68         7.9449979272e-05
 69         1.4387566562e-04
 70        -2.5904348395e-04
 71        -2.8342149191e-04
 72        -3.6048026431e-04
 73        -2.1739609905e-04
 74        -9.6218210363e-04
 75         4.7984083569e-05
 76         5.5285315468e-05
 77         3.0204185140e-04
 78         3.8042176742e-05
 79         6.3040977933e-05
 80         8.7822263788e-06
 81        -2.3660550193e-04
 82        -1.8558286936e-04
 83         3.0233144392e-06
 84        -2.9266365956e-05
 85        -1.6812236182e-05
 86         4.1150557393e-04
 87        -9.1952355004e-04
 88         6.3259980794e-04
 89         1.5116847183e-04
 90        -1.2520259039e-04
 91         1.6995871446e-04
 92         1.2498050126e-03
 93        -2.2324586064e-04
 94        -2.0502969003e-04
 95         6.2225360754e-05
 96         8.5700287423e-05
 97        -6.2130287587e-04
 98        -3.4964044274e-05
 99        -1.0885115307e-04
100         2.7132599215e-05
 Sym= A
 Ene=        -1.0250478092e+01
 Spin= Alpha
 Occup=         2.0000000000e+00
  1        -2.7959834764e-04
  2        -3.4135564256e-04
  3         1.0876840375e-03
  4         1.4730795289e-04
  5         7.8789696700e-05
  6         7.2661601154e-05
  7        -1.2587315276e-03
  8         5.1275368161e-04
  9        -6.3340359601e-04
 10        -7.3499214252e-05
 11        -1.6412119757e-05
 12        -2.7881672185e-05
 13         5.3768024783e-05
 14        -3.9812332389e-05
 15        -4.9763943839e-04
 16        -7.0990575570e-04
 17         4.9062305254e-03
 18        -1.1662111645e-04
 19         1.4777099202e-05
 20         1.7723404477e-06
 21        -2.3827772244e-03
 22        -4.1567048638e-03
 23         7.5761455820e-04
 24        -3.5446555792e-04
 25        -9.3344099661e-05
 26        -1.0225739840e-04
 27         7.7773520615e-06
 28         1.8617348440e-04
 29         4.6009569325e-03
 30        -1.0108040157e-03
 31         7.5510523231e-05
 32        -5.7869894628e-04
 33         1.3588641104e-03
 34         9.4159881750e-05
 35        -1.9651238975e-03
 36        -6.4708978810e-03
 37         7.5663952489e-04
 38         1.0784504590e-03
 39         2.3802911326e-04
 40        -5.6015071113e-05
 41         5.6647553471e-04
 42         9.0849139515e-04
 43         1.0059198627e+00
 44         1.5311777910e-02
 45        -1.2539917955e-02
 46         5.6190872052e-04
 47        -4.8345470660e-04
 48        -1.8977116539e-04
 49         5.0260321697e-03
 50        -2.3410829187e-03
 51        -9.9456867764e-04
 52        -1.6447774330e-03
 53        -5.0432360026e-04
 54         4.0457775012e-05
 55        -3.4677046327e-04
 56         6.2827576256e-06
 57         7.1693745174e-04
 58         1.2949961696e-03
 59        -4.8972448975e-03
 60         2.6174986420e-04
 61        -2.0558014909e-04
 62        -3.4506753311e-05
 63         3.2499906870e-03
 64        -2.4551585680e-04
 65        -7.0456850719e-04
 66         6.9392406081e-04
 67         4.3185780827e-04
 68        -2.0619082152e-05
 69        -7.6376674378e-04
 70         1.8996933253e-04
 71         5.0737635878e-04
 72        -4.3633359373e-04
 73        -6.2566286750e-04
 74        -2.4884223128e-05
 75         1.2083446459e-04
 76        -5.6277410385e-05
 77         1.5979167975e-04
 78        -2.5979103984e-05
 79        -5.5111362268e-05
 80         3.0463774816e-05
 81         7.8380084584e-06
 82         9.4067651879e-04
 83         1.0138596113e-05
 84         6.2820510006e-05
 85        -2.9613184160e-05
 86        -2.2092756429e-03
 87         2.3372034236e-03
 88        -1.5440304673e-03
 89        -1.6135891184e-03
 90         2.5443504453e-04
 91        -1.3572108053e-04
 92        -2.5368688688e-04
 93         3.0562923850e-04
 94         2.9264692980e-04
 95        -7.6232781177e-05
 96        -5.3921256218e-05
 97         5.4922105996e-04
 98         1.7182451416e-04
 99         1.3101069256e-04
100        -3.0774005207e-05
 Sym= A
 Ene=        -1.0206426531e+01
 Spin= Alpha
 Occup=         2.0000000000e+00
  1         2.2015051275e-02
  2        -1.1229276773e-03
  3         4.7870511923e-03
  4         1.3272996791e-03
  5         3.3677351470e-04
  6         1.6110522359e-04
  7        -2.0697430690e-03
  8        -1.8205439447e-03
  9         3.7863068417e-04
 10         7.6034971469e-04
 11        -5.3192972770e-04
 12        -2.5747834088e-05
 13        -1.0683247143e-03
 14        -3.9755308199e-04
 15         1.0061826966e+00
 16         1.6250470639e-02
 17        -1.9252299793e-02
 18        -1.2370573593e-04
 19         1.9808813980e-04
 20        -2.5945095613e-04
 21        -1.7068813840e-03
 22         3.2270491663e-03
 23        -1.7213849853e-03
 24        -7.4372553370e-04
 25         6.9883233166e-04
 26        -6.5168706654e-04
 27         2.2758597074e-04
 28        -1.7624033525e-05
 29         5.4784751700e-03
 30        -4.5338042068e-04
 31         1.1729799082e-03
 32        -4.6785427979e-04
 33        -6.2986813514e-04
 34         1.4338798741e-04
 35         8.2672327786e-04
 36         3.8790033726e-03
 37         2.5874221687e-04
 38         7.9974496799e-04
 39         2.9671659279e-05
 40         5.7651835819e-04
 41         1.1081619365e-03
 42        -9.6169507273e-04
 43        -3.4945249234e-04
 44        -6.9544957714e-04
 45         4.0683231265e-03
 46        -1.0881219247e-04
 47        -1.5686943447e-04
 48         1.2829955928e-04
 49        -6.1252280900e-04
 50         2.7518833004e-03
 51        -2.5957139981e-04
 52        -4.2706644662e-04
 53        -3.1399586916e-04
 54         6.4625501652e-05
 55         4.1625083275e-04
 56        -3.2186323360e-04
 57         8.7114941709e-05
 58         1.2664591169e-04
 59        -1.2162168281e-03
 60         1.6347998221e-04
 61        -4.1269436295e-05
 62        -2.6398948830e-05
 63         1.3819848872e-04
 64        -6.7276574583e-04
 65         7.9950034073e-05
 66         8.2626757071e-05
 67         2.6198825274e-05
 68         1.7937769135e-05
 69        -1.6996630324e-05
 70         1.3910211833e-05
 71         2.8132306577e-04
 72         6.0320956260e-04
 73        -2.8042456037e-04
 74        -7.9160462975e-05
 75        -2.0967174950e-05
 76        -5.2474035060e-05
 77         8.9756860126e-04
 78         1.4458278748e-04
 79        -1.1162388903e-04
 80         7.6222889826e-05
 81        -2.6885019075e-04
 82        -2.1525522590e-04
 83         3.6666538432e-05
 84         2.4033935424e-04
 85        -1.0948230098e-04
 86         1.0882064092e-04
 87         7.9122181826e-04
 88         1.8177620790e-04
 89        -5.0012185981e-05
 90         2.5403846126e-06
 91        -2.9754270896e-04
 92         4.3749299653e-04
 93        -7.2979784923e-05
 94        -3.8636175060e-04
 95        -5.7860333917e-05
 96        -2.2754595365e-03
 97         1.1996190811e-03
 98        -1.1470600683e-03
 99         1.4991648182e-03
100        -9.5247758354e-04
 Sym= A
 Ene=        -1.0190999286e+01
 Spin= Alpha
 Occup=         2.0000000000e+00
  1         1.0061758492e+00
  2         1.6339663978e-02
  3        -1.5272859249e-02
  4         2.7795799207e-04
  5        -5.6831305275e-05
  6         2.8413825739e-05
  7         2.2140853586e-03
  8         7.4342743528e-04
  9         7.3387871510e-04
 10        -1.0385383607e-03
 11         7.1570801336e-04
 12        -1.1897468503e-03
 13         4.2046984305e-05
 14         3.2641413705e-04
 15        -2.3231625556e-02
 16        -1.4406018829e-03
 17         1.0105164865e-03
 18        -1.3317208396e-03
 19        -3.2728228542e-04
 20        -2.7103329073e-04
 21         2.9359681359e-03
 22         2.4876893863e-03
 23        -3.2581213551e-05
 24         9.9952114481e-04
 25        -5.8391260939e-04
 26         1.8356671854e-04
 27        -9.9422011628e-04
 28        -7.7005192527e-04
 29        -1.0189410178e-03
 30        -5.1722159094e-04
 31         3.5056562104e-03
 32        -8.4015288731e-05
 33         5.0398788525e-05
 34        -6.5099118465e-05
 35         1.9259902503e-03
 36         2.4794039606e-03
 37        -5.0054107237e-04
 38        -3.7477152016e-04
 39         7.6899597062e-05
 40        -2.4248296260e-04
 41        -3.3877039622e-04
 42         2.9061498944e-05
 43         1.0760907122e-05
 44        -2.0730689828e-04
 45        -6.1455972011e-04
 46         6.4239494354e-07
 47        -1.3445216629e-04
 48        -5.0621459524e-05
 49        -1.3140300270e-03
 50        -1.6627321830e-04
 51         2.9998598704e-04
 52         6.0719096528e-05
 53         9.7770836851e-05
 54        -9.0016208973e-05
 55        -4.3463050321e-05
 56         1.0465807519e-04
 57         9.9906822441e-06
 58         3.3445338276e-05
 59         4.1107817794e-04
 60         1.2000790343e-04
 61         6.7430797615e-05
 62        -3.6422642302e-05
 63        -6.5685801913e-04
 64        -1.6949926751e-04
 65         1.0036575365e-04
 66        -3.2204507005e-05
 67        -3.3089400040e-05
 68        -2.6668198795e-05
 69         7.8000942904e-05
 70         5.7143709158e-05
 71         1.7028449444e-04
 72         1.2678469835e-03
 73        -1.2128987310e-04
 74         4.2883428221e-04
 75         8.5305090848e-05
 76        -2.3049479325e-03
 77         1.8870916858e-03
 78         7.5048231087e-04
 79         2.0141948306e-03
 80        -7.0542701973e-04
 81        -2.1177463669e-03
 82         1.4910487914e-03
 83         1.2173236536e-03
 84        -1.4850961693e-03
 85         1.2127622951e-03
 86        -8.2447744324e-05
 87        -4.2490130825e-05
 88         4.1537281075e-05
 89         1.9517009004e-05
 90        -2.0711731977e-05
 91         1.1018847521e-04
 92         5.7550316155e-04
 93         1.3148634921e-05
 94        -1.3166173707e-04
 95         4.3618714024e-05
 96         7.9884351625e-05
 97         2.5969970446e-04
 98         1.5995484720e-05
 99        -3.1534203145e-04
100         1.0911365700e-04
 Sym= A
 Ene=        -1.0182456587e+01
 Spin= Alpha
 Occup=         2.0000000000e+00
  1         3.0752207389e-04
  2        -4.4686802083e-04
  3         2.7347197758e-03
  4         7.1474523970e-05
  5         1.0578679822e-04
  6        -8.6109975482e-05
  7        -2.0595111170e-03
  8        -4.0903376863e-04
  9        -3.7835330192e-05
 10        -2.5672497347e-04
 11         5.1927418563e-04
 12        -2.9825287382e-04
 13         2.7441354230e-04
 14        -4.8456164695e-04
 15        -5.8757262964e-03
 16        -7.0089170309e-04
 17         3.0819532179e-03
 18         2.1302372295e-04
 19         7.0946129133e-04
 20        -1.7883723899e-04
 21        -2.0386429027e-03
 22        -3.8688938980e-03
 23        -2.6722735865e-05
 24         9.0706080208e-04
 25         4.9457802348e-04
 26         3.5120764545e-04
 27         5.5995650609e-04
 28        -1.3168930807e-03
 29         1.0066423186e+00
 30         1.6737068636e-02
 31        -2.1884762607e-02
 32        -2.2098436318e-04
 33        -1.5701097935e-04
 34        -9.7846049134e-05
 35        -5.1600763442e-03
 36        -2.4658986709e-04
 37         1.5516210220e-03
 38        -1.0735378166e-03
 39        -3.9598726263e-04
 40        -7.5149794512e-06
 41         2.6912408547e-04
 42        -2.0256003582e-04
 43        -5.8570954502e-03
 44        -1.5999804431e-03
 45         6.7455831649e-03
 46         6.3645201417e-04
 47        -1.2359042556e-03
 48        -9.1596049397e-05
 49         3.3419936680e-04
 50         4.2336413071e-03
 51        -3.3433682883e-04
 52         8.4080411520e-04
 53         1.5897934886e-04
 54        -2.0392987733e-04
 55         7.0502994572e-04
 56         1.0162841683e-03
 57         3.4332030072e-05
 58         4.8458675259e-05
 59        -9.7461481012e-04
 60         3.0417011591e-05
 61        -5.8466161678e-05
 62        -2.8762452564e-06
 63        -1.0590071227e-04
 64        -7.0198022563e-04
 65         6.4169678306e-05
 66        -5.8130772122e-05
 67        -4.1602998882e-05
 68        -1.1982604056e-05
 69         9.3758628857e-05
 70         8.0148236253e-05
 71         2.6999959079e-04
 72         4.3573721884e-05
 73        -1.4160684334e-04
 74        -1.6064921988e-04
 75         2.3065836405e-05
 76         1.1540062516e-04
 77         5.0219423441e-04
 78         1.3942143318e-04
 79        -1.4757593849e-04
 80         5.0015425724e-05
 81        -6.9677737485e-04
 82         5.0289166687e-04
 83         1.8558600965e-04
 84        -1.2426983274e-04
 85         1.1976516192e-04
 86         1.5639346803e-04
 87         1.2318780064e-03
 88         2.9048978149e-04
 89        -2.1751031181e-05
 90        -1.6293147323e-05
 91        -2.3732210753e-03
 92         8.3292140898e-04
 93        -2.1090726876e-03
 94        -5.5328843880e-05
 95         2.8394201888e-04
 96        -3.3923735022e-04
 97         7.1893880641e-04
 98         1.9815334051e-04
 99         2.8759865251e-04
100         7.1602000119e-05
 Sym= A
 Ene=        -1.0643432217e+00
 Spin= Alpha
 Occup=         2.0000000000e+00
  1         1.4258886034e-04
  2         8.4887040512e-03
  3        -4.4450417856e-03
  4        -1.9113338449e-03
  5        -5.1248175387e-03
  6        -6.6758629038e-04
  7         2.7049067505e-03
  8         5.1999166303e-03
  9        -1.9300355215e-03
 10        -2.5098363715e-04
 11        -5.4484824619e-04
 12         6.9281509672e-04
 13        -7.9525484525e-04
 14         9.6039202406e-04
 15        -1.1752272549e-04
 16         1.3178587299e-02
 17         2.2185027664e-03
 18         1.5585109715e-03
 19        -8.6858391328e-03
 20         9.3838783023e-04
 21         6.0697091048e-03
 22         3.1278544870e-03
 23         2.5036960216e-04
 24        -1.3889502411e-03
 25        -1.4031392976e-04
 26        -4.1524317092e-04
 27        -1.3534509501e-03
 28         3.7779682480e-04
 29        -1.3263956646e-03
 30         3.5558181841e-02
 31        -3.9640728010e-03
 32         2.1392660021e-02
 33        -1.8379107280e-02
 34        -4.3040002164e-03
 35         5.3470838360e-03
 36         1.4854518857e-02
 37        -2.1245696902e-03
 38        -2.2580795943e-03
 39        -1.0599037095e-03
 40         1.5328931091e-03
 41         1.9903736240e-03
 42        -8.0567230661e-03
 43        -1.2786232317e-02
 44         1.5457386622e-01
 45         8.5014548336e-02
 46         1.2611815144e-01
 47        -5.2716668046e-03
 48        -2.7194589022e-02
 49         5.3048859255e-03
 50         2.3993094465e-02
 51        -1.1641369608e-03
 52        -1.1092639403e-02
 53        -1.0773336705e-02
 54         8.3474815939e-04
 55         2.8326927212e-02
 56        -4.6507333520e-03
 57        -6.6734927723e-03
 58         4.2394807725e-01
 59         3.7353983812e-01
 60        -7.3497305289e-02
 61         8.9430621588e-02
 62         9.9928259479e-03
 63        -3.1215046760e-02
 64        -1.4626969648e-03
 65         6.7402712965e-03
 66        -6.3507308644e-03
 67        -3.3755541888e-03
 68        -3.0062931055e-04
 69         4.0460631634e-03
 70        -1.7590273580e-03
 71         1.6967963940e-01
 72         5.0196586552e-03
 73        -1.8768214084e-02
 74        -2.9506212308e-02
 75         6.6047972913e-03
 76         3.7872983686e-05
 77        -3.9288541994e-03
 78         5.0763179730e-05
 79         9.9986560502e-05
 80        -1.5699947923e-04
 81         7.5736187033e-03
 82         4.5400731328e-03
 83        -1.1415448889e-03
 84        -6.3602051898e-04
 85        -8.9751408083e-04
 86         3.4706930417e-02
 87         5.4836620682e-03
 88         8.2640655287e-03
 89         4.5758735442e-03
 90        -1.5001409672e-03
 91         5.1974467323e-03
 92         1.9280789581e-03
 93         4.8763646860e-04
 94        -2.2590984449e-03
 95         7.1964255437e-06
 96         1.6474737808e-03
 97        -1.0757760538e-03
 98        -3.0633111545e-04
 99        -4.5250489593e-04
100        -9.0952703701e-05
 Sym= A
 Ene=        -8.0158851528e-01
 Spin= Alpha
 Occup=         2.0000000000e+00
  1         1.4733604681e-02
  2        -1.9257395373e-01
  3        -1.0484937572e-01
  4         8.3118025964e-02
  5         2.9278133580e-02
  6         1.3803656272e-02
  7         8.6926170935e-03
  8        -2.7815185721e-03
  9         8.2800909872e-03
 10         4.8248454858e-03
 11        -2.2997563087e-03
 12        -3.3044133789e-03
 13        -7.8224867136e-03
 14        -6.0178024298e-03
 15         1.9322596314e-02
 16        -2.7832429700e-01
 17        -1.7809634346e-01
 18        -3.8167115303e-02
 19         4.0260834777e-02
 20        -1.8593966720e-02
 21        -1.8665027733e-02
 22         2.0500509381e-02
 23        -1.3726153952e-02
 24         1.0488300951e-02
 25        -8.3449623220e-04
 26         1.2574046721e-03
 27        -1.5391137119e-03
 28        -1.0969363278e-02
 29         1.8147037824e-02
 30        -2.4075660918e-01
 31        -1.4239543220e-01
 32        -5.4277205179e-02
 33        -1.5979273243e-02
 34         1.4968531064e-02
 35        -1.9380498788e-02
 36        -1.2062279650e-02
 37         9.6008530836e-03
 38         8.6716682205e-03
 39         1.6657840253e-03
 40         2.5809983693e-03
 41         9.5033833336e-03
 42        -5.3846012894e-03
 43         5.4448725801e-03
 44        -1.2337722059e-01
 45        -6.6296777954e-02
 46         6.0727971587e-02
 47        -8.5334236180e-02
 48        -1.0054779862e-02
 49         2.3470796801e-02
 50        -1.2515060166e-02
 51        -6.7393761820e-03
 52         3.3239151008e-03
 53        -1.6728354833e-03
 54        -5.1897051666e-04
 55         1.2158516004e-02
 56         4.0482948440e-03
 57         1.0911741638e-03
 58         8.8502924377e-02
 59         8.1828963437e-02
 60         2.6439291726e-02
 61         2.0759701823e-03
 62        -7.0771801315e-03
 63         1.6216829338e-02
 64        -7.7985336333e-03
 65        -3.3017301214e-03
 66         7.8687025825e-04
 67         4.0376341326e-04
 68        -6.8720353607e-04
 69        -1.0401107733e-03
 70         2.8967997722e-03
 71         3.3273691033e-02
 72         3.7214935113e-03
 73        -1.9818621788e-03
 74        -9.1296704858e-03
 75         2.3311735845e-04
 76        -5.9819849305e-02
 77        -5.5720632442e-04
 78         5.8632821050e-03
 79         8.8175250091e-03
 80        -2.1810521984e-03
 81        -6.9528581048e-02
 82        -4.6414442870e-03
 83         8.1626849979e-03
 84        -5.5903361535e-03
 85         5.8373038047e-03
 86        -3.2761894553e-02
 87         1.1378258396e-03
 88        -4.6383196984e-04
 89        -5.7983606761e-03
 90         2.0553467069e-04
 91        -8.1207843221e-02
 92        -8.5973918879e-03
 93        -1.3025385127e-02
 94        -9.4361668290e-04
 95         2.0721494572e-03
 96        -9.5461062624e-02
 97        -1.2119681637e-02
 98        -8.4910987081e-03
 99         1.0773331721e-02
100        -6.4171686067e-03
 Sym= A
 Ene=        -7.3141822876e-01
 Spin= Alpha
 Occup=         2.0000000000e+00
  1         1.6183542458e-02
  2        -2.2664883564e-01
  3        -1.2666796211e-01
  4         5.4084397024e-02
  5         9.3646306448e-03
  6         1.3652166496e-02
  7         2.5246677330e-03
  8         1.0885891955e-03
  9         2.8151099786e-03
 10         3.1070409330e-03
 11        -2.5645549794e-03
 12        -2.2338326735e-03
 13        -5.4411151023e-03
 14         6.0313908964e-05
 15         8.7977712966e-03
 16        -1.3374210462e-01
 17        -1.0083669652e-01
 18        -1.0938169170e-01
 19        -7.6396419209e-02
 20        -6.5104353137e-03
 21        -4.7657548344e-02
 22        -1.2814701291e-02
 23        -6.4743625277e-03
 24         2.3645363680e-03
 25        -4.1055540624e-03
 26        -2.5475178069e-03
 27        -1.4495729973e-02
 28         4.1562903881e-04
 29        -1.3341655204e-02
 30         1.9887531320e-01
 31         1.2970368603e-01
 32         9.7068047629e-03
 33        -1.1982190095e-01
 34        -4.3352231460e-03
 35         1.8485128920e-02
 36        -3.3532664898e-02
 37        -2.3192018046e-04
 38        -3.3952899786e-03
 39         1.9412136694e-04
 40         1.9700443594e-03
 41        -6.8970238750e-03
 42        -1.2073904625e-02
 43        -1.0029864806e-02
 44         2.5198856381e-01
 45         1.4021781487e-01
 46        -7.3030920810e-02
 47         5.9368630059e-02
 48         1.1111520481e-02
 49        -2.2722922239e-02
 50         9.8858467912e-03
 51         2.7184043531e-03