[Molden Format]
[Atoms] (AU)
C    1    6           1.7927983902         2.4590749366        -0.0648560200
C    2    6          -0.8883696597         2.2965630440        -0.0798980132
C    3    6          -2.1685867521         0.0426436651         0.4229751163
C    4    6          -0.8021664955        -2.2197148527         0.0741764412
O    5    8           1.5819993276        -2.3108324009        -0.2278279664
H    6    1           2.1917589194         0.1022988040        -0.7264058429
H    7    1           2.6498713156         4.1323816704        -0.9290705795
H    8    1           2.7548823004         1.8859766552         1.6894946801
H    9    1          -1.8718020326        -3.9907964887        -0.2243991528
H   10    1          -4.2282484836        -0.0403579062         0.4371955511
H   11    1          -2.0005673472         3.8825313418        -0.8269564504
[GTO]
  1 0
 s    8  1.00
     6665.0000000000         0.0006920000
     1000.0000000000         0.0053290000
      228.0000000000         0.0270770000
       64.7100000000         0.1017180000
       21.0600000000         0.2747400000
        7.4950000000         0.4485640000
        2.7970000000         0.2850740000
        0.5215000000         0.0152040000
 s    8  1.00
     6665.0000000000        -0.0001460000
     1000.0000000000        -0.0011540000
      228.0000000000        -0.0057250000
       64.7100000000        -0.0233120000
       21.0600000000        -0.0639550000
        7.4950000000        -0.1499810000
        2.7970000000        -0.1272620000
        0.5215000000         0.5445290000
 s    1  1.00
        0.1596000000         1.0000000000
 p    3  1.00
        9.4390000000         0.0381090000
        2.0020000000         0.2094800000
        0.5456000000         0.5085570000
 p    1  1.00
        0.1517000000         1.0000000000
 d    1  1.00
        0.5500000000         1.0000000000

  2 0
 s    8  1.00
     6665.0000000000         0.0006920000
     1000.0000000000         0.0053290000
      228.0000000000         0.0270770000
       64.7100000000         0.1017180000
       21.0600000000         0.2747400000
        7.4950000000         0.4485640000
        2.7970000000         0.2850740000
        0.5215000000         0.0152040000
 s    8  1.00
     6665.0000000000        -0.0001460000
     1000.0000000000        -0.0011540000
      228.0000000000        -0.0057250000
       64.7100000000        -0.0233120000
       21.0600000000        -0.0639550000
        7.4950000000        -0.1499810000
        2.7970000000        -0.1272620000
        0.5215000000         0.5445290000
 s    1  1.00
        0.1596000000         1.0000000000
 p    3  1.00
        9.4390000000         0.0381090000
        2.0020000000         0.2094800000
        0.5456000000         0.5085570000
 p    1  1.00
        0.1517000000         1.0000000000
 d    1  1.00
        0.5500000000         1.0000000000

  3 0
 s    8  1.00
     6665.0000000000         0.0006920000
     1000.0000000000         0.0053290000
      228.0000000000         0.0270770000
       64.7100000000         0.1017180000
       21.0600000000         0.2747400000
        7.4950000000         0.4485640000
        2.7970000000         0.2850740000
        0.5215000000         0.0152040000
 s    8  1.00
     6665.0000000000        -0.0001460000
     1000.0000000000        -0.0011540000
      228.0000000000        -0.0057250000
       64.7100000000        -0.0233120000
       21.0600000000        -0.0639550000
        7.4950000000        -0.1499810000
        2.7970000000        -0.1272620000
        0.5215000000         0.5445290000
 s    1  1.00
        0.1596000000         1.0000000000
 p    3  1.00
        9.4390000000         0.0381090000
        2.0020000000         0.2094800000
        0.5456000000         0.5085570000
 p    1  1.00
        0.1517000000         1.0000000000
 d    1  1.00
        0.5500000000         1.0000000000

  4 0
 s    8  1.00
     6665.0000000000         0.0006920000
     1000.0000000000         0.0053290000
      228.0000000000         0.0270770000
       64.7100000000         0.1017180000
       21.0600000000         0.2747400000
        7.4950000000         0.4485640000
        2.7970000000         0.2850740000
        0.5215000000         0.0152040000
 s    8  1.00
     6665.0000000000        -0.0001460000
     1000.0000000000        -0.0011540000
      228.0000000000        -0.0057250000
       64.7100000000        -0.0233120000
       21.0600000000        -0.0639550000
        7.4950000000        -0.1499810000
        2.7970000000        -0.1272620000
        0.5215000000         0.5445290000
 s    1  1.00
        0.1596000000         1.0000000000
 p    3  1.00
        9.4390000000         0.0381090000
        2.0020000000         0.2094800000
        0.5456000000         0.5085570000
 p    1  1.00
        0.1517000000         1.0000000000
 d    1  1.00
        0.5500000000         1.0000000000

  5 0
 s    8  1.00
    11720.0000000000         0.0007100000
     1759.0000000000         0.0054700000
      400.8000000000         0.0278370000
      113.7000000000         0.1048000000
       37.0300000000         0.2830620000
       13.2700000000         0.4487190000
        5.0250000000         0.2709520000
        1.0130000000         0.0154580000
 s    8  1.00
    11720.0000000000        -0.0001600000
     1759.0000000000        -0.0012630000
      400.8000000000        -0.0062670000
      113.7000000000        -0.0257160000
       37.0300000000        -0.0709240000
       13.2700000000        -0.1654110000
        5.0250000000        -0.1169550000
        1.0130000000         0.5573680000
 s    1  1.00
        0.3023000000         1.0000000000
 p    3  1.00
       17.7000000000         0.0430180000
        3.8540000000         0.2289130000
        1.0460000000         0.5087280000
 p    1  1.00
        0.2753000000         1.0000000000
 d    1  1.00
        1.1850000000         1.0000000000

  6 0
 s    3  1.00
       13.0100000000         0.0196850000
        1.9620000000         0.1379770000
        0.4446000000         0.4781480000
 s    1  1.00
        0.1220000000         1.0000000000
 p    1  1.00
        0.7270000000         1.0000000000

  7 0
 s    3  1.00
       13.0100000000         0.0196850000
        1.9620000000         0.1379770000
        0.4446000000         0.4781480000
 s    1  1.00
        0.1220000000         1.0000000000
 p    1  1.00
        0.7270000000         1.0000000000

  8 0
 s    3  1.00
       13.0100000000         0.0196850000
        1.9620000000         0.1379770000
        0.4446000000         0.4781480000
 s    1  1.00
        0.1220000000         1.0000000000
 p    1  1.00
        0.7270000000         1.0000000000

  9 0
 s    3  1.00
       13.0100000000         0.0196850000
        1.9620000000         0.1379770000
        0.4446000000         0.4781480000
 s    1  1.00
        0.1220000000         1.0000000000
 p    1  1.00
        0.7270000000         1.0000000000

  10 0
 s    3  1.00
       13.0100000000         0.0196850000
        1.9620000000         0.1379770000
        0.4446000000         0.4781480000
 s    1  1.00
        0.1220000000         1.0000000000
 p    1  1.00
        0.7270000000         1.0000000000

  11 0
 s    3  1.00
       13.0100000000         0.0196850000
        1.9620000000         0.1379770000
        0.4446000000         0.4781480000
 s    1  1.00
        0.1220000000         1.0000000000
 p    1  1.00
        0.7270000000         1.0000000000

[5D7F]
[9G]

[MO]
 Sym= A
 Ene=        -1.9146738211e+01
 Spin= Alpha
 Occup=         2.0000000000e+00
  1        -4.5894351027e-05
  2        -9.3801527730e-05
  3        -2.6507506429e-04
  4         8.1970768507e-05
  5         4.2402043713e-05
  6        -3.5920977805e-05
  7        -2.6114941170e-04
  8        -6.9471407881e-05
  9         4.6215210533e-04
 10         2.6014984722e-05
 11         8.1775263045e-05
 12        -1.8980963625e-05
 13         5.7597176897e-05
 14        -1.3329956124e-04
 15        -8.0699307559e-05
 16        -1.4906884868e-04
 17         3.6530965257e-03
 18        -4.6258823682e-05
 19        -3.7881815117e-05
 20        -6.1689619062e-05
 21        -7.8737394118e-04
 22        -1.6333433884e-03
 23         5.6328611324e-04
 24         4.7376494565e-06
 25         7.7832121006e-05
 26        -7.2682339021e-05
 27        -2.5912952011e-05
 28        -1.6481900146e-06
 29         1.8729505138e-04
 30         2.7663457276e-04
 31        -4.3981036851e-03
 32        -6.2110047738e-05
 33         2.8740914551e-04
 34         3.7907923674e-05
 35        -4.3321631420e-03
 36        -2.3405158934e-03
 37         6.2610315643e-04
 38         1.1826903463e-04
 39         1.2663556729e-04
 40         7.6613178631e-05
 41        -4.4554272217e-04
 42         4.1854923543e-04
 43         3.4899092984e-04
 44         5.2154467677e-04
 45         6.5892599984e-03
 46         2.2210966969e-04
 47        -1.4283039327e-04
 48        -1.1600929889e-04
 49         5.5121320742e-03
 50         2.3721861987e-03
 51        -4.9756879778e-04
 52        -2.0910191705e-04
 53         7.7748038777e-05
 54         1.8834484435e-04
 55        -1.0228755538e-03
 56         3.6926191390e-04
 57         1.0042487074e+00
 58         9.6143297230e-03
 59        -1.5415697482e-02
 60        -1.5889117351e-03
 61         4.8740126524e-04
 62         5.8751225535e-05
 63         3.4017247059e-03
 64        -1.4859815480e-03
 65        -2.3126239093e-04
 66         1.3672325853e-04
 67         2.0319531399e-05
 68         4.7350466972e-05
 69         1.1437949992e-04
 70         3.2727092613e-05
 71         7.6935929256e-04
 72         7.2694395345e-04
 73        -2.3074063933e-04
 74        -5.3978488255e-04
 75         1.8517583965e-04
 76         1.9560261778e-04
 77         3.9860686485e-04
 78        -4.9635691329e-05
 79        -8.4917430710e-05
 80         1.6755264445e-05
 81        -1.8680052980e-04
 82        -3.3539418146e-04
 83         8.6179495356e-05
 84         8.5326452460e-05
 85         6.1957849898e-05
 86        -3.7068241543e-04
 87         9.9518230621e-04
 88        -7.1578849237e-04
 89        -1.4798941365e-04
 90         7.2126299262e-05
 91        -1.8140587016e-04
 92        -1.2677748890e-03
 93         1.9123851374e-04
 94         1.9573561352e-04
 95        -5.1477905997e-05
 96        -1.0162497080e-04
 97         2.0289010696e-04
 98         4.9478945251e-05
 99         5.5699716775e-05
100        -3.2871585722e-05
 Sym= A
 Ene=        -1.0268878863e+01
 Spin= Alpha
 Occup=         2.0000000000e+00
  1        -3.7875026317e-04
  2        -5.3226713735e-04
  3         1.3197124501e-03
  4         2.0871981730e-04
  5         5.9244294665e-05
  6        -1.3011864251e-05
  7        -9.0017356597e-04
  8        -2.3930518956e-04
  9        -4.0218793308e-05
 10        -1.2028686390e-04
 11        -1.0309509231e-04
 12        -3.3824613670e-06
 13        -7.2453614190e-05
 14        -1.1374838922e-04
 15        -3.8542664032e-04
 16        -6.0657272640e-04
 17         4.6433335833e-03
 18        -1.2105931414e-04
 19        -6.8336440964e-06
 20         1.8518139471e-05
 21        -1.9951435165e-03
 22        -2.9930514006e-03
 23         7.1086811980e-04
 24        -3.0101270680e-04
 25        -1.8822482649e-04
 26        -8.7752725321e-05
 27         6.6105966110e-05
 28         1.1394102129e-04
 29         2.5265394725e-03
 30        -5.1359764000e-04
 31        -8.6472560682e-04
 32        -4.8026298839e-04
 33         1.0283732775e-03
 34         1.5826740628e-04
 35        -2.1768838289e-03
 36        -4.8332216160e-03
 37         4.3843658323e-04
 38         1.0509046968e-03
 39         2.3578557029e-04
 40        -1.5677962988e-04
 41         5.7225508071e-04
 42         1.0064122259e-03
 43         1.0059451358e+00
 44         1.5325981059e-02
 45        -1.0493846342e-02
 46         7.1928254299e-04
 47        -2.7482579078e-04
 48        -3.7906616192e-04
 49         4.7906727718e-03
 50        -1.2595531926e-03
 51        -5.6678449072e-04
 52        -1.5993699872e-03
 53        -2.2536086678e-04
 54         4.6285058402e-04
 55         3.5253424549e-04
 56         3.1333542325e-04
 57         6.0577865327e-04
 58         1.2044264690e-03
 59        -5.4458117597e-03
 60         5.6317310530e-04
 61        -5.5712956416e-05
 62        -8.0890027417e-05
 63         3.3821626066e-03
 64        -8.6514273601e-05
 65        -3.9820482519e-04
 66         6.8278260460e-04
 67         2.7578910888e-04
 68        -9.4837949749e-06
 69        -8.1402515005e-04
 70         3.6164482159e-05
 71         1.8428071312e-04
 72        -3.5927476686e-04
 73        -4.2417932088e-04
 74        -3.6400201196e-04
 75         4.2037913229e-05
 76        -7.1895518725e-06
 77         4.3313863344e-04
 78        -2.6196434758e-05
 79        -2.5504352553e-05
 80         3.0104205067e-05
 81        -8.7065455547e-05
 82         2.0305743521e-04
 83         6.1793261367e-05
 84         8.9709063287e-05
 85        -6.8142109198e-05
 86        -2.0180461266e-03
 87         2.4332783354e-03
 88        -1.3509467333e-03
 89        -1.6548895075e-03
 90        -2.7372847587e-04
 91        -2.7206071289e-04
 92        -4.6853676510e-04
 93         2.0309066369e-04
 94         2.7083979608e-04
 95        -2.5267300422e-05
 96        -1.0387636482e-04
 97         3.7978055119e-04
 98         1.6197658150e-04
 99         1.1369348078e-04
100        -5.0304183930e-05
 Sym= A
 Ene=        -1.0227547990e+01
 Spin= Alpha
 Occup=         2.0000000000e+00
  1         3.7485495844e-03
  2        -7.2792958438e-04
  3         4.9267792688e-03
  4         1.0071869071e-03
  5        -1.9879139023e-05
  6         1.6313643162e-05
  7        -2.6745215237e-03
  8        -7.6280856099e-04
  9         2.0850125933e-04
 10         9.0166936531e-04
 11         7.9773988406e-05
 12         4.5809065996e-05
 13        -1.0777746704e-03
 14        -2.0175455288e-04
 15         1.0064753951e+00
 16         1.6298197531e-02
 17        -1.9948076852e-02
 18        -2.6561605526e-04
 19         7.4251300707e-05
 20        -4.0963534212e-04
 21        -2.5976463044e-03
 22         3.7199896086e-03
 23        -8.5403647388e-04
 24        -7.8446261525e-04
 25         4.2804383005e-04
 26        -7.9761892730e-04
 27        -1.4925273063e-04
 28        -4.7917166838e-04
 29         6.0144098355e-03
 30        -7.9373579840e-04
 31         3.3002201647e-03
 32        -5.3545108530e-04
 33        -8.7080181245e-04
 34         1.7333443265e-04
 35         1.7532976189e-03
 36         2.5482225750e-03
 37        -7.8160881672e-05
 38         8.4100829534e-04
 39         1.6331175513e-04
 40         4.5251287656e-04
 41         5.5284558486e-04
 42        -9.9338642297e-04
 43        -3.7867213812e-04
 44        -6.6690288198e-04
 45         1.9862155039e-03
 46         2.9693288021e-05
 47        -1.9262404786e-04
 48         5.1719253318e-05
 49        -6.8854604419e-04
 50         1.5357119315e-03
 51        -1.0399707435e-04
 52        -3.4114753878e-04
 53        -1.9858033336e-04
 54        -5.4042783930e-05
 55         7.1362757048e-05
 56         1.2922087459e-04
 57         3.6421165961e-05
 58         5.2152987882e-05
 59        -5.4844603363e-04
 60         1.3728037431e-04
 61         2.7233741572e-05
 62         2.9062688683e-06
 63        -1.8545859430e-04
 64        -5.7043395693e-04
 65         7.9086444178e-05
 66         2.5634239273e-05
 67        -2.2783918020e-05
 68         8.2195393797e-06
 69         2.3376315915e-05
 70         2.2313448026e-05
 71        -9.0511468602e-05
 72         8.4612368824e-04
 73        -4.0572900363e-04
 74        -1.9600461291e-04
 75        -2.8121476289e-05
 76        -8.6594899924e-05
 77         4.5307923586e-04
 78         1.7376406004e-04
 79        -1.2763369256e-04
 80         1.1501011433e-04
 81        -5.1877979391e-04
 82         6.8288992635e-04
 83        -4.6031205003e-06
 84         4.1753088064e-05
 85        -5.6540458326e-05
 86        -1.4917260427e-04
 87         3.6702701186e-04
 88         6.5348528475e-05
 89        -1.3161798940e-04
 90        -2.8236841294e-05
 91         8.4698594321e-05
 92         5.8467390374e-04
 93         1.2434202108e-04
 94        -2.9132581175e-04
 95         1.7057068356e-05
 96        -2.4889976408e-03
 97         1.0767156281e-03
 98        -1.1534634625e-03
 99         1.6785368341e-03
100        -8.7920735030e-04
 Sym= A
 Ene=        -1.0190000020e+01
 Spin= Alpha
 Occup=         2.0000000000e+00
  1        -8.1346335374e-04
  2        -5.3749345324e-04
  3         1.4653096548e-03
  4         1.0453449065e-04
  5         1.2431107919e-04
  6        -1.3057866039e-04
  7        -1.3839379858e-03
  8        -3.0336732834e-04
  9         5.4348875163e-04
 10        -2.8763984529e-04
 11         5.8377670237e-05
 12        -1.4671689061e-04
 13         1.7408046556e-05
 14        -1.7697788294e-04
 15        -6.7985673101e-03
 16        -1.0376948217e-03
 17         4.4571286742e-03
 18         4.5757425252e-04
 19         9.1870576250e-04
 20        -2.1146392896e-04
 21        -1.7272582056e-03
 22        -2.8588697542e-03
 23         1.2388583705e-05
 24         8.4201760154e-04
 25         3.6934436994e-04
 26         5.5262907780e-04
 27         6.3499218022e-04
 28        -9.2177548856e-04
 29         1.0066744657e+00
 30         1.6802552522e-02
 31        -2.1199802678e-02
 32        -2.3721522670e-04
 33        -7.8580252218e-06
 34        -5.3995813702e-04
 35        -4.7145386455e-03
 36        -1.2249457054e-04
 37         1.9200391183e-03
 38        -1.1080056490e-03
 39        -6.5438968693e-05
 40        -2.5643340742e-05
 41         7.2027896102e-04
 42         1.7672312209e-04
 43        -3.1414476546e-03
 44        -1.0371163936e-03
 45         6.1230097189e-03
 46         5.0922829469e-04
 47        -8.5267173234e-04
 48        -1.6214438551e-04
 49        -5.8919713873e-04
 50         3.3248854909e-03
 51        -6.7330861386e-06
 52         7.6448662414e-04
 53         2.8778797816e-04
 54        -3.6858967695e-04
 55         5.9120480053e-04
 56         1.1226914544e-03
 57         2.2267151156e-05
 58         3.4538274410e-05
 59        -6.6623378372e-04
 60         7.6320939804e-05
 61         1.0142207660e-05
 62        -4.9185550948e-05
 63        -1.4162274530e-04
 64        -7.0817229146e-04
 65         1.1899747705e-04
 66        -9.7379356416e-05
 67        -2.1170314196e-07
 68         1.4940841678e-05
 69         2.4382213995e-05
 70         1.4140712894e-04
 71        -7.3730490562e-05
 72         4.6203465336e-04
 73        -1.2555303988e-04
 74        -1.7488100518e-04
 75        -6.1523741163e-06
 76         4.1009029666e-05
 77         5.0560720134e-04
 78         8.0709874547e-05
 79        -6.0710919789e-05
 80        -3.3428380031e-05
 81        -2.9807499040e-04
 82         1.7590102002e-04
 83         1.2634446824e-05
 84         1.2471860829e-04
 85        -2.7645095655e-05
 86        -1.4963640786e-04
 87         7.9060263063e-04
 88         2.5982829712e-04
 89        -1.0538712361e-04
 90         3.7388033979e-05
 91        -2.4861197788e-03
 92         1.1122191481e-03
 93        -2.2348923589e-03
 94        -6.7974119498e-05
 95        -1.8856840739e-04
 96        -1.2624085719e-04
 97         4.5473269920e-04
 98         2.9512877165e-04
 99         7.4500516055e-05
100         1.2058392204e-04
 Sym= A
 Ene=        -1.0179117339e+01
 Spin= Alpha
 Occup=         2.0000000000e+00
  1         1.0068695366e+00
  2         1.7224954572e-02
  3        -1.8944981411e-02
  4         9.2841575277e-05
  5         2.1188452295e-04
  6         5.0834087219e-04
  7         2.4504021353e-03
  8         2.3471835004e-03
  9        -3.6122715451e-04
 10        -8.4752471223e-05
 11         3.6607482539e-04
 12        -1.0473535509e-03
 13        -8.8229127176e-05
 14         5.8554748035e-04
 15        -4.2680829632e-03
 16        -6.0327916616e-04
 17         2.0323243928e-03
 18        -9.0130732503e-04
 19         1.9382532191e-05
 20        -2.3378792612e-05
 21         3.1139570541e-03
 22         1.3680152271e-03
 23        -8.3065992395e-05
 24         8.3780890428e-04
 25         1.1055412857e-04
 26         8.9528341943e-05
 27        -1.3922070925e-03
 28        -2.2952045591e-04
 29         1.3175740259e-04
 30        -5.9368689751e-04
 31         2.5953258939e-03
 32        -2.1077927982e-04
 33        -4.3266032828e-05
 34        -2.5310045778e-05
 35         1.4471950032e-03
 36         1.8827554472e-03
 37        -3.5090453021e-04
 38        -3.8242450610e-04
 39         4.2264853072e-05
 40        -1.3996380627e-04
 41        -2.9636244625e-04
 42        -1.5552243640e-04
 43        -1.4264204937e-04
 44        -4.6475162981e-04
 45        -9.4120250202e-04
 46        -1.5834541336e-04
 47        -2.0561101762e-04
 48        -7.5902665142e-05
 49        -1.0338607563e-03
 50         2.8303930401e-04
 51         2.1159706123e-04
 52        -1.8911794074e-05
 53        -8.7034272961e-06
 54        -5.6727108047e-05
 55        -1.2836589464e-04
 56         2.0328467802e-04
 57        -1.8866541367e-05
 58        -4.8577435101e-05
 59         1.5122280205e-04
 60         1.3298460173e-04
 61        -5.7916788899e-05
 62        -9.4679344842e-05
 63        -1.2066822100e-03
 64        -4.0609755611e-04
 65         5.5403572007e-04
 66        -2.9811191693e-05
 67         3.7983019782e-06
 68         1.2815967344e-04
 69         1.1379660340e-04
 70        -6.6540018468e-05
 71         4.7798670649e-04
 72         3.9203230256e-03
 73         1.4625415539e-04
 74        -9.7388595406e-04
 75        -3.0038802005e-04
 76        -2.1035789050e-03
 77         1.2634726479e-03
 78         8.8115066161e-04
 79         1.7413992847e-03
 80        -1.0082654343e-03
 81        -1.1966811378e-03
 82         2.1035437212e-03
 83         6.9172533488e-04
 84        -5.9562885797e-04
 85         1.8027827751e-03
 86        -4.6739082633e-05
 87         2.3537758690e-04
 88         3.0527024432e-05
 89        -2.0046483508e-05
 90        -3.8013662469e-05
 91         6.2760167077e-05
 92         5.2100185714e-04
 93         2.2612642926e-06
 94        -1.3228793893e-04
 95         3.9647516898e-05
 96        -1.6022552723e-04
 97         2.8392376329e-04
 98        -2.3906329981e-04
 99        -2.2667412576e-04
100         4.1216275826e-05
 Sym= A
 Ene=        -1.0425933522e+00
 Spin= Alpha
 Occup=         2.0000000000e+00
  1        -4.3387562277e-04
  2         2.2291427346e-02
  3        -1.2148396868e-03
  4        -5.5574465519e-03
  5        -1.2567809502e-02
  6        -2.0133413721e-04
  7         3.6175142617e-03
  8         5.1353906434e-03
  9        -4.5842636922e-03
 10        -6.9627384926e-04
 11        -5.9886309954e-04
 12         1.0531564832e-03
 13        -3.5435473082e-05
 14        -7.8222959673e-05
 15        -1.1182480009e-03
 16         2.4629381524e-02
 17         6.2647852860e-03
 18         4.4027316619e-03
 19        -1.4724500341e-02
 20         1.1461424073e-03
 21         4.8337980744e-03
 22         2.2309727757e-03
 23         6.0275265452e-04
 24        -1.7719541065e-03
 25        -3.9862080798e-04
 26        -7.2968191403e-04
 27        -1.0728941233e-03
 28        -3.4530026331e-04
 29        -4.1221531426e-03
 30         4.4296617630e-02
 31         3.3601364185e-02
 32         2.8344631649e-02
 33        -1.9032551431e-02
 34        -6.8495994294e-03
 35         1.9411012520e-02
 36         2.5408739803e-04
 37        -4.3367176290e-03
 38        -3.7230652313e-03
 39        -2.2934129145e-03
 40         9.2188839269e-04
 41         1.5679749363e-03
 42        -8.5796862344e-03
 43        -1.4236184786e-02
 44         2.0431632762e-01
 45         8.1542082473e-02
 46         1.6102745095e-01
 47         8.5252143585e-03
 48        -2.1384094447e-02
 49         1.2775479732e-02
 50        -1.7076124736e-03
 51        -8.7822991346e-04
 52        -1.3454238641e-02
 53        -7.9656662988e-03
 54        -2.1518820085e-03
 55         3.0362598305e-02
 56        -1.9498842241e-03
 57        -8.7822678993e-03
 58         4.0374974805e-01
 59         3.8350590854e-01
 60        -1.3417114567e-01
 61         3.1260496369e-02
 62         1.1688512365e-02
 63        -3.4215083109e-02
 64         1.2853862884e-02
 65         2.1527019136e-03
 66        -6.4605854139e-03
 67        -2.6047932602e-03
 68        -1.6308087714e-03
 69         8.8912765186e-03
 70        -1.6273194373e-03
 71         5.8442447731e-02
 72         4.6605364487e-03
 73        -6.0844045476e-03
 74        -7.7890345278e-03
 75         3.5975490117e-03
 76         2.7523320415e-03
 77        -4.6003062441e-03
 78        -4.7642631790e-04
 79        -8.0137744533e-04
 80         3.7825153895e-04
 81         1.0270914191e-02
 82         4.3406395419e-03
 83        -1.2838926922e-03
 84        -1.1830395823e-03
 85        -1.3072625982e-03
 86         3.9035082395e-02
 87        -2.4397584646e-03
 88         8.5959382363e-03
 89         6.8134812393e-03
 90         2.9747587089e-04
 91         7.2587354998e-03
 92         5.9964799464e-03
 93         1.1082675243e-03
 94        -1.6989090424e-03
 95        -1.1090809877e-04
 96         3.0732561484e-03
 97        -4.3554084561e-04
 98        -1.2044810226e-04
 99        -7.2667230902e-04
100         2.9456512343e-05
 Sym= A
 Ene=        -8.1497493300e-01
 Spin= Alpha
 Occup=         2.0000000000e+00
  1         1.2010818552e-02
  2        -1.8458989476e-01
  3        -8.6425791789e-02
  4         8.1670099906e-02
  5         1.7853036969e-02
  6        -5.5767021063e-03
  7         4.0023451555e-03
  8        -6.8463022135e-03
  9         7.9739559340e-03
 10         6.4584338044e-03
 11         7.6395790976e-04
 12        -1.0416870708e-03
 13        -1.0412796304e-02
 14        -3.1665010674e-03
 15         1.9174584870e-02
 16        -2.8885089630e-01
 17        -2.0036883667e-01
 18        -2.3432280463e-02
 19         6.6975029201e-02
 20        -7.8597171744e-03
 21        -2.7531804415e-02
 22         2.8813663703e-02
 23        -9.7669579114e-03
 24         1.0552924127e-02
 25         2.1668956645e-03
 26         2.1783465019e-03
 27        -1.9640839075e-03
 28        -7.2466799087e-03
 29         1.7529056341e-02
 30        -2.4005942476e-01
 31        -1.2885374505e-01
 32        -6.3315360367e-02
 33        -4.2775456991e-02
 34         2.8431030146e-02
 35        -7.6697398522e-03
 36        -1.6706775204e-02
 37         7.8414894399e-03
 38         6.9462499927e-03
 39         3.4915495865e-03
 40         3.1059640278e-03
 41         7.7451474470e-03
 42        -7.9253401952e-03
 43         2.7522914241e-03
 44        -6.6418298458e-02
 45        -4.5522035616e-02
 46         8.9989926681e-02
 47        -8.5494792791e-02
 48        -1.2767341260e-02
 49         2.5572791467e-02
 50        -2.1100077494e-02
 51        -5.5957309309e-03
 52         2.4049414481e-03
 53        -1.3123180901e-03
 54        -1.4295397423e-03
 55         1.5664639794e-02
 56         3.9104727703e-03
 57        -1.7077051854e-04
 58         1.0714492420e-01
 59         1.0943033117e-01
 60        -1.5346927975e-02
 61        -2.5306116447e-02
 62         9.9754907651e-04
 63         1.3957100754e-03
 64        -9.5497206642e-03
 65        -5.2999094814e-04
 66         1.7790883994e-04
 67        -2.1292445903e-04
 68        -5.8737077017e-04
 69         1.5944087663e-03
 70         2.2270696167e-03
 71        -4.8744569599e-02
 72         3.2182358629e-03
 73         3.3727822298e-03
 74        -9.8142971469e-03
 75        -3.4368119391e-03
 76        -5.4465892671e-02
 77         1.9251976112e-03
 78         5.8497890881e-03
 79         6.8358098885e-03
 80        -3.8746138025e-03
 81        -6.7779766320e-02
 82        -4.1265947371e-03
 83         5.9584314659e-03
 84        -1.6263337187e-03
 85         8.1780049357e-03
 86        -1.4723539372e-02
 87        -4.4864286684e-04
 88         1.3008325568e-03
 89        -2.9291525273e-03
 90        -2.1142845428e-04
 91        -7.5658155351e-02
 92        -3.4223064328e-03
 93        -1.2922702870e-02
 94        -2.0524940329e-03
 95         7.2306951082e-04
 96        -9.5149967810e-02
 97        -1.3530575439e-02
 98        -7.2489353500e-03
 99         1.1970835026e-02
100        -4.8030307505e-03
 Sym= A
 Ene=        -7.2464321092e-01
 Spin= Alpha
 Occup=         2.0000000000e+00
  1         1.3389903312e-02
  2        -2.5062582808e-01
  3        -1.1914501375e-01
  4         3.6181056881e-02
  5         6.2294485644e-03
  6        -6.7141365198e-03
  7        -7.4828002503e-03
  8        -3.8496970515e-03
  9         5.9857904302e-03
 10         3.1278406695e-03
 11         4.5663269230e-05
 12        -1.8306498629e-03
 13        -3.0339188385e-03
 14         3.1056340860e-03
 15         5.8936140369e-03
 16        -8.3802425150e-02
 17        -9.0242354851e-02
 18        -1.3254483138e-01
 19        -7.7486988697e-02
 20         1.2984447547e-02
 21        -6.8000503474e-02
 22        -7.6875598637e-03
 23        -3.2326280819e-03
 24         2.6475008362e-03
 25        -7.6314891568e-04
 26        -1.4815940864e-03
 27        -1.7234055688e-02
 28         6.5668479225e-03
 29        -1.3861088123e-02
 30         2.2479759414e-01
 31         1.4885044617e-01
 32         6.9317382185e-03
 33        -8.9937692081e-02
 34        -1.7423640172e-02
 35         2.1943044779e-02
 36        -2.8741494033e-02
 37        -1.6826162269e-03
 38        -3.3435825030e-03
 39        -5.4111066593e-04
 40         3.1615966378e-03
 41        -8.2814375382e-03
 42        -9.8272950854e-03
 43        -6.1481417793e-03
 44         2.1304470311e-01
 45         1.1991831093e-01
 46        -1.0867362610e-01
 47         5.9102834945e-02
 48         1.3712831176e-02
 49        -3.5496331983e-02
 50         1.4970500980e-02
 51         2.4000860202e-03