Generated by Psi4
        SP                           RHF                       CC-PVDZ
Number of atoms                            I               11
Charge                                     I                0
Multiplicity                               I                1
Number of electrons                        I               38
Number of alpha electrons                  I               19
Number of beta electrons                   I               19
Number of basis functions                  I              100
Number of independent functions            I              100
Atomic numbers                             I   N=          11
           6           6           6           6           8           1
           1           1           1           1           1
Nuclear charges                            R   N=          11
  6.00000000e+00  6.00000000e+00  6.00000000e+00  6.00000000e+00  8.00000000e+00
  1.00000000e+00  1.00000000e+00  1.00000000e+00  1.00000000e+00  1.00000000e+00
  1.00000000e+00
Current cartesian coordinates              R   N=          33
  2.02158839e+00  2.71164986e+00 -2.14449629e-01 -7.88677089e-01  2.38610364e+00
 -1.06653037e-01 -2.08628367e+00  1.91466940e-01  1.22972104e-02 -9.22243385e-01
 -2.34020355e+00  7.02709844e-02  1.33669460e+00 -2.76693298e+00  2.19038804e-01
  2.94542013e+00  1.18369024e+00 -1.27129558e+00  2.52743707e+00  4.56557475e+00
 -1.00944970e+00  2.81601767e+00  2.62130043e+00  1.71627565e+00 -2.30086203e+00
 -3.94614805e+00 -2.87644029e-02 -4.15376545e+00  2.43634530e-01  6.22377019e-02
 -1.90660813e+00  4.13174352e+00 -1.05119373e-01
Integer atomic weights                     I   N=          11
          12          12          12          12          16           1
           1           1           1           1           1
Real atomic weights                        R   N=          11
  1.20000000e+01  1.20000000e+01  1.20000000e+01  1.20000000e+01  1.59949146e+01
  1.00782503e+00  1.00782503e+00  1.00782503e+00  1.00782503e+00  1.00782503e+00
  1.00782503e+00
Number of primitive shells                 I              140
Number of contracted shells                I               48
Pure/Cartesian d shells                    I                0
Pure/Cartesian f shells                    I                0
Highest angular momentum                   I                2
Largest degree of contraction              I                8
Shell types                                I   N=          48
           0           0           0           1           1          -2
           0           0           0           1           1          -2
           0           0           0           1           1          -2
           0           0           0           1           1          -2
           0           0           0           1           1          -2
           0           0           1           0           0           1
           0           0           1           0           0           1
           0           0           1           0           0           1
Number of primitives per shell             I   N=          48
           8           8           1           3           1           1
           8           8           1           3           1           1
           8           8           1           3           1           1
           8           8           1           3           1           1
           8           8           1           3           1           1
           3           1           1           3           1           1
           3           1           1           3           1           1
           3           1           1           3           1           1
Shell to atom map                          I   N=          48
           1           1           1           1           1           1
           2           2           2           2           2           2
           3           3           3           3           3           3
           4           4           4           4           4           4
           5           5           5           5           5           5
           6           6           6           7           7           7
           8           8           8           9           9           9
          10          10          10          11          11          11
Primitive exponents                        R   N=         140
  6.66500000e+03  1.00000000e+03  2.28000000e+02  6.47100000e+01  2.10600000e+01
  7.49500000e+00  2.79700000e+00  5.21500000e-01  6.66500000e+03  1.00000000e+03
  2.28000000e+02  6.47100000e+01  2.10600000e+01  7.49500000e+00  2.79700000e+00
  5.21500000e-01  1.59600000e-01  9.43900000e+00  2.00200000e+00  5.45600000e-01
  1.51700000e-01  5.50000000e-01  6.66500000e+03  1.00000000e+03  2.28000000e+02
  6.47100000e+01  2.10600000e+01  7.49500000e+00  2.79700000e+00  5.21500000e-01
  6.66500000e+03  1.00000000e+03  2.28000000e+02  6.47100000e+01  2.10600000e+01
  7.49500000e+00  2.79700000e+00  5.21500000e-01  1.59600000e-01  9.43900000e+00
  2.00200000e+00  5.45600000e-01  1.51700000e-01  5.50000000e-01  6.66500000e+03
  1.00000000e+03  2.28000000e+02  6.47100000e+01  2.10600000e+01  7.49500000e+00
  2.79700000e+00  5.21500000e-01  6.66500000e+03  1.00000000e+03  2.28000000e+02
  6.47100000e+01  2.10600000e+01  7.49500000e+00  2.79700000e+00  5.21500000e-01
  1.59600000e-01  9.43900000e+00  2.00200000e+00  5.45600000e-01  1.51700000e-01
  5.50000000e-01  6.66500000e+03  1.00000000e+03  2.28000000e+02  6.47100000e+01
  2.10600000e+01  7.49500000e+00  2.79700000e+00  5.21500000e-01  6.66500000e+03
  1.00000000e+03  2.28000000e+02  6.47100000e+01  2.10600000e+01  7.49500000e+00
  2.79700000e+00  5.21500000e-01  1.59600000e-01  9.43900000e+00  2.00200000e+00
  5.45600000e-01  1.51700000e-01  5.50000000e-01  1.17200000e+04  1.75900000e+03
  4.00800000e+02  1.13700000e+02  3.70300000e+01  1.32700000e+01  5.02500000e+00
  1.01300000e+00  1.17200000e+04  1.75900000e+03  4.00800000e+02  1.13700000e+02
  3.70300000e+01  1.32700000e+01  5.02500000e+00  1.01300000e+00  3.02300000e-01
  1.77000000e+01  3.85400000e+00  1.04600000e+00  2.75300000e-01  1.18500000e+00
  1.30100000e+01  1.96200000e+00  4.44600000e-01  1.22000000e-01  7.27000000e-01
  1.30100000e+01  1.96200000e+00  4.44600000e-01  1.22000000e-01  7.27000000e-01
  1.30100000e+01  1.96200000e+00  4.44600000e-01  1.22000000e-01  7.27000000e-01
  1.30100000e+01  1.96200000e+00  4.44600000e-01  1.22000000e-01  7.27000000e-01
  1.30100000e+01  1.96200000e+00  4.44600000e-01  1.22000000e-01  7.27000000e-01
  1.30100000e+01  1.96200000e+00  4.44600000e-01  1.22000000e-01  7.27000000e-01
Contraction coefficients                   R   N=         140
  6.91583963e-04  5.32579615e-03  2.70607210e-02  1.01656846e-01  2.74574824e-01
  4.48294319e-01  2.84902611e-01  1.51948592e-02 -2.93269653e-04 -2.31803547e-03
 -1.14997860e-02 -4.68267270e-02 -1.28466169e-01 -3.01266272e-01 -2.55630702e-01
  1.09379336e+00  1.00000000e+00  5.69792516e-02  3.13207212e-01  7.60376742e-01
  1.00000000e+00  1.00000000e+00  6.91583963e-04  5.32579615e-03  2.70607210e-02
  1.01656846e-01  2.74574824e-01  4.48294319e-01  2.84902611e-01  1.51948592e-02
 -2.93269653e-04 -2.31803547e-03 -1.14997860e-02 -4.68267270e-02 -1.28466169e-01
 -3.01266272e-01 -2.55630702e-01  1.09379336e+00  1.00000000e+00  5.69792516e-02
  3.13207212e-01  7.60376742e-01  1.00000000e+00  1.00000000e+00  6.91583963e-04
  5.32579615e-03  2.70607210e-02  1.01656846e-01  2.74574824e-01  4.48294319e-01
  2.84902611e-01  1.51948592e-02 -2.93269653e-04 -2.31803547e-03 -1.14997860e-02
 -4.68267270e-02 -1.28466169e-01 -3.01266272e-01 -2.55630702e-01  1.09379336e+00
  1.00000000e+00  5.69792516e-02  3.13207212e-01  7.60376742e-01  1.00000000e+00
  1.00000000e+00  6.91583963e-04  5.32579615e-03  2.70607210e-02  1.01656846e-01
  2.74574824e-01  4.48294319e-01  2.84902611e-01  1.51948592e-02 -2.93269653e-04
 -2.31803547e-03 -1.14997860e-02 -4.68267270e-02 -1.28466169e-01 -3.01266272e-01
 -2.55630702e-01  1.09379336e+00  1.00000000e+00  5.69792516e-02  3.13207212e-01
  7.60376742e-01  1.00000000e+00  1.00000000e+00  7.09645947e-04  5.46727229e-03
  2.78231186e-02  1.04747740e-01  2.82920846e-01  4.48495239e-01  2.70816885e-01
  1.54502916e-02 -3.14443412e-04 -2.48213768e-03 -1.23163554e-02 -5.05389173e-02
 -1.39384903e-01 -3.25077495e-01 -2.29848308e-01  1.09537935e+00  1.00000000e+00
  6.26791663e-02  3.33536566e-01  7.41239642e-01  1.00000000e+00  1.00000000e+00
  3.34987264e-02  2.34800801e-01  8.13682958e-01  1.00000000e+00  1.00000000e+00
  3.34987264e-02  2.34800801e-01  8.13682958e-01  1.00000000e+00  1.00000000e+00
  3.34987264e-02  2.34800801e-01  8.13682958e-01  1.00000000e+00  1.00000000e+00
  3.34987264e-02  2.34800801e-01  8.13682958e-01  1.00000000e+00  1.00000000e+00
  3.34987264e-02  2.34800801e-01  8.13682958e-01  1.00000000e+00  1.00000000e+00
  3.34987264e-02  2.34800801e-01  8.13682958e-01  1.00000000e+00  1.00000000e+00
Coordinates of each shell                  R   N=         144
  2.02158839e+00  2.71164986e+00 -2.14449629e-01  2.02158839e+00  2.71164986e+00
 -2.14449629e-01  2.02158839e+00  2.71164986e+00 -2.14449629e-01  2.02158839e+00
  2.71164986e+00 -2.14449629e-01  2.02158839e+00  2.71164986e+00 -2.14449629e-01
  2.02158839e+00  2.71164986e+00 -2.14449629e-01 -7.88677089e-01  2.38610364e+00
 -1.06653037e-01 -7.88677089e-01  2.38610364e+00 -1.06653037e-01 -7.88677089e-01
  2.38610364e+00 -1.06653037e-01 -7.88677089e-01  2.38610364e+00 -1.06653037e-01
 -7.88677089e-01  2.38610364e+00 -1.06653037e-01 -7.88677089e-01  2.38610364e+00
 -1.06653037e-01 -2.08628367e+00  1.91466940e-01  1.22972104e-02 -2.08628367e+00
  1.91466940e-01  1.22972104e-02 -2.08628367e+00  1.91466940e-01  1.22972104e-02
 -2.08628367e+00  1.91466940e-01  1.22972104e-02 -2.08628367e+00  1.91466940e-01
  1.22972104e-02 -2.08628367e+00  1.91466940e-01  1.22972104e-02 -9.22243385e-01
 -2.34020355e+00  7.02709844e-02 -9.22243385e-01 -2.34020355e+00  7.02709844e-02
 -9.22243385e-01 -2.34020355e+00  7.02709844e-02 -9.22243385e-01 -2.34020355e+00
  7.02709844e-02 -9.22243385e-01 -2.34020355e+00  7.02709844e-02 -9.22243385e-01
 -2.34020355e+00  7.02709844e-02  1.33669460e+00 -2.76693298e+00  2.19038804e-01
  1.33669460e+00 -2.76693298e+00  2.19038804e-01  1.33669460e+00 -2.76693298e+00
  2.19038804e-01  1.33669460e+00 -2.76693298e+00  2.19038804e-01  1.33669460e+00
 -2.76693298e+00  2.19038804e-01  1.33669460e+00 -2.76693298e+00  2.19038804e-01
  2.94542013e+00  1.18369024e+00 -1.27129558e+00  2.94542013e+00  1.18369024e+00
 -1.27129558e+00  2.94542013e+00  1.18369024e+00 -1.27129558e+00  2.52743707e+00
  4.56557475e+00 -1.00944970e+00  2.52743707e+00  4.56557475e+00 -1.00944970e+00
  2.52743707e+00  4.56557475e+00 -1.00944970e+00  2.81601767e+00  2.62130043e+00
  1.71627565e+00  2.81601767e+00  2.62130043e+00  1.71627565e+00  2.81601767e+00
  2.62130043e+00  1.71627565e+00 -2.30086203e+00 -3.94614805e+00 -2.87644029e-02
 -2.30086203e+00 -3.94614805e+00 -2.87644029e-02 -2.30086203e+00 -3.94614805e+00
 -2.87644029e-02 -4.15376545e+00  2.43634530e-01  6.22377019e-02 -4.15376545e+00
  2.43634530e-01  6.22377019e-02 -4.15376545e+00  2.43634530e-01  6.22377019e-02
 -1.90660813e+00  4.13174352e+00 -1.05119373e-01 -1.90660813e+00  4.13174352e+00
 -1.05119373e-01 -1.90660813e+00  4.13174352e+00 -1.05119373e-01
Total Energy                               R     -2.312416263144538e+02
Alpha Orbital Energies                     R   N=         100
 -1.91346996e+01 -1.02726860e+01 -1.02227370e+01 -1.01973702e+01 -1.01923977e+01
 -1.03904653e+00 -8.09204628e-01 -7.18134424e-01 -6.29190948e-01 -5.32688897e-01
 -4.96289618e-01 -4.42098541e-01 -4.31425525e-01 -4.21280008e-01 -3.86312251e-01
 -3.79201362e-01 -3.74721773e-01 -2.73750334e-01 -2.49805703e-01 -6.56224725e-02
  5.59109900e-02  6.18428048e-02  8.81678651e-02  1.04362960e-01  1.29862821e-01
  1.46063401e-01  1.54839844e-01  2.16172865e-01  2.60256669e-01  3.23813897e-01
  3.40641669e-01  4.29795696e-01  4.38304561e-01  4.52667765e-01  4.77176309e-01
  4.84146763e-01  5.08261525e-01  5.26280432e-01  5.61395792e-01  6.04507088e-01
  6.13517796e-01  6.26447966e-01  6.35333673e-01  6.48984304e-01  6.62990040e-01
  6.85565660e-01  7.00987797e-01  7.65618929e-01  8.28146366e-01  8.55187775e-01
  9.11690368e-01  9.34846200e-01  9.78533401e-01  9.90582202e-01  1.02027941e+00
  1.03754302e+00  1.07802684e+00  1.15644441e+00  1.18112541e+00  1.19897777e+00
  1.29739271e+00  1.36370104e+00  1.38860909e+00  1.44563251e+00  1.47411514e+00
  1.49352408e+00  1.54753087e+00  1.56497636e+00  1.61852803e+00  1.62186350e+00
  1.64769827e+00  1.66522014e+00  1.67131994e+00  1.68936236e+00  1.72785472e+00
  1.75229211e+00  1.78855712e+00  1.80499251e+00  1.84777166e+00  1.91955181e+00
  1.95806384e+00  1.97738500e+00  2.01524047e+00  2.06558172e+00  2.11018581e+00
  2.22620208e+00  2.31079304e+00  2.33416883e+00  2.39575261e+00  2.41332103e+00
  2.42575496e+00  2.48992574e+00  2.57803899e+00  2.65158565e+00  2.69527337e+00
  2.78727063e+00  2.96676599e+00  3.06678931e+00  3.42093267e+00  3.48096787e+00
Alpha MO coefficients                      R   N=       10000
 -4.33115996e-05 -9.78184624e-05 -3.47307197e-05  6.47300751e-05  2.24540509e-05
  1.49980378e-05  8.32223697e-07  8.62432863e-05  1.85304414e-04  5.08416975e-05
  2.71362155e-05  5.97335017e-05  5.83410327e-05 -1.05189551e-04 -2.30790158e-04
 -4.09675317e-04  5.90662779e-03 -1.81140493e-05 -9.81041326e-06 -2.15251504e-05
 -1.10966219e-03 -2.60690486e-03  1.90714152e-04 -4.40724128e-05 -8.88182046e-06
  4.00566239e-07 -4.44318277e-05 -4.04944359e-05  2.25454138e-04  3.47008680e-04
 -4.60348651e-03  2.12512675e-05  2.91086197e-04 -1.69837444e-05 -4.82304627e-03
 -3.64095654e-03  4.79680773e-05  1.45406814e-04 -5.41348945e-06  5.67558238e-05
 -3.26976679e-04  5.14034164e-04  4.43252894e-04  5.78394725e-04  5.47993232e-03
 -1.13293552e-04 -1.71992579e-04 -7.08344687e-06  6.70473367e-03  6.27468160e-04
  3.59508890e-04 -4.06765693e-05 -5.43800623e-05  2.75843461e-05 -1.15093430e-03
  5.34669659e-04  1.00417296e+00  9.47637269e-03 -1.51711217e-02 -1.83007320e-03
  3.68537661e-04 -1.36929184e-04  3.49790512e-03 -8.74537344e-04  2.52650970e-04
 -2.13134685e-05  8.45666280e-06 -9.21160658e-08  6.69477623e-05  7.22183780e-06
 -8.06085295e-05 -2.54376388e-05  5.53021305e-05  4.10113773e-05 -5.87993976e-06
  1.05611379e-04  2.76123695e-04 -6.58478410e-05 -7.97618792e-05  2.75047728e-05
 -5.36930814e-05 -2.34836135e-04  5.55227184e-05  3.52050689e-05  4.28406724e-05
 -1.27470550e-04  9.66032657e-04 -7.62761752e-04  1.21663378e-04 -4.21893941e-05
 -2.68689754e-04 -1.36509165e-03  1.90350474e-04  2.62212968e-04  1.08284583e-05
 -1.75494400e-04  2.97999862e-04  5.71154387e-05  8.98116396e-05 -1.17576972e-05
 -3.31862785e-04 -4.26822464e-04  8.33290786e-04  2.97609854e-04  5.56699497e-05
 -1.05649252e-05 -5.81070597e-04  2.89545001e-04  1.15677912e-04  1.78187365e-05
 -1.21869090e-05  3.42360297e-05 -1.26811408e-04 -7.78267780e-05 -4.25419531e-04
 -6.29233364e-04  7.02707298e-03 -2.69305220e-04 -2.87040453e-05  1.20298506e-05
 -2.39814836e-03 -4.12726754e-03  2.31440112e-04 -4.44227906e-04 -7.44113134e-05
 -4.67126315e-05  3.39021210e-04  3.91072294e-04  1.63193463e-03 -2.36894089e-04
 -2.44465668e-03 -3.40025207e-04  7.49393857e-04 -1.24527480e-05 -2.81423709e-03
 -6.29954852e-03  2.23867434e-04  1.05905909e-03 -4.65425316e-05  6.37474755e-05
  1.18183319e-03  8.02002226e-04  1.00592941e+00  1.52584664e-02 -1.08302715e-02
  7.20168036e-04 -4.94473421e-04  5.32540106e-05  5.46855331e-03 -2.12177838e-03
  2.49928002e-04 -1.64409679e-03  2.62592259e-04  8.79051359e-06  8.17250309e-04
  2.21423855e-05  3.66603546e-04  9.14375832e-04 -5.96476429e-03  7.36084225e-04
 -2.23961006e-04  3.91040486e-05  3.38254168e-03 -2.46988568e-04  2.56909438e-04
  5.58453810e-04 -1.09090429e-04  1.63609599e-05 -7.03972998e-04  2.73192752e-04
 -7.49871582e-05  7.35535944e-05  7.82134318e-05  3.19367364e-05 -1.48921505e-05
 -4.15920078e-05  2.66277346e-04 -5.90710627e-05 -4.61885421e-05 -2.80797016e-06
 -4.93243550e-05 -6.12419570e-05  8.30184370e-05  2.04738473e-05 -2.41563493e-05
 -1.64901779e-03  2.49743599e-03 -1.46443718e-03 -1.44333428e-03 -9.45222592e-05
 -4.84622294e-04 -4.65579372e-04  6.69668087e-05  3.26439772e-04 -1.66062354e-05
 -3.39285403e-05  6.53529165e-04  2.40351498e-04  1.08312399e-04 -1.15858361e-05
  3.33462336e-03 -4.59024244e-04  4.36641227e-03  7.48454545e-04  9.53562001e-05
  5.78762646e-05 -2.31388785e-03 -1.10578104e-03 -4.93513773e-04  7.97821639e-04
  1.25168519e-04 -6.43390922e-06 -1.04148054e-03 -2.96209412e-06  1.00628538e+00
  1.60699032e-02 -1.97897510e-02 -5.48226172e-04  2.37757607e-04  3.45588766e-05
 -2.15949475e-03  3.57611009e-03  5.87689983e-05 -1.09264692e-03 -1.38637770e-06
 -4.13475415e-05 -5.14444289e-04 -2.24183082e-04  1.29960200e-02 -1.30079246e-03
  4.65931542e-03 -7.80385547e-04 -1.10488706e-03  7.66685263e-05  2.67264062e-03
  2.32568495e-03 -2.22800851e-04  8.91379747e-04  7.14457386e-05  1.13098325e-04
  5.76047810e-04 -9.75552937e-04 -2.60701690e-04 -5.08494320e-04  1.03627279e-03
 -4.08353301e-05 -2.06182921e-04  1.12308398e-05 -1.75174692e-04  1.03917399e-03
  1.93452185e-05 -3.42874626e-04 -7.74566077e-06 -8.91577598e-06  1.93744615e-04
 -1.02740800e-04 -3.27568262e-05 -7.22547755e-05 -2.49690033e-04  1.24956881e-04
 -2.37558869e-06  1.74332872e-05 -4.27217871e-05 -2.60336833e-04 -5.46794881e-07
  1.17250254e-05 -1.43177741e-05  4.27669813e-06 -1.19608755e-05  1.42273826e-05
 -4.31519532e-04  1.28315390e-04 -2.56559674e-05  3.66204850e-05  7.86604136e-05
 -3.52917362e-04  2.94335882e-04  7.37220940e-05  8.26836005e-05  6.53461413e-05
 -4.76142513e-04  1.19950325e-03 -1.26742159e-04  1.76901967e-05  1.79979776e-05
 -2.07531148e-05  4.17028066e-04  5.46087384e-05 -5.26092033e-05 -7.32348795e-06
  9.68981379e-05  9.25691748e-04  1.22028012e-04 -2.30811572e-04  1.49964535e-05
 -2.33614966e-03  1.20728053e-03 -1.20902634e-03  1.77475579e-03  7.83794271e-06
  1.67852504e-03  3.96474533e-04  9.43606545e-06 -8.34811375e-05 -1.11899530e-04
  7.93078830e-05  7.10551576e-04 -1.88848651e-04 -1.24240267e-04  3.14901892e-04
  7.57583711e-05 -2.35152209e-05 -8.55109120e-05  2.19485726e-04  1.45266015e-02
  1.80356287e-03 -6.81588535e-03 -6.09289734e-04 -1.21325546e-03  6.60706552e-05
  5.76553180e-04  4.18803041e-03 -1.35255261e-04 -9.32480757e-04 -4.53752123e-05
 -9.66513426e-05 -5.11492447e-04  1.03102043e-03 -1.00648625e+00 -1.65544895e-02
  2.15679152e-02  3.28026642e-04 -3.04165312e-04  3.17042238e-05  5.57848677e-03
  3.51713094e-04 -1.75795102e-04  1.08900145e-03  7.97956854e-05  6.77439389e-05
 -3.75026421e-04 -3.89057967e-04  1.95343753e-03  8.11483433e-04 -5.78675354e-03
 -2.53017942e-04  7.48339607e-04 -5.79780890e-09 -6.83706283e-04 -3.51388747e-03
  4.76825274e-05 -6.92959855e-04 -3.17308659e-05 -6.40391071e-05 -6.39675312e-04
 -1.19072614e-03 -4.58273344e-05 -7.96350602e-05  9.25326806e-04 -2.54438957e-05
  7.47680849e-05  2.21123266e-05  9.91378009e-05  6.02124169e-04 -4.66978253e-05
  1.32147138e-04 -3.31924797e-05 -1.63835617e-05 -7.60103408e-05 -2.18532175e-04
  1.64922412e-04 -3.92322510e-04 -2.53063256e-05 -4.19666427e-05  5.67867421e-05
 -4.99566031e-05 -2.06740598e-04 -3.52368239e-05  6.92171403e-05  1.40881067e-05
 -5.18025516e-05 -1.25427106e-04 -4.97282962e-05 -6.05087581e-05  1.39419531e-04
  2.46798999e-04 -1.00759219e-03 -7.38141491e-05  2.04964972e-04 -2.26197175e-05
  2.45133896e-03 -7.76879575e-04  2.13998323e-03 -1.71018079e-04 -4.43881027e-05
 -9.69997040e-05 -1.01276558e-03 -2.59951058e-04  2.82788273e-05  1.18513902e-05
  1.00698312e+00  1.74214331e-02 -1.94451830e-02  4.51864118e-04  1.32309101e-04
  1.33817363e-04  2.93407465e-03  1.85137898e-04 -5.45623472e-04  2.21017797e-04
  3.10252487e-05 -5.37816987e-05 -5.84269514e-04 -1.43351573e-04 -3.58314010e-03
 -3.03529070e-04  1.81890110e-03 -4.97519859e-04  5.79247960e-05  2.40681771e-05
  4.51055793e-03  2.35381265e-03 -1.65571238e-04  6.15700510e-04  1.25487516e-04
  2.14298927e-05 -1.34209189e-03 -5.75357028e-04  1.11167921e-03 -5.35750486e-04
  3.47876007e-03 -1.93045294e-04  9.12398014e-05  1.06711391e-05  9.20618648e-04
  2.67130014e-03 -1.64141447e-04 -3.46054719e-04  7.45454652e-06 -2.44538648e-05
 -5.62857593e-04 -2.05913130e-04 -1.03447258e-04 -4.62097945e-04  6.60893004e-04
 -3.27536296e-05 -2.74841087e-04 -8.73327848e-06 -1.12017468e-04  5.36148633e-04
  4.00068463e-05 -1.58981354e-05 -2.23165125e-05  3.87116368e-06  4.24037764e-05
  3.73383159e-05 -7.19941367e-05 -1.43730271e-04  1.60612962e-04  8.72304316e-06
 -1.15020305e-04 -1.02811115e-05 -1.08782448e-04  2.19740736e-04  4.13017656e-05
 -4.30389315e-05  1.49632043e-06  1.78688012e-06  1.89535900e-06 -4.17059040e-07
 -1.23448165e-03  1.91787320e-03  6.99682386e-04 -1.44557199e-03 -1.00476857e-03
 -1.34288770e-03  1.92925412e-03  4.36771536e-04  1.80343096e-03 -7.58186830e-04
 -1.09514407e-03  2.33893347e-03  5.58366209e-04 -9.44252871e-05  1.81366127e-03
  1.70526919e-05  3.91735242e-04  6.68512416e-06  6.92304934e-05 -7.56392437e-06
  5.62098801e-05  3.67824778e-04  9.66308855e-05 -2.06162008e-04  9.95632485e-06
 -4.33194932e-04  2.39059071e-04 -3.69431302e-04 -1.16069836e-04  2.01275415e-05
 -4.80777910e-04  6.35499689e-03  5.72583500e-03 -3.05747598e-03 -3.04685136e-03
 -3.28763722e-05 -3.05517962e-03 -2.57795619e-03  9.98436237e-04 -6.11669365e-04
 -1.99110335e-04 -2.24638882e-04  1.83251536e-04  9.20143048e-04  6.06661241e-04
  1.65500027e-02 -1.32941503e-02 -1.66967810e-04 -1.05553205e-02  5.58779335e-04
 -2.22672147e-03  1.00875493e-02 -5.84631553e-04 -4.43268449e-04 -1.17839454e-04
 -2.57086180e-04 -1.67492585e-03  7.41445714e-04 -3.63218993e-03  3.67272826e-02
  3.27876759e-02  2.07990000e-02 -2.05646435e-02  9.16541325e-04  2.01881838e-02
  1.40679076e-03 -1.49836056e-04 -3.79224215e-03  2.35547873e-04 -5.78376900e-04
 -1.05764673e-03 -9.05550437e-03 -1.46206763e-02  2.24954100e-01  9.44134259e-02
  1.84322442e-01 -2.63427617e-02  1.20779093e-02  1.20370252e-02 -3.08103077e-03
  1.07717288e-03 -1.34536671e-02  3.45274167e-03 -1.04511097e-03  3.09612136e-02
 -1.42893266e-02 -9.13681594e-03  4.02195794e-01  3.60109869e-01 -1.55014945e-01
  3.23563363e-02 -1.06170540e-02 -3.16006128e-02  7.29299901e-03 -2.56798919e-03
 -5.22769217e-03  1.37983014e-03 -5.03481444e-04  1.20654367e-02 -5.23773847e-03
  4.90949897e-03  2.90774547e-03 -6.38884246e-04 -4.86655099e-04  5.86705165e-04
  9.74380117e-04  5.03917044e-05  2.61225563e-05  1.40465285e-05 -4.10233069e-05
  1.80701925e-03  8.32802585e-04 -2.65214172e-04 -1.87585724e-04 -4.35870815e-04
  3.95718915e-02 -3.61404245e-03  1.01911931e-02  5.89364240e-03  6.63210363e-04
  7.19960296e-03  6.04447846e-03  9.52031064e-04 -1.95682410e-03 -1.52609362e-05
  1.79637500e-03 -3.30058831e-03 -2.25416250e-04 -8.36839643e-04  6.71970122e-05
  1.09858457e-02 -1.81220303e-01 -7.48445528e-02  6.55293858e-02  1.29855389e-02
 -4.74232966e-03  3.02445374e-03 -8.45712513e-03  1.03291433e-03  5.62968091e-03
  8.24041568e-04  3.39139467e-05 -9.78331997e-03 -3.61816166e-03  1.98043906e-02
 -2.91445794e-01 -2.01267994e-01 -5.81010151e-04  6.59384276e-02 -2.56882688e-03
 -3.25550092e-02  2.10140592e-02  9.62024217e-05  9.97828701e-03  8.45953625e-04
  8.47851946e-04 -2.69664143e-03 -1.13581189e-02  1.70974723e-02 -2.54275795e-01
 -1.41923334e-01 -5.81470401e-02 -5.75141330e-02  4.52456561e-03 -3.01861139e-03
 -2.40476361e-02  1.17349053e-03  6.92979284e-03  6.39419097e-04  8.73292524e-04
  8.74964106e-03 -9.15478758e-03  2.46125266e-03 -6.40223414e-02 -5.17000514e-02
  6.89964382e-02 -8.04777631e-02  5.23127399e-03  2.50880330e-02 -2.24703133e-02
  1.38135125e-03  2.64602227e-03  6.52621760e-04  3.14874465e-04  1.35505090e-02
  2.64340491e-03 -3.33917049e-04  7.51449845e-02  7.15164228e-02 -1.14036508e-02
 -1.61333270e-02 -2.25187220e-04  1.64890294e-03 -6.70182873e-03  5.65529048e-04
  1.81940689e-04  6.40453948e-05  1.75544707e-04  1.61216391e-03  1.58003990e-03
 -6.69889431e-02 -3.34975487e-03  5.10688854e-03 -7.23532254e-03 -5.29184609e-03
 -6.29207015e-02 -1.50705745e-03  4.07398051e-03  8.75100697e-03 -3.70265599e-03
 -6.75854578e-02 -3.59453250e-03  4.71287057e-03  2.88709318e-04  9.01530275e-03
 -1.80930678e-02  9.83885973e-04  1.79342016e-05 -3.39001545e-03  3.56695729e-05
 -8.45327515e-02 -2.49725911e-03 -1.44068759e-02 -1.44601732e-03  4.63025825e-04
 -1.02177869e-01 -1.28912055e-02 -7.13100681e-03  1.42774233e-02 -3.71777666e-05
  1.40250675e-02 -2.87166553e-01 -1.19308869e-01  1.91487002e-02 -1.07997846e-02
 -4.72065376e-03 -1.74951219e-02 -8.44440879e-03  4.22574057e-04  1.46314891e-03
  1.87516807e-04 -1.78740463e-04 -3.08289246e-03  2.20648315e-03  5.28831849e-03
 -4.83025705e-02 -8.45923380e-02 -1.38903998e-01 -9.49030349e-02  6.92919816e-03
 -9.39961293e-02 -9.09712576e-03  2.90875513e-03  3.85134406e-03  5.53127775e-04
 -3.81456616e-04 -1.71296602e-02  3.08938594e-03 -1.39901737e-02  2.28309609e-01
  1.66555144e-01 -5.92967230e-03 -5.47049160e-02  1.05526620e-03  3.64825966e-02
 -4.08106454e-02  1.40975283e-04 -4.82129188e-03  1.50372774e-04 -3.29679642e-04
 -1.00339470e-02 -4.91913931e-03 -3.07439674e-03  1.51599964e-01  6.13128695e-02
 -1.06835614e-01  7.91745368e-02 -5.38485518e-03 -3.73503106e-02  7.85189532e-03
 -1.76552646e-03 -1.65296863e-03 -5.51888124e-04 -1.18454855e-04 -1.01778286e-02
 -5.07917099e-03 -2.93185637e-04 -8.43563631e-02 -8.33828675e-02 -1.80210055e-02
  1.00874951e-02  3.57158684e-04 -2.04028562e-02  3.60180712e-03 -7.08043677e-04
 -9.62152562e-04  1.45909056e-04  5.72024901e-05  8.61398058e-04 -2.03181765e-03
 -1.21663809e-01 -1.67940574e-02  7.33793672e-03 -1.24818542e-02 -8.49781257e-03
 -1.34757242e-01 -1.61205488e-02  4.62003521e-03  1.59773242e-02 -7.23715885e-03
 -1.30392356e-01 -1.59980667e-02  6.51626333e-03 -1.37820804e-03  1.61245894e-02
  7.02211581e-02  2.46832027e-03  3.52352068e-03  8.59150502e-03  2.99621019e-04
  1.15305555e-01  2.33773297e-02  1.46236822e-02 -1.45230297e-03 -3.19420209e-04
 -2.95756003e-02 -1.64330976e-02 -4.17740147e-03  8.52967952e-04  2.33006774e-04
  5.33970319e-03 -1.75337171e-01 -9.62338195e-02 -7.45116892e-02 -6.95101031e-03
 -1.79816678e-03 -3.81569686e-02 -6.64713904e-03  6.55088825e-03 -4.91196106e-03
 -8.64323411e-04 -1.78913496e-04  7.30312261e-03  1.02715750e-03 -5.25299880e-03
  2.09154689e-01  9.80622545e-02 -1.38869144e-01 -1.54987268e-02  5.50019844e-03
 -4.13274008e-02 -9.14600476e-04 -1.36403792e-04  2.53988106e-03 -2.20670005e-04
 -2.66373253e-04 -4.98568051e-03  2.92742919e-03 -1.32949629e-03 -1.46788649e-03
  9.99476897e-03  1.48266228e-02  2.49065225e-01 -7.55249320e-03  8.08630018e-03
  7.65751979e-02 -1.46072235e-03  4.82441308e-04 -1.72922496e-04 -6.96580110e-04
  1.99285374e-03  1.12107584e-02  2.34953149e-03 -2.37330931e-01 -1.54331140e-01
  1.55993971e-01 -2.93694060e-02  8.90307827e-03  4.84551794e-02 -1.88399437e-02
  3.12544315e-03 -1.10440872e-03  8.93139213e-04 -2.63857389e-05  6.07452104e-03
  1.98529065e-03  9.51958934e-04  1.23320010e-01  1.43894924e-01  5.36436177e-02
 -9.56846831e-03  3.77386412e-03  4.04966549e-02 -6.04963077e-03  3.08378423e-03
  2.55528773e-03 -3.94240416e-04  1.25724755e-04 -2.40070875e-03  7.82133244e-04
 -1.01430839e-01 -8.52753586e-03  3.76782620e-03 -9.69961445e-03 -6.02416641e-03
 -1.01512991e-01 -1.59336612e-02  1.01498139e-03  1.03632767e-02 -4.95490082e-03
 -1.05767441e-01 -2.02560323e-02  3.33161560e-03 -6.85419166e-04  1.11272942e-02
 -1.59869102e-01 -2.82513148e-02 -8.38380364e-03 -1.42635721e-02 -6.40771349e-04
 -5.93900554e-03 -2.85433056e-04 -2.38101582e-04  5.06411128e-03 -1.59744906e-04
  1.45356928e-01  2.51176190e-02  6.58855882e-03 -1.47619560e-02  2.25320623e-04
  1.67453899e-03 -5.07566128e-02 -3.81938492e-02 -1.25236401e-01  8.33397887e-02
  1.28558700e-04 -3.77351729e-02  3.49791768e-02 -1.97789675e-03 -5.52775213e-03
 -4.71249882e-04 -1.60152981e-03  9.93544976e-03 -5.70006748e-03 -2.07230928e-03
  1.42856977e-01  9.42099388e-02  1.42708526e-03  2.23914318e-01 -7.99718854e-03
  2.46143823e-02  7.18216330e-02 -3.29955083e-03  4.26735870e-03  5.23387671e-04
  5.03990783e-04 -2.23244114e-05 -7.09001131e-03  2.67943285e-03 -1.53382599e-01
 -1.02324454e-01 -1.80072449e-02  2.03082565e-03 -2.22154197e-03 -1.78275748e-02
  3.18411157e-02 -1.74598660e-03 -4.32054502e-03  8.47081984e-05 -3.29073318e-04
 -1.34584322e-02  1.74055777e-03  5.18659112e-04  1.57554147e-01  1.20109539e-01
 -6.64010257e-02 -2.37264881e-01 -3.67210084e-03 -4.95171673e-02 -5.38872994e-02
 -2.63842473e-03  5.32275985e-03 -1.01855544e-04  6.42065026e-05 -6.70387362e-05
  1.52385047e-03  1.82684358e-04 -8.66730968e-02 -1.19328138e-01 -1.39389792e-01
 -1.07965452e-01 -5.96235620e-03 -8.30013737e-02 -5.91728508e-02 -3.31739132e-03
 -3.54389310e-03  1.01683206e-03  7.12025920e-04  8.86783238e-03  6.70603236e-03
 -1.12934321e-01 -3.53259881e-02  1.98393164e-03 -5.20709944e-03 -6.31455293e-03
 -7.19153767e-04 -5.25602519e-03 -3.61335953e-03  2.43777890e-03 -2.07756081e-05
 -6.45829650e-02 -2.02327824e-02 -7.58434762e-04  2.30412243e-03  6.09218308e-03
  2.29629578e-01  6.02320664e-02  1.19702626e-02  1.27020583e-02  9.68664651e-04
 -8.24514577e-02 -2.93055927e-02 -8.60142819e-03 -5.10950964e-04  1.83817531e-04
  2.16463324e-01  6.35014929e-02  1.07795764e-02 -1.21271854e-02 -1.87018462e-04
  3.07741774e-03 -4.51903357e-02 -5.24538479e-02 -1.45042528e-01 -9.92930952e-02
  4.95455750e-03 -3.15427561e-02 -3.99062501e-02 -4.40353679e-03 -5.19607273e-03
 -1.30510626e-03  1.95461345e-03  7.58852967e-03  4.79094808e-03  8.79506060e-04
  8.94479243e-02  5.34623683e-02  1.41753679e-01 -1.10434663e-01 -1.82807907e-03
  9.13561994e-02 -2.51726573e-02 -1.24769244e-03  1.95310608e-03  8.15666951e-04
  2.97757967e-04 -9.69346616e-03 -1.04432736e-02  5.39501405e-03 -7.10994181e-02