Generated by Psi4
        SP                           RHF                       CC-PVDZ
Number of atoms                            I               11
Charge                                     I                0
Multiplicity                               I                1
Number of electrons                        I               38
Number of alpha electrons                  I               19
Number of beta electrons                   I               19
Number of basis functions                  I              100
Number of independent functions            I              100
Atomic numbers                             I   N=          11
           6           6           6           6           8           1
           1           1           1           1           1
Nuclear charges                            R   N=          11
  6.00000000e+00  6.00000000e+00  6.00000000e+00  6.00000000e+00  8.00000000e+00
  1.00000000e+00  1.00000000e+00  1.00000000e+00  1.00000000e+00  1.00000000e+00
  1.00000000e+00
Current cartesian coordinates              R   N=          33
  1.64434928e+00  3.00424029e+00  3.03189976e-01 -7.90113645e-01  2.41111779e+00
 -1.66202290e-01 -2.04585748e+00 -1.37351547e-02  2.91721662e-01 -8.90357021e-01
 -2.28117426e+00  1.02141201e-01  1.57913767e+00 -2.67484728e+00 -4.10311707e-01
  2.35609165e+00 -1.03039768e+00 -6.93919951e-01  2.43132648e+00  4.82613224e+00
 -2.70134544e-01  2.90249855e+00  1.74230968e+00  1.35712351e+00 -1.91906122e+00
 -4.07266152e+00  2.60796597e-01 -4.07919467e+00 -1.87160003e-02  6.28825503e-01
 -1.96395581e+00  3.85045283e+00 -1.09149312e+00
Integer atomic weights                     I   N=          11
          12          12          12          12          16           1
           1           1           1           1           1
Real atomic weights                        R   N=          11
  1.20000000e+01  1.20000000e+01  1.20000000e+01  1.20000000e+01  1.59949146e+01
  1.00782503e+00  1.00782503e+00  1.00782503e+00  1.00782503e+00  1.00782503e+00
  1.00782503e+00
Number of primitive shells                 I              140
Number of contracted shells                I               48
Pure/Cartesian d shells                    I                0
Pure/Cartesian f shells                    I                0
Highest angular momentum                   I                2
Largest degree of contraction              I                8
Shell types                                I   N=          48
           0           0           0           1           1          -2
           0           0           0           1           1          -2
           0           0           0           1           1          -2
           0           0           0           1           1          -2
           0           0           0           1           1          -2
           0           0           1           0           0           1
           0           0           1           0           0           1
           0           0           1           0           0           1
Number of primitives per shell             I   N=          48
           8           8           1           3           1           1
           8           8           1           3           1           1
           8           8           1           3           1           1
           8           8           1           3           1           1
           8           8           1           3           1           1
           3           1           1           3           1           1
           3           1           1           3           1           1
           3           1           1           3           1           1
Shell to atom map                          I   N=          48
           1           1           1           1           1           1
           2           2           2           2           2           2
           3           3           3           3           3           3
           4           4           4           4           4           4
           5           5           5           5           5           5
           6           6           6           7           7           7
           8           8           8           9           9           9
          10          10          10          11          11          11
Primitive exponents                        R   N=         140
  6.66500000e+03  1.00000000e+03  2.28000000e+02  6.47100000e+01  2.10600000e+01
  7.49500000e+00  2.79700000e+00  5.21500000e-01  6.66500000e+03  1.00000000e+03
  2.28000000e+02  6.47100000e+01  2.10600000e+01  7.49500000e+00  2.79700000e+00
  5.21500000e-01  1.59600000e-01  9.43900000e+00  2.00200000e+00  5.45600000e-01
  1.51700000e-01  5.50000000e-01  6.66500000e+03  1.00000000e+03  2.28000000e+02
  6.47100000e+01  2.10600000e+01  7.49500000e+00  2.79700000e+00  5.21500000e-01
  6.66500000e+03  1.00000000e+03  2.28000000e+02  6.47100000e+01  2.10600000e+01
  7.49500000e+00  2.79700000e+00  5.21500000e-01  1.59600000e-01  9.43900000e+00
  2.00200000e+00  5.45600000e-01  1.51700000e-01  5.50000000e-01  6.66500000e+03
  1.00000000e+03  2.28000000e+02  6.47100000e+01  2.10600000e+01  7.49500000e+00
  2.79700000e+00  5.21500000e-01  6.66500000e+03  1.00000000e+03  2.28000000e+02
  6.47100000e+01  2.10600000e+01  7.49500000e+00  2.79700000e+00  5.21500000e-01
  1.59600000e-01  9.43900000e+00  2.00200000e+00  5.45600000e-01  1.51700000e-01
  5.50000000e-01  6.66500000e+03  1.00000000e+03  2.28000000e+02  6.47100000e+01
  2.10600000e+01  7.49500000e+00  2.79700000e+00  5.21500000e-01  6.66500000e+03
  1.00000000e+03  2.28000000e+02  6.47100000e+01  2.10600000e+01  7.49500000e+00
  2.79700000e+00  5.21500000e-01  1.59600000e-01  9.43900000e+00  2.00200000e+00
  5.45600000e-01  1.51700000e-01  5.50000000e-01  1.17200000e+04  1.75900000e+03
  4.00800000e+02  1.13700000e+02  3.70300000e+01  1.32700000e+01  5.02500000e+00
  1.01300000e+00  1.17200000e+04  1.75900000e+03  4.00800000e+02  1.13700000e+02
  3.70300000e+01  1.32700000e+01  5.02500000e+00  1.01300000e+00  3.02300000e-01
  1.77000000e+01  3.85400000e+00  1.04600000e+00  2.75300000e-01  1.18500000e+00
  1.30100000e+01  1.96200000e+00  4.44600000e-01  1.22000000e-01  7.27000000e-01
  1.30100000e+01  1.96200000e+00  4.44600000e-01  1.22000000e-01  7.27000000e-01
  1.30100000e+01  1.96200000e+00  4.44600000e-01  1.22000000e-01  7.27000000e-01
  1.30100000e+01  1.96200000e+00  4.44600000e-01  1.22000000e-01  7.27000000e-01
  1.30100000e+01  1.96200000e+00  4.44600000e-01  1.22000000e-01  7.27000000e-01
  1.30100000e+01  1.96200000e+00  4.44600000e-01  1.22000000e-01  7.27000000e-01
Contraction coefficients                   R   N=         140
  6.91583963e-04  5.32579615e-03  2.70607210e-02  1.01656846e-01  2.74574824e-01
  4.48294319e-01  2.84902611e-01  1.51948592e-02 -2.93269653e-04 -2.31803547e-03
 -1.14997860e-02 -4.68267270e-02 -1.28466169e-01 -3.01266272e-01 -2.55630702e-01
  1.09379336e+00  1.00000000e+00  5.69792516e-02  3.13207212e-01  7.60376742e-01
  1.00000000e+00  1.00000000e+00  6.91583963e-04  5.32579615e-03  2.70607210e-02
  1.01656846e-01  2.74574824e-01  4.48294319e-01  2.84902611e-01  1.51948592e-02
 -2.93269653e-04 -2.31803547e-03 -1.14997860e-02 -4.68267270e-02 -1.28466169e-01
 -3.01266272e-01 -2.55630702e-01  1.09379336e+00  1.00000000e+00  5.69792516e-02
  3.13207212e-01  7.60376742e-01  1.00000000e+00  1.00000000e+00  6.91583963e-04
  5.32579615e-03  2.70607210e-02  1.01656846e-01  2.74574824e-01  4.48294319e-01
  2.84902611e-01  1.51948592e-02 -2.93269653e-04 -2.31803547e-03 -1.14997860e-02
 -4.68267270e-02 -1.28466169e-01 -3.01266272e-01 -2.55630702e-01  1.09379336e+00
  1.00000000e+00  5.69792516e-02  3.13207212e-01  7.60376742e-01  1.00000000e+00
  1.00000000e+00  6.91583963e-04  5.32579615e-03  2.70607210e-02  1.01656846e-01
  2.74574824e-01  4.48294319e-01  2.84902611e-01  1.51948592e-02 -2.93269653e-04
 -2.31803547e-03 -1.14997860e-02 -4.68267270e-02 -1.28466169e-01 -3.01266272e-01
 -2.55630702e-01  1.09379336e+00  1.00000000e+00  5.69792516e-02  3.13207212e-01
  7.60376742e-01  1.00000000e+00  1.00000000e+00  7.09645947e-04  5.46727229e-03
  2.78231186e-02  1.04747740e-01  2.82920846e-01  4.48495239e-01  2.70816885e-01
  1.54502916e-02 -3.14443412e-04 -2.48213768e-03 -1.23163554e-02 -5.05389173e-02
 -1.39384903e-01 -3.25077495e-01 -2.29848308e-01  1.09537935e+00  1.00000000e+00
  6.26791663e-02  3.33536566e-01  7.41239642e-01  1.00000000e+00  1.00000000e+00
  3.34987264e-02  2.34800801e-01  8.13682958e-01  1.00000000e+00  1.00000000e+00
  3.34987264e-02  2.34800801e-01  8.13682958e-01  1.00000000e+00  1.00000000e+00
  3.34987264e-02  2.34800801e-01  8.13682958e-01  1.00000000e+00  1.00000000e+00
  3.34987264e-02  2.34800801e-01  8.13682958e-01  1.00000000e+00  1.00000000e+00
  3.34987264e-02  2.34800801e-01  8.13682958e-01  1.00000000e+00  1.00000000e+00
  3.34987264e-02  2.34800801e-01  8.13682958e-01  1.00000000e+00  1.00000000e+00
Coordinates of each shell                  R   N=         144
  1.64434928e+00  3.00424029e+00  3.03189976e-01  1.64434928e+00  3.00424029e+00
  3.03189976e-01  1.64434928e+00  3.00424029e+00  3.03189976e-01  1.64434928e+00
  3.00424029e+00  3.03189976e-01  1.64434928e+00  3.00424029e+00  3.03189976e-01
  1.64434928e+00  3.00424029e+00  3.03189976e-01 -7.90113645e-01  2.41111779e+00
 -1.66202290e-01 -7.90113645e-01  2.41111779e+00 -1.66202290e-01 -7.90113645e-01
  2.41111779e+00 -1.66202290e-01 -7.90113645e-01  2.41111779e+00 -1.66202290e-01
 -7.90113645e-01  2.41111779e+00 -1.66202290e-01 -7.90113645e-01  2.41111779e+00
 -1.66202290e-01 -2.04585748e+00 -1.37351547e-02  2.91721662e-01 -2.04585748e+00
 -1.37351547e-02  2.91721662e-01 -2.04585748e+00 -1.37351547e-02  2.91721662e-01
 -2.04585748e+00 -1.37351547e-02  2.91721662e-01 -2.04585748e+00 -1.37351547e-02
  2.91721662e-01 -2.04585748e+00 -1.37351547e-02  2.91721662e-01 -8.90357021e-01
 -2.28117426e+00  1.02141201e-01 -8.90357021e-01 -2.28117426e+00  1.02141201e-01
 -8.90357021e-01 -2.28117426e+00  1.02141201e-01 -8.90357021e-01 -2.28117426e+00
  1.02141201e-01 -8.90357021e-01 -2.28117426e+00  1.02141201e-01 -8.90357021e-01
 -2.28117426e+00  1.02141201e-01  1.57913767e+00 -2.67484728e+00 -4.10311707e-01
  1.57913767e+00 -2.67484728e+00 -4.10311707e-01  1.57913767e+00 -2.67484728e+00
 -4.10311707e-01  1.57913767e+00 -2.67484728e+00 -4.10311707e-01  1.57913767e+00
 -2.67484728e+00 -4.10311707e-01  1.57913767e+00 -2.67484728e+00 -4.10311707e-01
  2.35609165e+00 -1.03039768e+00 -6.93919951e-01  2.35609165e+00 -1.03039768e+00
 -6.93919951e-01  2.35609165e+00 -1.03039768e+00 -6.93919951e-01  2.43132648e+00
  4.82613224e+00 -2.70134544e-01  2.43132648e+00  4.82613224e+00 -2.70134544e-01
  2.43132648e+00  4.82613224e+00 -2.70134544e-01  2.90249855e+00  1.74230968e+00
  1.35712351e+00  2.90249855e+00  1.74230968e+00  1.35712351e+00  2.90249855e+00
  1.74230968e+00  1.35712351e+00 -1.91906122e+00 -4.07266152e+00  2.60796597e-01
 -1.91906122e+00 -4.07266152e+00  2.60796597e-01 -1.91906122e+00 -4.07266152e+00
  2.60796597e-01 -4.07919467e+00 -1.87160003e-02  6.28825503e-01 -4.07919467e+00
 -1.87160003e-02  6.28825503e-01 -4.07919467e+00 -1.87160003e-02  6.28825503e-01
 -1.96395581e+00  3.85045283e+00 -1.09149312e+00 -1.96395581e+00  3.85045283e+00
 -1.09149312e+00 -1.96395581e+00  3.85045283e+00 -1.09149312e+00
Total Energy                               R     -2.312256203182420e+02
Alpha Orbital Energies                     R   N=         100
 -1.91741429e+01 -1.02506670e+01 -1.02062333e+01 -1.01907644e+01 -1.01823935e+01
 -1.06559151e+00 -8.01738437e-01 -7.31724585e-01 -6.28818378e-01 -5.79225687e-01
 -4.99264700e-01 -4.78290499e-01 -4.47438962e-01 -4.09497183e-01 -3.94535496e-01
 -3.76485899e-01 -3.47349253e-01 -2.99931207e-01 -2.18490338e-01 -2.55101252e-02
  5.63618788e-02  7.28232225e-02  8.06419018e-02  1.00694083e-01  1.25786103e-01
  1.41612758e-01  1.64784917e-01  2.21134020e-01  3.00841752e-01  3.21330057e-01
  3.49738222e-01  4.33764640e-01  4.45186307e-01  4.74634181e-01  4.78077381e-01
  4.94727084e-01  5.11622137e-01  5.34891957e-01  5.55273502e-01  5.66029831e-01
  5.81822278e-01  6.12681772e-01  6.27566064e-01  6.58213664e-01  6.74380030e-01
  7.19937597e-01  7.68420869e-01  7.94131401e-01  8.79756993e-01  9.07336288e-01
  9.40712905e-01  9.55544004e-01  9.63522857e-01  1.00123156e+00  1.03829886e+00
  1.05185128e+00  1.09448939e+00  1.10428105e+00  1.16329895e+00  1.19134852e+00
  1.22028625e+00  1.31912281e+00  1.36509672e+00  1.43371529e+00  1.45325910e+00
  1.48255278e+00  1.50490511e+00  1.52890542e+00  1.55536782e+00  1.58768524e+00
  1.60420676e+00  1.64638054e+00  1.68435360e+00  1.71590062e+00  1.73234859e+00
  1.75336426e+00  1.75803282e+00  1.82267126e+00  1.89584669e+00  1.92326412e+00
  1.98045561e+00  1.98765762e+00  2.03598383e+00  2.07799536e+00  2.09946375e+00
  2.17307220e+00  2.22224451e+00  2.26350676e+00  2.38795539e+00  2.39768181e+00
  2.42303276e+00  2.57426902e+00  2.73482229e+00  2.77947060e+00  2.87858728e+00
  2.95772870e+00  3.02131623e+00  3.17718884e+00  3.43779627e+00  3.69999787e+00
Alpha MO coefficients                      R   N=       10000
 -8.06489479e-05 -1.38795146e-04  1.23830114e-03 -1.03430968e-04  7.59005904e-05
  2.31493312e-05 -2.56165070e-04 -1.36361934e-03  1.58138517e-04 -7.08619373e-05
  1.32432615e-05  4.15194065e-05 -5.03686823e-05  7.72820349e-05  2.14284576e-04
  3.69312371e-04 -5.59935121e-03 -5.50307682e-06  4.41898701e-06  6.53325538e-05
  2.15078445e-04  2.97133467e-03 -8.96515774e-04  6.88492519e-05 -1.26316887e-04
  1.03305381e-04 -6.51191107e-06  2.09712105e-05 -1.90059669e-04 -2.76335680e-04
  4.79942528e-03  5.44429911e-05 -2.67996006e-04  7.46672137e-06  4.66441707e-03
  3.12153117e-03 -1.06834738e-03 -1.58949212e-04 -1.40675003e-04  6.75668618e-05
  3.90879953e-04 -3.96588478e-04 -1.94838506e-04 -3.54410252e-04 -5.72067961e-03
 -3.28215630e-04  2.14404681e-04  1.00655982e-04 -5.85556096e-03 -1.49697366e-03
  1.20514574e-03  4.03840433e-04  3.50491864e-06  7.01291848e-05  7.13721393e-04
 -4.01388644e-04 -1.00408557e+00 -9.36464972e-03  1.40406647e-02  8.87368462e-04
 -1.45765691e-03 -6.64684470e-05 -3.23289752e-03  1.40533215e-03  6.14367686e-04
  2.52327216e-05  1.49175030e-06  8.35044300e-05  1.51056640e-04 -2.68033950e-04
 -2.38845427e-04 -3.42327502e-04 -2.34193049e-04 -9.97429642e-04  5.63250606e-05
  5.55269483e-05  3.02063760e-04  3.76296524e-05  6.28757068e-05  7.99326949e-06
 -2.35319953e-04 -1.92617815e-04  2.94829544e-06 -2.78191203e-05 -1.57835999e-05
  4.01951527e-04 -8.96617082e-04  6.32585313e-04  1.48226249e-04 -1.25381066e-04
  1.65966594e-04  1.25852234e-03 -2.27008136e-04 -2.08537642e-04  6.30830679e-05
  8.88144303e-05 -6.16539705e-04 -3.47091793e-05 -1.08301209e-04  2.81418939e-05
 -2.79557976e-04 -3.42300141e-04  1.11446312e-03  1.44944519e-04  7.90070517e-05
  7.24126877e-05 -1.27259160e-03  5.01117108e-04 -6.37866931e-04 -7.47199165e-05
 -1.52277679e-05 -2.79233848e-05  5.48941481e-05 -3.84798722e-05 -4.95878636e-04
 -7.08386316e-04  4.84564236e-03 -1.16019192e-04  1.41289215e-05  1.62545361e-06
 -2.39903240e-03 -4.14116085e-03  7.54409123e-04 -3.52451881e-04 -9.44156027e-05
 -1.02862904e-04  4.21352765e-06  1.84572746e-04  4.62850138e-03 -1.02199675e-03
  1.86224409e-04 -5.78622291e-04  1.36023973e-03  9.53175166e-05 -1.93671959e-03
 -6.47953728e-03  7.56960543e-04  1.07489150e-03  2.39520695e-04 -5.51512109e-05
  5.63929784e-04  9.00887274e-04  1.00590489e+00  1.52808109e-02 -1.25610075e-02
  5.80694799e-04 -4.46126424e-04 -1.89016330e-04  5.06642366e-03 -2.38287773e-03
 -1.00813117e-03 -1.63287118e-03 -5.07206731e-04  4.45676035e-05 -3.14095817e-04
 -2.53668623e-05  7.18288031e-04  1.29683961e-03 -4.93269046e-03  2.65605240e-04
 -2.09048626e-04 -3.51025485e-05  3.26937005e-03 -2.47040230e-04 -7.05147080e-04
  6.95627797e-04  4.32294585e-04 -1.98894119e-05 -7.66142730e-04  1.92899777e-04
  5.15887995e-04 -4.47664468e-04 -6.25959326e-04 -2.39142332e-05  1.19886376e-04
 -5.58012561e-05  1.64589190e-04 -2.58360233e-05 -5.48520210e-05  3.06720504e-05
  6.21803724e-06  9.42635489e-04  1.03598568e-05  6.28260357e-05 -2.95498215e-05
 -2.13728117e-03  2.30131294e-03 -1.52895641e-03 -1.59099982e-03  2.54807186e-04
 -1.35536904e-04 -2.54664673e-04  3.07011763e-04  2.92918093e-04 -7.62653118e-05
 -5.54712555e-05  5.46757210e-04  1.71474099e-04  1.30512683e-04 -3.09675114e-05
  2.21553549e-02 -1.13028524e-03  4.79436348e-03  1.33304612e-03  3.38047998e-04
  1.63746168e-04 -2.07640378e-03 -1.81275322e-03  3.77697921e-04  7.61071410e-04
 -5.34315377e-04 -2.64432900e-05 -1.06506288e-03 -4.02825009e-04  1.00618208e+00
  1.62561110e-02 -1.92160341e-02 -1.19758455e-04  2.12126780e-04 -2.57607999e-04
 -1.71587995e-03  3.20124125e-03 -1.73058642e-03 -7.46855858e-04  7.05007540e-04
 -6.49788752e-04  2.37359596e-04 -3.05146765e-05  5.43306372e-03 -4.37413630e-04
  1.10250928e-03 -4.62205359e-04 -6.17431486e-04  1.42006848e-04  7.84863581e-04
  3.86190290e-03  2.72446720e-04  7.95179517e-04  3.33681128e-05  5.78866989e-04
  1.09972465e-03 -9.59538033e-04 -3.55112015e-04 -7.03640979e-04  4.11064052e-03
 -1.06354396e-04 -1.63309186e-04  1.28769807e-04 -6.16552692e-04  2.77321429e-03
 -2.63334661e-04 -4.29513398e-04 -3.16383821e-04  6.17468782e-05  4.12934214e-04
 -3.12952222e-04  8.76939827e-05  1.27725032e-04 -1.22542123e-03  1.63959372e-04
 -4.19573567e-05 -2.63644108e-05  1.36033810e-04 -6.82340270e-04  8.33661418e-05
  8.30864805e-05  2.54908740e-05  1.83447369e-05 -1.53970547e-05  1.58735722e-05
  2.89098935e-04  6.05719507e-04 -2.78281685e-04 -7.95351750e-05 -2.07493509e-05
 -4.97613091e-05  8.97776869e-04  1.43686585e-04 -1.14406888e-04  7.69857890e-05
 -2.66763978e-04 -2.11888230e-04  3.64151674e-05  2.40618491e-04 -1.10293832e-04
  1.01864370e-04  7.92628111e-04  1.79776768e-04 -5.32024347e-05  2.53086102e-06
 -2.99735363e-04  4.21476445e-04 -7.24782180e-05 -3.87368235e-04 -5.81985764e-05
 -2.28981321e-03  1.20287547e-03 -1.15005256e-03  1.50741507e-03 -9.48913635e-04
  1.00617877e+00  1.63545101e-02 -1.52654742e-02  2.76265308e-04 -5.58394283e-05
  2.89620577e-05  2.20821689e-03  7.37169224e-04  7.36030695e-04 -1.04200517e-03
  7.24845768e-04 -1.18779230e-03  5.08086944e-05  3.27793841e-04 -2.33846681e-02
 -1.45359910e-03  1.03735626e-03 -1.34028155e-03 -3.32504874e-04 -2.73128755e-04
  2.92358914e-03  2.47276421e-03 -3.23422938e-05  1.00039998e-03 -5.85983092e-04
  1.84961879e-04 -9.94866603e-04 -7.69471814e-04 -1.03110016e-03 -5.17020672e-04
  3.47401119e-03 -8.37544459e-05  5.06698564e-05 -6.52912482e-05  1.92186296e-03
  2.45834960e-03 -4.99900399e-04 -3.73087827e-04  7.62029739e-05 -2.43158914e-04
 -3.37533417e-04  3.13228713e-05  1.04712166e-05 -2.06465437e-04 -6.31454522e-04
 -2.17749312e-07 -1.33825833e-04 -5.10293628e-05 -1.31059171e-03 -1.59431094e-04
  3.00478748e-04  5.92047378e-05  9.88419263e-05 -8.95258571e-05 -4.70618538e-05
  1.05103756e-04  1.15006559e-05  3.61135016e-05  4.07808436e-04  1.20680608e-04
  6.76297263e-05 -3.70984253e-05 -6.61152587e-04 -1.69021042e-04  1.00828149e-04
 -3.19782258e-05 -3.33909147e-05 -2.70668832e-05  7.90194161e-05  5.62893659e-05
  1.68291115e-04  1.27418494e-03 -1.19884429e-04  4.27625146e-04  8.59428288e-05
 -2.30666485e-03  1.89063942e-03  7.49381533e-04  2.01576329e-03 -7.04436021e-04
 -2.12659182e-03  1.49131251e-03  1.21868612e-03 -1.48714799e-03  1.21599998e-03
 -8.16959856e-05 -3.53842288e-05  3.99295579e-05  1.91550854e-05 -1.99324788e-05
  1.10599171e-04  5.76409187e-04  1.28933560e-05 -1.30764098e-04  4.39454965e-05
  8.30222734e-05  2.59273265e-04  1.82036424e-05 -3.17041184e-04  1.09416080e-04
  3.19487830e-04 -4.48347882e-04  2.76974495e-03  7.34279177e-05  1.05566280e-04
 -8.61399935e-05 -2.07588855e-03 -4.11164924e-04 -4.38229802e-05 -2.54528810e-04
  5.21047321e-04 -3.00900322e-04  2.73071190e-04 -4.85129640e-04 -5.81212679e-03
 -6.80909992e-04  3.03438996e-03  2.06343252e-04  6.94522908e-04 -1.75972293e-04
 -2.07164523e-03 -3.86104398e-03 -3.28570480e-05  9.03774389e-04  4.96068577e-04
  3.51925129e-04  5.59015908e-04 -1.31045806e-03  1.00665023e+00  1.67532889e-02
 -2.18693297e-02 -2.33545877e-04 -1.68687322e-04 -1.01240031e-04 -5.15602531e-03
 -2.49197468e-04  1.56446486e-03 -1.07731493e-03 -3.96832173e-04 -2.38861841e-06
  2.95282575e-04 -2.21115316e-04 -5.89665870e-03 -1.60572649e-03  6.77064408e-03
  6.41847153e-04 -1.24068915e-03 -9.30439080e-05  3.06488153e-04  4.20562896e-03
 -3.33059695e-04  8.43020619e-04  1.60780492e-04 -2.04936560e-04  7.03713711e-04
  1.01278531e-03  3.32444839e-05  4.65227622e-05 -9.65676398e-04  2.92592122e-05
 -5.88393736e-05 -2.79747119e-06 -1.04782158e-04 -7.01989906e-04  6.59804779e-05
 -5.78198705e-05 -4.15250241e-05 -1.13611746e-05  9.44770727e-05  7.99348231e-05
  2.71365212e-04  3.93871447e-05 -1.38971259e-04 -1.60665265e-04  2.28381864e-05
  1.13809943e-04  5.04088495e-04  1.40155492e-04 -1.47522985e-04  5.05814633e-05
 -6.99513226e-04  5.07265637e-04  1.88056339e-04 -1.23651888e-04  1.19966012e-04
  1.51210011e-04  1.20661751e-03  2.86936919e-04 -1.92529671e-05 -1.63948523e-05
 -2.40242198e-03  8.39426184e-04 -2.12147173e-03 -5.89319696e-05  2.80814363e-04
 -3.40509292e-04  7.09155225e-04  1.99759386e-04  2.89189295e-04  7.14724173e-05
  1.54980448e-04  8.47337825e-03 -4.72453689e-03 -1.87839106e-03 -5.12115159e-03
 -6.69168584e-04  2.78807652e-03  5.33702530e-03 -1.91149863e-03 -2.45939464e-04
 -5.69873556e-04  6.97917589e-04 -8.13908875e-04  9.67546005e-04 -1.12794092e-04
  1.30834111e-02  2.37462097e-03  1.55385376e-03 -8.63055031e-03  9.46404425e-04
  6.24723314e-03  3.08218122e-03  2.56900883e-04 -1.39996819e-03 -1.50794841e-04
 -4.23471090e-04 -1.32264554e-03  4.17962433e-04 -1.28309684e-03  3.52634066e-02
 -5.06217060e-03  2.12825981e-02 -1.81258017e-02 -4.30024207e-03  5.04779307e-03
  1.53273851e-02 -2.06073978e-03 -2.21666904e-03 -1.09041700e-03  1.53878109e-03
  2.17338690e-03 -8.04906617e-03 -1.27062098e-02  1.53985984e-01  8.56459915e-02
  1.26000737e-01 -5.31509101e-03 -2.71495440e-02  4.92486984e-03  2.45175036e-02
 -1.12301161e-03 -1.11058035e-02 -1.07881169e-02  8.62545158e-04  2.83857469e-02
 -4.71181512e-03 -6.72931288e-03  4.23947516e-01  3.72008929e-01 -7.28016265e-02
  9.04513145e-02  9.61185666e-03 -3.11616977e-02 -2.05364384e-03  6.77617359e-03
 -6.35398558e-03 -3.35717352e-03 -3.20904690e-04  3.95466662e-03 -1.76154306e-03
  1.72293255e-01  5.00969691e-03 -1.89473389e-02 -2.98981340e-02  6.74425758e-03
  1.89283495e-05 -3.98375360e-03  5.24931178e-05  1.04056046e-04 -1.62078848e-04
  7.58456129e-03  4.59447784e-03 -1.14798123e-03 -6.36357878e-04 -9.08377149e-04
  3.41191547e-02  5.49033865e-03  8.24486728e-03  4.52342070e-03 -1.49791664e-03
  5.08949734e-03  1.89501825e-03  4.38114649e-04 -2.29723890e-03  1.23810262e-05
  1.65056418e-03 -1.06669440e-03 -3.04410717e-04 -4.47368278e-04 -8.80620728e-05
  1.47666475e-02 -1.92473342e-01 -1.04497283e-01  8.31324236e-02  2.91976317e-02
  1.38765741e-02  8.63655577e-03 -2.89571755e-03  8.28653181e-03  4.80624863e-03
 -2.29811466e-03 -3.31773300e-03 -7.81907356e-03 -6.00339583e-03  1.93496599e-02
 -2.77681496e-01 -1.77871996e-01 -3.83685382e-02  3.98776542e-02 -1.87374635e-02
 -1.87464331e-02  2.06398719e-02 -1.37782609e-02  1.04826023e-02 -8.45614014e-04
  1.26954263e-03 -1.55037537e-03 -1.09752213e-02  1.82238922e-02 -2.40809498e-01
 -1.42426967e-01 -5.44574029e-02 -1.50212624e-02  1.51133745e-02 -1.95745282e-02
 -1.18687172e-02  9.62899216e-03  8.65858504e-03  1.69323052e-03  2.56822129e-03
  9.46781293e-03 -5.27788872e-03  5.47292197e-03 -1.24553690e-01 -6.67114824e-02
  6.09291284e-02 -8.57322726e-02 -1.01105872e-02  2.35381957e-02 -1.23060217e-02
 -6.75337997e-03  3.36137916e-03 -1.65443860e-03 -5.39892457e-04  1.21119149e-02
  4.13760349e-03  1.10103616e-03  8.82609268e-02  8.11682044e-02  2.69564312e-02
  2.38973654e-03 -7.25975978e-03  1.63994324e-02 -7.94010069e-03 -3.33567144e-03
  7.92596643e-04  4.10346693e-04 -6.95714141e-04 -1.07229101e-03  2.92841529e-03
  3.40617642e-02  3.71951393e-03 -1.98224698e-03 -9.20581093e-03  2.52950887e-04
 -5.98420447e-02 -5.41061093e-04  5.87200887e-03  8.83058904e-03 -2.17415086e-03
 -6.94737124e-02 -4.66122434e-03  8.17616635e-03 -5.58472311e-03  5.83784276e-03
 -3.28201153e-02  1.19316672e-03 -4.86988340e-04 -5.81495049e-03  2.10384559e-04
 -8.15125841e-02 -8.71197420e-03 -1.30746788e-02 -9.19693360e-04  2.06801225e-03
 -9.54024184e-02 -1.22020017e-02 -8.50440360e-03  1.07612526e-02 -6.38825433e-03
  1.62811740e-02 -2.27140088e-01 -1.26749840e-01  5.44662198e-02  9.30133378e-03
  1.37981640e-02  2.59789278e-03  1.01836514e-03  2.85563175e-03  3.10946946e-03
 -2.58594522e-03 -2.24813825e-03 -5.48032495e-03  4.96344533e-05  8.87046151e-03
 -1.34586798e-01 -1.01542514e-01 -1.09620469e-01 -7.64746856e-02 -6.64629903e-03
 -4.76504167e-02 -1.26412174e-02 -6.56365214e-03  2.36626168e-03 -4.14512596e-03
 -2.56686486e-03 -1.45128275e-02  3.97286259e-04 -1.34073813e-02  1.98809587e-01
  1.29812205e-01  1.01707560e-02 -1.19806689e-01 -4.49896968e-03  1.88664335e-02
 -3.33429570e-02 -2.88231539e-04 -3.36736017e-03  1.79234398e-04  1.99722199e-03
 -6.79624940e-03 -1.21309446e-02 -9.97357847e-03  2.51702444e-01  1.40194825e-01
 -7.26354120e-02  5.97752430e-02  1.11346295e-02 -2.26569677e-02  9.46188295e-03
  2.68271200e-03 -5.34494433e-03 -3.32654033e-04  1.35417418e-03 -5.29675403e-03
 -1.10246162e-02 -1.97015470e-03 -8.75031847e-02 -7.69484456e-02 -1.09474631e-01
 -4.51764677e-02  2.53467653e-02 -5.01906070e-02 -3.13276962e-03  1.01235503e-02
 -1.50791138e-03 -1.44722844e-03  1.31877311e-03  5.98233244e-03 -5.07059244e-03
 -1.08780074e-01 -2.03924439e-02  4.93074644e-03  1.15829159e-02 -3.18235235e-03
 -9.58296560e-02 -9.58564725e-03  6.07970381e-03  1.25962023e-02 -3.51680804e-03
 -9.55789013e-02 -1.22822040e-02  9.12662098e-03 -6.70815656e-03  7.84969801e-03
  1.07691787e-01  9.29347102e-03  5.19563021e-03  1.39130971e-02 -7.67904699e-04
  9.00182453e-02  1.38192967e-02  1.22901407e-02 -3.07504818e-03 -2.23585946e-03
 -5.76927719e-02 -1.17365546e-02 -6.76423767e-03  3.46696393e-03 -3.61616489e-03
  1.04134181e-02 -1.88727314e-01 -1.22729154e-01 -2.21965586e-02 -3.04633654e-02
  2.50482588e-04 -2.12941306e-02  4.61571716e-03 -8.50414960e-03 -1.53042362e-03
 -3.12465639e-04  4.95176588e-04  4.75303407e-04  2.27470975e-03 -2.68611469e-03
  8.38414161e-02  4.14432102e-02 -1.46849281e-01 -9.46027485e-02 -8.96663665e-03
 -4.91157631e-02 -4.04612605e-02 -8.36554531e-04 -9.86191657e-04 -4.59266414e-03
 -2.60376761e-03 -9.51700831e-03  1.46274685e-03 -6.02342489e-03  1.58687599e-01
  9.23968974e-02 -1.78171892e-02  1.17774336e-01 -1.29778879e-02  5.03203992e-03
  4.36807074e-02 -5.17704961e-03 -8.17089571e-04 -1.07624685e-03 -4.05649999e-03
 -2.23655309e-03  7.45577261e-03  3.08297805e-03 -2.07546110e-01 -1.26563041e-01
 -5.00981395e-02  1.44394256e-01  4.87220437e-03 -1.98518481e-02  3.55093429e-02
  9.95643569e-04  1.99379295e-03  2.32500327e-03 -2.94551167e-03 -8.98224034e-03
  9.61796242e-03  5.07934293e-04  5.33246862e-02  5.15913695e-02  2.37915154e-01
  1.42185589e-01 -6.16715328e-02  1.03446544e-01  4.34912488e-02 -2.56612675e-02
  1.23721556e-03  2.84284738e-03 -1.64531677e-03 -1.20061672e-02  3.86185984e-03
  1.91210358e-01  3.84490035e-02 -8.24337469e-03 -2.35138555e-02  2.94886839e-03
 -1.22643431e-01 -2.65466232e-02  5.08610525e-03  1.25930385e-02 -4.29508018e-03
 -9.18108746e-02 -6.02316577e-03  6.43372789e-03 -9.37960124e-03  5.80332708e-03
 -1.62707735e-01 -3.05028238e-02 -9.40715485e-03 -1.40876275e-02  1.23019337e-03
  9.44121563e-02  2.02778424e-02  1.05969030e-02  2.64765458e-03 -2.11560483e-03
  5.64910396e-02  1.12317042e-02  4.87676753e-04 -6.32634906e-03  2.35750534e-03
  6.75885615e-03 -1.39499641e-01 -8.50580513e-02 -1.40574391e-01  2.22761761e-02
 -4.25875808e-02 -5.61407676e-02  1.28724263e-02 -1.45528632e-02 -3.09200722e-03
  3.43026704e-03 -1.77766838e-05  1.08897602e-02  2.95111695e-03 -4.30614258e-03
  2.12518635e-01  1.22096257e-01 -1.05951135e-01  5.04456702e-02 -4.11051345e-02
 -4.47756129e-02  7.40347186e-03 -1.19642974e-02  4.17523289e-03 -2.60673237e-03
 -6.44492660e-04 -2.21082168e-03 -1.76815794e-04  1.91935393e-03 -7.64724944e-02
 -1.98943315e-02 -5.01937716e-03  1.85902318e-01 -2.04941812e-02  1.79113409e-03
  4.21573055e-02 -9.13187963e-03 -1.42331412e-03 -1.38441460e-03 -4.78111683e-03
 -3.63471984e-03  6.15072831e-03  2.70581050e-03 -1.50005332e-02 -1.75618101e-02
  1.58504849e-01 -1.73883049e-01 -3.56742968e-02  4.74484511e-02 -6.26571773e-02
 -1.05736611e-02 -2.26107587e-03 -2.68167279e-03  1.13886856e-03  1.02234026e-02
 -9.88950687e-03  1.27512848e-03  3.90220829e-02  6.05504659e-02 -1.96521538e-01
 -1.75431595e-01  4.52717558e-02 -7.57146351e-02 -7.08782114e-02  1.48977424e-02
  1.03936921e-03 -1.33990054e-03  9.19016051e-04  1.06458455e-02 -1.72147244e-03
 -1.87612245e-01 -4.73659080e-02  5.93445853e-03  1.24771042e-02 -5.41823262e-03
 -9.60265913e-02 -2.31666453e-02  3.30305943e-04  1.02843090e-02 -4.10685060e-03
 -1.68787581e-01 -3.63359494e-02  7.32932834e-03 -7.09901386e-03  1.01498362e-02
  2.87916159e-02  3.40205034e-03  3.49906356e-03  2.76951523e-04 -7.48010621e-04
 -4.19826535e-02 -9.57486866e-03 -5.28011441e-03  3.90959474e-03  4.71086072e-04
  1.87186581e-01  3.96539639e-02  9.31563829e-03 -1.30192469e-02  8.54231211e-03
 -7.65101675e-04  3.67158299e-02  4.23641332e-02  6.57948785e-02  1.43159957e-01
 -2.80983653e-02  1.21453101e-02  5.78137008e-02 -1.16625223e-02  2.18886083e-03
 -1.42724974e-03 -2.34994296e-03 -5.48638578e-04 -3.89946528e-03 -3.19642123e-04
 -3.04963507e-02 -1.64465712e-02 -9.05235030e-02  1.48844087e-01 -4.90079072e-02
 -5.35957601e-02  4.62575969e-02 -1.16815155e-02  9.55651836e-04 -1.77586717e-03
 -8.91542962e-04  6.99858738e-03  8.59299309e-03 -4.22572587e-03  3.11886855e-02