Generated by Psi4
        SP                           RHF                       CC-PVDZ
Number of atoms                            I               11
Charge                                     I                0
Multiplicity                               I                1
Number of electrons                        I               38
Number of alpha electrons                  I               19
Number of beta electrons                   I               19
Number of basis functions                  I              100
Number of independent functions            I              100
Atomic numbers                             I   N=          11
           6           6           6           6           8           1
           1           1           1           1           1
Nuclear charges                            R   N=          11
  6.00000000e+00  6.00000000e+00  6.00000000e+00  6.00000000e+00  8.00000000e+00
  1.00000000e+00  1.00000000e+00  1.00000000e+00  1.00000000e+00  1.00000000e+00
  1.00000000e+00
Current cartesian coordinates              R   N=          33
  1.99363053e+00  2.65673642e+00 -2.07734736e-01 -8.21905365e-01  2.39082382e+00
 -1.28470343e-01 -2.09846941e+00  1.92734282e-01  7.99935092e-02 -8.91127450e-01
 -2.31816704e+00  7.02554481e-02  1.37232641e+00 -2.72874461e+00  1.80088693e-01
  2.87945868e+00  1.10119459e+00 -1.24210876e+00  2.58016865e+00  4.48681767e+00
 -9.94866837e-01  2.74569814e+00  2.52246093e+00  1.74090303e+00 -2.23576037e+00
 -3.93877708e+00 -9.85664667e-02 -4.16359950e+00  2.08642374e-01  1.84657276e-01
 -1.94069474e+00  4.13354736e+00 -2.34008807e-01
Integer atomic weights                     I   N=          11
          12          12          12          12          16           1
           1           1           1           1           1
Real atomic weights                        R   N=          11
  1.20000000e+01  1.20000000e+01  1.20000000e+01  1.20000000e+01  1.59949146e+01
  1.00782503e+00  1.00782503e+00  1.00782503e+00  1.00782503e+00  1.00782503e+00
  1.00782503e+00
Number of primitive shells                 I              140
Number of contracted shells                I               48
Pure/Cartesian d shells                    I                0
Pure/Cartesian f shells                    I                0
Highest angular momentum                   I                2
Largest degree of contraction              I                8
Shell types                                I   N=          48
           0           0           0           1           1          -2
           0           0           0           1           1          -2
           0           0           0           1           1          -2
           0           0           0           1           1          -2
           0           0           0           1           1          -2
           0           0           1           0           0           1
           0           0           1           0           0           1
           0           0           1           0           0           1
Number of primitives per shell             I   N=          48
           8           8           1           3           1           1
           8           8           1           3           1           1
           8           8           1           3           1           1
           8           8           1           3           1           1
           8           8           1           3           1           1
           3           1           1           3           1           1
           3           1           1           3           1           1
           3           1           1           3           1           1
Shell to atom map                          I   N=          48
           1           1           1           1           1           1
           2           2           2           2           2           2
           3           3           3           3           3           3
           4           4           4           4           4           4
           5           5           5           5           5           5
           6           6           6           7           7           7
           8           8           8           9           9           9
          10          10          10          11          11          11
Primitive exponents                        R   N=         140
  6.66500000e+03  1.00000000e+03  2.28000000e+02  6.47100000e+01  2.10600000e+01
  7.49500000e+00  2.79700000e+00  5.21500000e-01  6.66500000e+03  1.00000000e+03
  2.28000000e+02  6.47100000e+01  2.10600000e+01  7.49500000e+00  2.79700000e+00
  5.21500000e-01  1.59600000e-01  9.43900000e+00  2.00200000e+00  5.45600000e-01
  1.51700000e-01  5.50000000e-01  6.66500000e+03  1.00000000e+03  2.28000000e+02
  6.47100000e+01  2.10600000e+01  7.49500000e+00  2.79700000e+00  5.21500000e-01
  6.66500000e+03  1.00000000e+03  2.28000000e+02  6.47100000e+01  2.10600000e+01
  7.49500000e+00  2.79700000e+00  5.21500000e-01  1.59600000e-01  9.43900000e+00
  2.00200000e+00  5.45600000e-01  1.51700000e-01  5.50000000e-01  6.66500000e+03
  1.00000000e+03  2.28000000e+02  6.47100000e+01  2.10600000e+01  7.49500000e+00
  2.79700000e+00  5.21500000e-01  6.66500000e+03  1.00000000e+03  2.28000000e+02
  6.47100000e+01  2.10600000e+01  7.49500000e+00  2.79700000e+00  5.21500000e-01
  1.59600000e-01  9.43900000e+00  2.00200000e+00  5.45600000e-01  1.51700000e-01
  5.50000000e-01  6.66500000e+03  1.00000000e+03  2.28000000e+02  6.47100000e+01
  2.10600000e+01  7.49500000e+00  2.79700000e+00  5.21500000e-01  6.66500000e+03
  1.00000000e+03  2.28000000e+02  6.47100000e+01  2.10600000e+01  7.49500000e+00
  2.79700000e+00  5.21500000e-01  1.59600000e-01  9.43900000e+00  2.00200000e+00
  5.45600000e-01  1.51700000e-01  5.50000000e-01  1.17200000e+04  1.75900000e+03
  4.00800000e+02  1.13700000e+02  3.70300000e+01  1.32700000e+01  5.02500000e+00
  1.01300000e+00  1.17200000e+04  1.75900000e+03  4.00800000e+02  1.13700000e+02
  3.70300000e+01  1.32700000e+01  5.02500000e+00  1.01300000e+00  3.02300000e-01
  1.77000000e+01  3.85400000e+00  1.04600000e+00  2.75300000e-01  1.18500000e+00
  1.30100000e+01  1.96200000e+00  4.44600000e-01  1.22000000e-01  7.27000000e-01
  1.30100000e+01  1.96200000e+00  4.44600000e-01  1.22000000e-01  7.27000000e-01
  1.30100000e+01  1.96200000e+00  4.44600000e-01  1.22000000e-01  7.27000000e-01
  1.30100000e+01  1.96200000e+00  4.44600000e-01  1.22000000e-01  7.27000000e-01
  1.30100000e+01  1.96200000e+00  4.44600000e-01  1.22000000e-01  7.27000000e-01
  1.30100000e+01  1.96200000e+00  4.44600000e-01  1.22000000e-01  7.27000000e-01
Contraction coefficients                   R   N=         140
  6.91583963e-04  5.32579615e-03  2.70607210e-02  1.01656846e-01  2.74574824e-01
  4.48294319e-01  2.84902611e-01  1.51948592e-02 -2.93269653e-04 -2.31803547e-03
 -1.14997860e-02 -4.68267270e-02 -1.28466169e-01 -3.01266272e-01 -2.55630702e-01
  1.09379336e+00  1.00000000e+00  5.69792516e-02  3.13207212e-01  7.60376742e-01
  1.00000000e+00  1.00000000e+00  6.91583963e-04  5.32579615e-03  2.70607210e-02
  1.01656846e-01  2.74574824e-01  4.48294319e-01  2.84902611e-01  1.51948592e-02
 -2.93269653e-04 -2.31803547e-03 -1.14997860e-02 -4.68267270e-02 -1.28466169e-01
 -3.01266272e-01 -2.55630702e-01  1.09379336e+00  1.00000000e+00  5.69792516e-02
  3.13207212e-01  7.60376742e-01  1.00000000e+00  1.00000000e+00  6.91583963e-04
  5.32579615e-03  2.70607210e-02  1.01656846e-01  2.74574824e-01  4.48294319e-01
  2.84902611e-01  1.51948592e-02 -2.93269653e-04 -2.31803547e-03 -1.14997860e-02
 -4.68267270e-02 -1.28466169e-01 -3.01266272e-01 -2.55630702e-01  1.09379336e+00
  1.00000000e+00  5.69792516e-02  3.13207212e-01  7.60376742e-01  1.00000000e+00
  1.00000000e+00  6.91583963e-04  5.32579615e-03  2.70607210e-02  1.01656846e-01
  2.74574824e-01  4.48294319e-01  2.84902611e-01  1.51948592e-02 -2.93269653e-04
 -2.31803547e-03 -1.14997860e-02 -4.68267270e-02 -1.28466169e-01 -3.01266272e-01
 -2.55630702e-01  1.09379336e+00  1.00000000e+00  5.69792516e-02  3.13207212e-01
  7.60376742e-01  1.00000000e+00  1.00000000e+00  7.09645947e-04  5.46727229e-03
  2.78231186e-02  1.04747740e-01  2.82920846e-01  4.48495239e-01  2.70816885e-01
  1.54502916e-02 -3.14443412e-04 -2.48213768e-03 -1.23163554e-02 -5.05389173e-02
 -1.39384903e-01 -3.25077495e-01 -2.29848308e-01  1.09537935e+00  1.00000000e+00
  6.26791663e-02  3.33536566e-01  7.41239642e-01  1.00000000e+00  1.00000000e+00
  3.34987264e-02  2.34800801e-01  8.13682958e-01  1.00000000e+00  1.00000000e+00
  3.34987264e-02  2.34800801e-01  8.13682958e-01  1.00000000e+00  1.00000000e+00
  3.34987264e-02  2.34800801e-01  8.13682958e-01  1.00000000e+00  1.00000000e+00
  3.34987264e-02  2.34800801e-01  8.13682958e-01  1.00000000e+00  1.00000000e+00
  3.34987264e-02  2.34800801e-01  8.13682958e-01  1.00000000e+00  1.00000000e+00
  3.34987264e-02  2.34800801e-01  8.13682958e-01  1.00000000e+00  1.00000000e+00
Coordinates of each shell                  R   N=         144
  1.99363053e+00  2.65673642e+00 -2.07734736e-01  1.99363053e+00  2.65673642e+00
 -2.07734736e-01  1.99363053e+00  2.65673642e+00 -2.07734736e-01  1.99363053e+00
  2.65673642e+00 -2.07734736e-01  1.99363053e+00  2.65673642e+00 -2.07734736e-01
  1.99363053e+00  2.65673642e+00 -2.07734736e-01 -8.21905365e-01  2.39082382e+00
 -1.28470343e-01 -8.21905365e-01  2.39082382e+00 -1.28470343e-01 -8.21905365e-01
  2.39082382e+00 -1.28470343e-01 -8.21905365e-01  2.39082382e+00 -1.28470343e-01
 -8.21905365e-01  2.39082382e+00 -1.28470343e-01 -8.21905365e-01  2.39082382e+00
 -1.28470343e-01 -2.09846941e+00  1.92734282e-01  7.99935092e-02 -2.09846941e+00
  1.92734282e-01  7.99935092e-02 -2.09846941e+00  1.92734282e-01  7.99935092e-02
 -2.09846941e+00  1.92734282e-01  7.99935092e-02 -2.09846941e+00  1.92734282e-01
  7.99935092e-02 -2.09846941e+00  1.92734282e-01  7.99935092e-02 -8.91127450e-01
 -2.31816704e+00  7.02554481e-02 -8.91127450e-01 -2.31816704e+00  7.02554481e-02
 -8.91127450e-01 -2.31816704e+00  7.02554481e-02 -8.91127450e-01 -2.31816704e+00
  7.02554481e-02 -8.91127450e-01 -2.31816704e+00  7.02554481e-02 -8.91127450e-01
 -2.31816704e+00  7.02554481e-02  1.37232641e+00 -2.72874461e+00  1.80088693e-01
  1.37232641e+00 -2.72874461e+00  1.80088693e-01  1.37232641e+00 -2.72874461e+00
  1.80088693e-01  1.37232641e+00 -2.72874461e+00  1.80088693e-01  1.37232641e+00
 -2.72874461e+00  1.80088693e-01  1.37232641e+00 -2.72874461e+00  1.80088693e-01
  2.87945868e+00  1.10119459e+00 -1.24210876e+00  2.87945868e+00  1.10119459e+00
 -1.24210876e+00  2.87945868e+00  1.10119459e+00 -1.24210876e+00  2.58016865e+00
  4.48681767e+00 -9.94866837e-01  2.58016865e+00  4.48681767e+00 -9.94866837e-01
  2.58016865e+00  4.48681767e+00 -9.94866837e-01  2.74569814e+00  2.52246093e+00
  1.74090303e+00  2.74569814e+00  2.52246093e+00  1.74090303e+00  2.74569814e+00
  2.52246093e+00  1.74090303e+00 -2.23576037e+00 -3.93877708e+00 -9.85664667e-02
 -2.23576037e+00 -3.93877708e+00 -9.85664667e-02 -2.23576037e+00 -3.93877708e+00
 -9.85664667e-02 -4.16359950e+00  2.08642374e-01  1.84657276e-01 -4.16359950e+00
  2.08642374e-01  1.84657276e-01 -4.16359950e+00  2.08642374e-01  1.84657276e-01
 -1.94069474e+00  4.13354736e+00 -2.34008807e-01 -1.94069474e+00  4.13354736e+00
 -2.34008807e-01 -1.94069474e+00  4.13354736e+00 -2.34008807e-01
Total Energy                               R     -2.312411017858449e+02
Alpha Orbital Energies                     R   N=         100
 -1.91346367e+01 -1.02723139e+01 -1.02226905e+01 -1.01971188e+01 -1.01905551e+01
 -1.03964722e+00 -8.10288260e-01 -7.17317847e-01 -6.28766345e-01 -5.33877920e-01
 -4.97086747e-01 -4.41298858e-01 -4.31599924e-01 -4.21706298e-01 -3.85490429e-01
 -3.79266970e-01 -3.75538369e-01 -2.74132657e-01 -2.49218856e-01 -6.49445656e-02
  5.36507308e-02  6.35074581e-02  8.93448399e-02  1.05008680e-01  1.29623619e-01
  1.45950184e-01  1.57708442e-01  2.16512346e-01  2.62170846e-01  3.23283847e-01
  3.40207592e-01  4.31852592e-01  4.38241811e-01  4.51978932e-01  4.75269648e-01
  4.84838735e-01  5.07449720e-01  5.26741721e-01  5.63937068e-01  6.01406842e-01
  6.15414245e-01  6.27586719e-01  6.36490307e-01  6.50423794e-01  6.68166152e-01
  6.85982169e-01  7.02968910e-01  7.68483742e-01  8.24695884e-01  8.52626280e-01
  9.12181512e-01  9.36963488e-01  9.64800222e-01  1.00526413e+00  1.02304424e+00
  1.03920166e+00  1.07912622e+00  1.15134821e+00  1.18574992e+00  1.19429937e+00
  1.29460312e+00  1.36367218e+00  1.39340970e+00  1.46505166e+00  1.47854076e+00
  1.49572985e+00  1.54810887e+00  1.56651769e+00  1.62152848e+00  1.62567172e+00
  1.65326337e+00  1.66195958e+00  1.67085065e+00  1.69184021e+00  1.73312804e+00
  1.75211425e+00  1.78633081e+00  1.80444473e+00  1.85032946e+00  1.92363399e+00
  1.96479736e+00  1.97422170e+00  2.01633124e+00  2.06217327e+00  2.10715255e+00
  2.23598751e+00  2.31620542e+00  2.33979190e+00  2.39738368e+00  2.41521402e+00
  2.42341814e+00  2.49204654e+00  2.57931901e+00  2.65034833e+00  2.69686731e+00
  2.79151291e+00  2.97993737e+00  3.06720260e+00  3.42160193e+00  3.48111035e+00
Alpha MO coefficients                      R   N=       10000
 -5.92607924e-05 -1.27219211e-04  3.18157555e-05  6.26955286e-05  3.61342026e-05
  1.43574880e-05 -2.01723194e-05 -5.23465025e-05  1.82793401e-04  6.08704376e-05
  3.35514485e-05  4.88041216e-05  6.70956469e-05 -1.02293369e-04 -2.18188910e-04
 -3.88249630e-04  5.64952717e-03 -1.95494982e-05 -1.47583568e-05 -3.97297578e-05
 -1.05546309e-03 -2.40248013e-03  3.38748049e-04 -3.72761481e-05  9.46892049e-06
 -9.48046045e-06 -5.20460577e-05 -4.71605550e-05  2.18108629e-04  3.35294315e-04
 -4.30232904e-03  2.41211732e-05  2.85120787e-04 -1.61484439e-05 -4.67188621e-03
 -3.59197851e-03  1.73370822e-04  1.42592107e-04  2.11221486e-05  7.24999116e-05
 -3.63921272e-04  5.06784559e-04  4.47109719e-04  5.83681013e-04  5.46351630e-03
 -1.10103303e-04 -1.76831098e-04 -1.87779955e-05  6.63390017e-03  6.10470993e-04
  2.67983876e-04 -3.17103728e-05 -2.58054545e-05  5.81739943e-05 -1.16668557e-03
  5.21647256e-04  1.00417258e+00  9.47750146e-03 -1.51349160e-02 -1.83735185e-03
  3.60592501e-04 -1.06134523e-04  3.50323464e-03 -8.48504197e-04  1.91199569e-04
 -2.02565921e-05  6.20348027e-06 -1.68882807e-06  6.88139083e-05  7.27584733e-06
 -1.02581925e-04 -7.76163317e-05  4.79848383e-05  2.50289651e-05  5.21034888e-06
  1.18009504e-04  3.33773079e-04 -7.00853708e-05 -7.68289304e-05  3.55374788e-05
 -8.21458330e-05 -2.49185640e-04  6.29380510e-05  5.30592494e-05  5.16063184e-05
 -1.63375069e-04  9.22671200e-04 -7.66611977e-04  1.06577035e-04 -2.65768737e-05
 -2.67405105e-04 -1.34467041e-03  1.90886798e-04  2.59906966e-04  6.86827551e-06
 -1.83291502e-04  2.52084928e-04  4.92407218e-05  8.64254250e-05 -1.95116450e-05
 -3.55479031e-04 -4.64176449e-04  8.73426118e-04  2.95381766e-04  6.31758212e-05
 -4.31427624e-06 -6.07051321e-04  1.68230318e-04  7.04711968e-05  6.09805474e-07
 -3.73895533e-05  2.05736455e-05 -1.25960566e-04 -5.49197544e-05 -4.28832152e-04
 -6.33499102e-04  6.79670494e-03 -2.70997937e-04 -2.46152704e-05  3.08205908e-05
 -2.28610276e-03 -3.97522275e-03  4.14140564e-04 -4.26508582e-04 -1.31043001e-04
 -7.15834085e-05  3.20672521e-04  3.73291525e-04  1.64080905e-03 -2.41850089e-04
 -2.25711231e-03 -3.47670588e-04  7.58740059e-04  1.39649639e-05 -2.72236710e-03
 -6.13673191e-03  3.22718467e-04  1.05752690e-03 -2.67017102e-05  2.49669835e-05
  1.14685430e-03  8.46584576e-04  1.00594331e+00  1.52908559e-02 -1.07419724e-02
  7.30992920e-04 -5.01915481e-04 -1.19300758e-05  5.43274469e-03 -2.06609883e-03
  1.43962352e-04 -1.64816341e-03  2.53629224e-04  9.62296759e-05  8.02444063e-04
  1.55203457e-05  3.64882015e-04  9.12096156e-04 -5.95251223e-03  7.38794021e-04
 -2.14619467e-04  2.34578622e-05  3.39492612e-03 -2.21348889e-04  1.97986631e-04
  5.62690445e-04 -7.74735075e-05  4.44898821e-07 -7.11561301e-04  2.58257822e-04
 -9.50279195e-05  4.37077842e-06  6.28794741e-05  2.65098194e-05 -1.55392653e-05
 -4.60859723e-05  3.20878151e-04 -5.75954862e-05 -3.68609128e-05  1.77115243e-06
 -5.61523843e-05 -4.17216764e-05  9.48220953e-05  3.65694000e-05 -3.37386210e-05
 -1.68757402e-03  2.48580520e-03 -1.44580083e-03 -1.46197707e-03 -1.58404413e-04
 -5.00637424e-04 -4.83585256e-04  6.06332489e-05  3.17631166e-04 -2.36515126e-05
 -3.63225053e-05  6.31718491e-04  2.33960305e-04  1.07873708e-04 -2.19722006e-05
  3.19988707e-03 -4.32989813e-04  4.41244352e-03  7.28037777e-04  6.94344127e-05
  6.08113540e-05 -2.38594860e-03 -9.74047604e-04 -4.38411689e-04  7.94215203e-04
  9.90358038e-05  1.39865422e-05 -1.01256733e-03 -4.44596113e-06  1.00631137e+00
  1.61193825e-02 -2.00438135e-02 -5.34182466e-04  2.15505354e-04  1.50576933e-05
 -2.23819398e-03  3.76830276e-03 -1.83838903e-04 -1.07251418e-03  4.66608761e-05
 -1.69750282e-04 -5.41746728e-04 -3.12820717e-04  1.30267036e-02 -1.28156434e-03
  4.81951571e-03 -7.56368487e-04 -1.09468354e-03  1.20055822e-04  2.73214693e-03
  2.43769757e-03 -2.56287956e-04  8.81600016e-04  1.04317134e-04  2.04170195e-04
  5.35921465e-04 -9.69991467e-04 -2.67661459e-04 -5.26313842e-04  1.01416478e-03
 -3.14009120e-05 -2.09711562e-04  2.56118512e-05 -2.89874733e-04  1.02751244e-03
 -1.88599715e-05 -3.33727731e-04 -5.16504959e-05 -8.63952866e-06  1.79161218e-04
 -5.16182857e-05 -3.43199044e-05 -7.37638788e-05 -1.75095592e-04  1.22242413e-04
  5.46946917e-06  1.81898707e-05 -8.79981731e-05 -2.94872500e-04  1.12197864e-05
  1.07040266e-05 -2.03049591e-05  4.28807627e-06 -2.63204697e-06  1.92391971e-05
 -4.34299259e-04  2.47432870e-04 -5.23689898e-05  2.52290520e-05  7.60025834e-05
 -3.25636516e-04  2.49307176e-04  1.02410072e-04  5.89085807e-05  6.70470374e-05
 -4.75352849e-04  1.19213086e-03 -1.58722108e-04  9.26885490e-06  2.31651639e-05
 -4.74564020e-05  3.85848110e-04  5.00330561e-05 -6.16592698e-05 -1.05939832e-05
  1.30291657e-04  9.45870433e-04  1.39458302e-04 -2.42708245e-04  3.52868624e-06
 -2.39116804e-03  1.14539513e-03 -1.22107379e-03  1.79140671e-03 -1.01610494e-04
  1.36592696e-03  4.29627572e-04 -4.85501508e-05 -9.88386406e-05 -1.22531376e-04
  9.14185129e-05  7.53367826e-04 -6.74027563e-05 -2.03056356e-04  3.09120678e-04
  4.54678372e-05  1.45564858e-05 -5.96840353e-05  1.72554870e-04  1.45412818e-02
  1.78583230e-03 -6.62693022e-03 -6.02849381e-04 -1.21186122e-03  1.16874642e-04
  5.84340868e-04  4.00204802e-03 -1.74507028e-04 -9.27375168e-04 -1.16168459e-04
 -1.93264779e-04 -5.53766652e-04  9.77314701e-04 -1.00649438e+00 -1.65758305e-02
  2.14377149e-02  3.24451767e-04 -2.79641277e-04  7.79148327e-05  5.51978551e-03
  3.09316389e-04 -5.24324898e-04  1.08936045e-03  1.46949641e-04  9.03249970e-05
 -4.16093780e-04 -4.27446429e-04  1.95697322e-03  7.94986578e-04 -5.77463883e-03
 -2.60159982e-04  7.29633998e-04  2.51804361e-05 -5.22009663e-04 -3.52082228e-03
  4.44577060e-05 -7.02071892e-04 -9.48710383e-05 -5.12197611e-06 -6.05488894e-04
 -1.20343515e-03 -4.14547359e-05 -7.17781580e-05  8.48043766e-04 -2.31125516e-05
  6.94290072e-05  3.19903348e-05  1.12385099e-04  6.24043992e-04 -4.94479668e-05
  1.29920720e-04 -3.92149313e-05 -1.56890310e-05 -7.64093509e-05 -2.20938622e-04
  1.43859743e-04 -3.54871438e-04 -2.58221399e-05 -6.40923674e-05  5.76137635e-05
 -4.58746490e-05 -2.78611889e-04 -3.74344251e-05  5.97537294e-05  2.25276439e-05
  1.01446370e-05 -1.48445463e-04 -4.99685667e-05 -7.07526662e-05  1.36546592e-04
  2.57262908e-04 -1.00260512e-03 -8.40766112e-05  2.03158117e-04 -3.04493169e-05
  2.48658433e-03 -7.82639830e-04  2.16136586e-03 -1.38870445e-04 -7.98174276e-05
 -1.10515368e-04 -9.48753386e-04 -2.73196774e-04  3.81335465e-05 -1.30566808e-05
  1.00700994e+00  1.74782145e-02 -1.93575392e-02  4.46148458e-04  7.03069962e-05
  1.26106659e-04  2.91177131e-03  2.78238489e-04 -5.33339724e-04  2.11253456e-04
 -1.48251291e-05 -7.73993591e-05 -6.12886524e-04 -7.52132214e-05 -3.41951603e-03
 -2.81173586e-04  1.74990188e-03 -4.91555192e-04  5.55294186e-05  1.05218629e-05
  4.33453558e-03  2.33130159e-03 -2.23402128e-04  6.23351922e-04  1.10013191e-04
 -5.15874070e-07 -1.34331278e-03 -4.92189741e-04  7.47942529e-04 -5.96541749e-04
  3.54285239e-03 -2.14984170e-04  6.92661932e-05  1.08261182e-06  1.03903702e-03
  2.60257849e-03 -2.64263546e-04 -3.57723063e-04  1.85497047e-05 -6.88778682e-05
 -5.00357569e-04 -2.11370789e-04 -1.16606038e-04 -4.90749640e-04  5.36922792e-04
 -5.23754662e-05 -2.76812917e-04 -2.34830070e-05 -1.30065670e-04  5.20246887e-04
  8.53389162e-05 -2.82725731e-05 -2.27035123e-05 -1.37592781e-05  3.45539061e-05
  4.09912505e-05 -8.91320831e-05 -1.75584062e-04  2.41902902e-04  1.61456116e-05
 -1.20385491e-04 -1.35664286e-05 -1.60388420e-04  2.54178129e-04  4.25613199e-05
 -5.09418873e-05  2.26208279e-06  2.92868497e-06  2.08395310e-07 -1.56564091e-06
 -1.23221806e-03  1.97856171e-03  6.72620195e-04 -1.47889839e-03 -9.86128760e-04
 -1.41154002e-03  1.85361386e-03  5.13072022e-04  1.80648964e-03 -7.62198029e-04
 -1.05336188e-03  2.35028855e-03  5.14388106e-04 -1.42837350e-04  1.81321592e-03
  1.99615383e-05  3.98069471e-04  7.22455120e-06  6.64954494e-05 -1.10182520e-05
  4.59616915e-05  4.20008891e-04  8.15318380e-05 -1.98922555e-04  1.78784465e-05
 -4.20603914e-04  1.85576715e-04 -3.83201567e-04 -1.36385534e-04  2.15074003e-05
 -4.95010271e-04  7.18218978e-03  5.60642891e-03 -3.21024447e-03 -3.46824497e-03
 -4.24891459e-05 -3.00735077e-03 -2.02505594e-03  8.78689299e-04 -6.70672144e-04
 -1.75101712e-04 -1.89393086e-04  1.35140971e-04  8.97906637e-04  5.58067621e-04
  1.68276316e-02 -1.27358165e-02  9.21020292e-05 -1.06854842e-02  8.30279039e-04
 -2.18200701e-03  9.77412552e-03 -8.83590433e-04 -4.67815412e-04 -1.61030458e-04
 -3.57625601e-04 -1.57764009e-03  7.53214427e-04 -3.68046152e-03  3.64872687e-02
  3.24683398e-02  2.10815676e-02 -1.99990486e-02  3.32280517e-05  2.01002632e-02
  1.46843843e-03 -1.00268397e-03 -3.80985872e-03 -7.21335114e-05 -3.54826408e-04
 -6.26686889e-04 -9.09395689e-03 -1.47403696e-02  2.24803352e-01  9.41111715e-02
  1.84578980e-01 -2.50943609e-02  8.93048567e-03  1.23883255e-02 -2.69259542e-03
  1.06606983e-03 -1.36030375e-02  2.26005872e-03 -1.27321528e-03  3.12795981e-02
 -1.38254950e-02 -9.20651906e-03  4.01980743e-01  3.59996162e-01 -1.55305125e-01
  3.14087705e-02 -8.01543750e-03 -3.16489229e-02  7.25009135e-03 -2.17492583e-03
 -5.30616206e-03  9.63185567e-04 -6.26262597e-04  1.21276809e-02 -5.06413922e-03
  6.00984405e-03  3.33494822e-03 -6.61295757e-04 -4.64001884e-04  6.36346922e-04
  1.02672269e-03 -2.18441683e-04  2.93578138e-05 -8.49227286e-06 -5.79154229e-05
  2.25626084e-03  8.56311835e-04 -3.00000869e-04 -2.77501916e-04 -4.98021832e-04
  4.02771969e-02 -3.40108401e-03  1.00945603e-02  6.13730990e-03  8.68949492e-04
  7.13133235e-03  6.06801405e-03  9.50198324e-04 -1.93236879e-03 -5.47065983e-05
  1.84035308e-03 -3.19936181e-03 -1.94023107e-04 -8.44924125e-04  9.99389107e-05
  1.10968997e-02 -1.80262958e-01 -7.40314101e-02  6.61913232e-02  1.30568831e-02
 -4.48058412e-03  2.69194833e-03 -8.70839284e-03  1.46676240e-03  5.68574577e-03
  6.96080339e-04 -3.19646373e-05 -9.94612280e-03 -3.32033226e-03  1.99494304e-02
 -2.90421630e-01 -2.02471938e-01 -1.79211890e-03  6.89026570e-02 -5.63900594e-03
 -3.23413567e-02  2.33739686e-02 -1.59872735e-03  1.00137136e-02  1.07514398e-03
  1.31728909e-03 -2.46791164e-03 -1.07224620e-02  1.72480580e-02 -2.54847785e-01
 -1.40069740e-01 -5.90900951e-02 -5.74425669e-02  9.19788933e-03 -2.48886061e-03
 -2.28626235e-02  2.41872971e-03  6.91145313e-03  1.05496286e-03  1.43394684e-03
  8.77408133e-03 -8.92131515e-03  2.53862153e-03 -6.42125373e-02 -5.17992601e-02
  7.10158117e-02 -8.08267588e-02  3.53014166e-03  2.45982350e-02 -2.27788045e-02
  2.41217075e-04  2.70597738e-03  5.81052738e-04  1.37925714e-05  1.35459473e-02
  2.97943237e-03 -3.52336874e-04  7.62988569e-02  7.30341033e-02 -1.19232017e-02
 -1.65157086e-02 -1.41115087e-04  1.39766626e-03 -7.02619984e-03  5.91726686e-04
  1.75245221e-04  4.95855743e-05  1.18868338e-04  1.67136888e-03  1.60469544e-03
 -6.73600771e-02 -2.99215029e-03  4.96568387e-03 -7.44060002e-03 -5.22531518e-03
 -6.13774725e-02 -1.24116510e-03  4.40775476e-03  8.49277579e-03 -3.57568785e-03
 -6.75406092e-02 -3.39460629e-03  4.47566114e-03  1.04862997e-04  9.09372928e-03
 -1.81368857e-02  5.70727339e-04  8.35021163e-05 -3.41562821e-03 -3.18479955e-05
 -8.38904831e-02 -2.36755173e-03 -1.43256706e-02 -1.65844553e-03  8.90170990e-04
 -1.00357730e-01 -1.32507866e-02 -7.01378510e-03  1.40373301e-02 -8.48949725e-04
  1.42928217e-02 -2.86390041e-01 -1.19996870e-01  1.88170576e-02 -9.60738803e-03
 -3.94772817e-03 -1.69809371e-02 -7.96586469e-03  9.36094108e-05  1.48979786e-03
  5.53423458e-05 -1.76894475e-04 -2.99461961e-03  2.28835149e-03  5.41448916e-03
 -5.01184489e-02 -8.68735024e-02 -1.38357905e-01 -9.20616470e-02  8.54424981e-03
 -9.24145886e-02 -6.83590133e-03  2.53161377e-03  3.89599488e-03  9.93141022e-05
 -7.38688849e-04 -1.74335485e-02  3.69376680e-03 -1.39506417e-02  2.27144067e-01
  1.67282957e-01 -6.06452062e-03 -5.73616078e-02 -1.37233037e-03  3.64139404e-02
 -3.90757775e-02 -7.96973797e-04 -4.67684315e-03  4.95043548e-05 -1.75371844e-05
 -9.87989626e-03 -5.49077415e-03 -3.15350074e-03  1.54356107e-01  6.42145340e-02
 -1.08482549e-01  7.66234762e-02 -2.93520069e-03 -3.79494563e-02  7.95570217e-03
 -1.61290353e-03 -1.64282178e-03 -5.09907165e-04  6.92540664e-05 -9.85911499e-03
 -5.54063651e-03 -2.48319424e-04 -8.38807155e-02 -8.33713062e-02 -1.97910321e-02
  8.43944607e-03  8.25966622e-04 -2.10952561e-02  2.48506709e-03 -3.57960529e-04
 -9.60860280e-04  1.15536260e-04  1.71250000e-04  1.05253425e-03 -2.00494161e-03
 -1.23245292e-01 -1.69858043e-02  7.13369319e-03 -1.27782214e-02 -8.38969394e-03
 -1.34012330e-01 -1.60795914e-02  5.27230732e-03  1.58042682e-02 -7.08808105e-03
 -1.29506644e-01 -1.60782323e-02  6.09641830e-03 -1.63308990e-03  1.61991130e-02
  7.22039950e-02  2.78353866e-03  3.50873844e-03  8.80679119e-03  6.77035031e-04
  1.15478892e-01  2.32802173e-02  1.46358211e-02 -1.28792467e-03 -7.60821659e-04
 -2.95914147e-02 -1.65903043e-02 -4.13947027e-03  8.47092103e-04  3.84727207e-05
  5.49655858e-03 -1.76994054e-01 -9.69728284e-02 -7.44449660e-02 -4.54406463e-03
 -2.10849497e-03 -3.85167876e-02 -6.50086516e-03  6.44641796e-03 -4.93045835e-03
 -7.66880214e-04 -2.40113722e-04  7.35659360e-03  8.84708608e-04 -5.29623175e-03
  2.10043805e-01  9.82407361e-02 -1.40478354e-01 -1.42722091e-02  6.08701255e-03
 -4.22017681e-02  4.67363010e-04 -4.04277791e-04  2.68687304e-03 -7.87064054e-04
 -5.58881944e-04 -5.21652570e-03  3.44624941e-03 -1.39846256e-03  5.32284392e-04
  1.23981342e-02  1.09313835e-02  2.48281103e-01 -9.70911847e-03  6.82248661e-03
  7.66821422e-02 -2.28671302e-03  6.14560574e-04 -3.36575898e-04 -2.13731757e-03
  1.73104641e-03  1.13469686e-02  2.52396080e-03 -2.34800446e-01 -1.52808454e-01
  1.55937077e-01 -2.67784816e-02  7.22182579e-03  4.77729941e-02 -1.90250078e-02
  2.07966415e-03 -1.14797930e-03  9.41903174e-04 -3.22367616e-04  5.95091074e-03
  1.76962525e-03  9.94084339e-04  1.22998765e-01  1.43351068e-01  5.26159801e-02
 -9.65900711e-03  3.35806895e-03  4.00528429e-02 -6.12412022e-03  2.70319233e-03
  2.55849096e-03 -3.14689148e-04  5.60313570e-05 -2.33333798e-03  6.62569080e-04
 -1.02502120e-01 -8.19075551e-03  3.64318795e-03 -1.00094867e-02 -5.93387905e-03
 -1.02906971e-01 -1.58526890e-02  1.54521139e-03  1.05493766e-02 -4.98527499e-03
 -1.05657041e-01 -2.02559365e-02  3.15568086e-03 -8.26951761e-04  1.11868517e-02
 -1.59331465e-01 -2.87098164e-02 -8.03134795e-03 -1.42740397e-02 -1.27324512e-03
 -5.36001481e-03 -3.77253317e-04 -2.82631469e-04  5.00016156e-03 -1.87944328e-04
  1.47098281e-01  2.52069848e-02  6.69499232e-03 -1.49652375e-02  1.12868667e-03
  1.63717775e-03 -4.64011875e-02 -3.60533999e-02 -1.18453310e-01  8.82051049e-02
 -3.79665085e-03 -3.42471755e-02  3.65852917e-02 -3.94950140e-03 -5.27311891e-03
  1.80161399e-04 -1.63455083e-03  9.65784104e-03 -6.01116923e-03 -2.33623746e-03
  1.43024475e-01  9.85310778e-02  4.42277797e-04  2.22702801e-01 -1.92362470e-02
  2.56098540e-02  6.98501672e-02 -6.24774306e-03  4.10722290e-03  1.05873092e-03
  8.98486931e-04  4.84602606e-04 -6.60592706e-03  2.83293184e-03 -1.52632824e-01
 -1.04393357e-01 -1.81524186e-02  2.23733361e-03 -5.30305916e-03 -1.99808439e-02
  3.10778762e-02 -4.13473621e-03 -4.09434936e-03  1.29909238e-04 -5.17411239e-04
 -1.33997662e-02  1.47721621e-03  5.39375120e-04  1.57618476e-01  1.19921255e-01
 -6.22132756e-02 -2.39014881e-01 -1.24983040e-02 -4.81940366e-02 -5.34294178e-02
 -3.60148442e-03  5.29014786e-03  2.35479547e-04 -5.40559078e-05 -2.64909887e-04
  1.26062213e-03  3.14755883e-04 -8.66784059e-02 -1.20430429e-01 -1.40600813e-01
 -1.10701444e-01 -8.14515256e-03 -8.31850660e-02 -6.10299172e-02 -4.57023188e-03
 -3.52320387e-03  1.17016230e-03  6.31656788e-04  8.91162021e-03  6.83346980e-03
 -1.10718203e-01 -3.52253888e-02  1.84312167e-03 -4.89411023e-03 -6.11754547e-03
  2.79243614e-03 -4.47910608e-03 -3.43204234e-03  2.22072044e-03  5.69309199e-05
 -6.24003574e-02 -1.93935493e-02 -7.72097568e-04  2.42336984e-03  5.86976858e-03
  2.30112860e-01  6.02767144e-02  1.17243257e-02  1.28788666e-02  1.58753298e-03
 -8.23939056e-02 -2.96949277e-02 -8.55963223e-03 -6.52089508e-04  3.52314168e-04
  2.16745097e-01  6.40483179e-02  1.07657319e-02 -1.22863668e-02  6.33546312e-04
  2.86354985e-03 -4.79842728e-02 -5.09629735e-02 -1.46957370e-01 -9.65823637e-02
  6.37420739e-03 -3.28415546e-02 -4.02128210e-02 -3.11980290e-03 -5.19563281e-03
 -9.66255996e-04  2.02247589e-03  7.61257762e-03  4.51986167e-03  7.94696366e-04
  8.78092646e-02  5.57918827e-02  1.39187055e-01 -1.12350644e-01  3.90220602e-04
  8.72026864e-02 -2.87180779e-02 -1.64470783e-03  1.77481723e-03  1.44264769e-03
  5.30076217e-04 -9.87373531e-03 -1.06184419e-02  5.62698190e-03 -7.26174750e-02