Generated by Psi4
        SP                           RHF                       CC-PVDZ
Number of atoms                            I               11
Charge                                     I                0
Multiplicity                               I                1
Number of electrons                        I               38
Number of alpha electrons                  I               19
Number of beta electrons                   I               19
Number of basis functions                  I              100
Number of independent functions            I              100
Atomic numbers                             I   N=          11
           6           6           6           6           8           1
           1           1           1           1           1
Nuclear charges                            R   N=          11
  6.00000000e+00  6.00000000e+00  6.00000000e+00  6.00000000e+00  8.00000000e+00
  1.00000000e+00  1.00000000e+00  1.00000000e+00  1.00000000e+00  1.00000000e+00
  1.00000000e+00
Current cartesian coordinates              R   N=          33
  2.01686644e+00  2.69601411e+00 -2.14474396e-01 -7.97546673e-01  2.38561958e+00
 -1.14473510e-01 -2.09298674e+00  1.87841621e-01  2.95978114e-02 -9.15153628e-01
 -2.33942808e+00  7.15357475e-02  1.34824583e+00 -2.74686301e+00  2.11311759e-01
  2.92966605e+00  1.15447675e+00 -1.26397813e+00  2.54103111e+00  4.55161159e+00
 -1.00619517e+00  2.79209529e+00  2.58815925e+00  1.72007683e+00 -2.28623495e+00
 -3.95318894e+00 -5.00541258e-02 -4.16323897e+00  2.34658622e-01  9.63357572e-02
 -1.91177776e+00  4.13142165e+00 -1.37309716e-01
Integer atomic weights                     I   N=          11
          12          12          12          12          16           1
           1           1           1           1           1
Real atomic weights                        R   N=          11
  1.20000000e+01  1.20000000e+01  1.20000000e+01  1.20000000e+01  1.59949146e+01
  1.00782503e+00  1.00782503e+00  1.00782503e+00  1.00782503e+00  1.00782503e+00
  1.00782503e+00
Number of primitive shells                 I              140
Number of contracted shells                I               48
Pure/Cartesian d shells                    I                0
Pure/Cartesian f shells                    I                0
Highest angular momentum                   I                2
Largest degree of contraction              I                8
Shell types                                I   N=          48
           0           0           0           1           1          -2
           0           0           0           1           1          -2
           0           0           0           1           1          -2
           0           0           0           1           1          -2
           0           0           0           1           1          -2
           0           0           1           0           0           1
           0           0           1           0           0           1
           0           0           1           0           0           1
Number of primitives per shell             I   N=          48
           8           8           1           3           1           1
           8           8           1           3           1           1
           8           8           1           3           1           1
           8           8           1           3           1           1
           8           8           1           3           1           1
           3           1           1           3           1           1
           3           1           1           3           1           1
           3           1           1           3           1           1
Shell to atom map                          I   N=          48
           1           1           1           1           1           1
           2           2           2           2           2           2
           3           3           3           3           3           3
           4           4           4           4           4           4
           5           5           5           5           5           5
           6           6           6           7           7           7
           8           8           8           9           9           9
          10          10          10          11          11          11
Primitive exponents                        R   N=         140
  6.66500000e+03  1.00000000e+03  2.28000000e+02  6.47100000e+01  2.10600000e+01
  7.49500000e+00  2.79700000e+00  5.21500000e-01  6.66500000e+03  1.00000000e+03
  2.28000000e+02  6.47100000e+01  2.10600000e+01  7.49500000e+00  2.79700000e+00
  5.21500000e-01  1.59600000e-01  9.43900000e+00  2.00200000e+00  5.45600000e-01
  1.51700000e-01  5.50000000e-01  6.66500000e+03  1.00000000e+03  2.28000000e+02
  6.47100000e+01  2.10600000e+01  7.49500000e+00  2.79700000e+00  5.21500000e-01
  6.66500000e+03  1.00000000e+03  2.28000000e+02  6.47100000e+01  2.10600000e+01
  7.49500000e+00  2.79700000e+00  5.21500000e-01  1.59600000e-01  9.43900000e+00
  2.00200000e+00  5.45600000e-01  1.51700000e-01  5.50000000e-01  6.66500000e+03
  1.00000000e+03  2.28000000e+02  6.47100000e+01  2.10600000e+01  7.49500000e+00
  2.79700000e+00  5.21500000e-01  6.66500000e+03  1.00000000e+03  2.28000000e+02
  6.47100000e+01  2.10600000e+01  7.49500000e+00  2.79700000e+00  5.21500000e-01
  1.59600000e-01  9.43900000e+00  2.00200000e+00  5.45600000e-01  1.51700000e-01
  5.50000000e-01  6.66500000e+03  1.00000000e+03  2.28000000e+02  6.47100000e+01
  2.10600000e+01  7.49500000e+00  2.79700000e+00  5.21500000e-01  6.66500000e+03
  1.00000000e+03  2.28000000e+02  6.47100000e+01  2.10600000e+01  7.49500000e+00
  2.79700000e+00  5.21500000e-01  1.59600000e-01  9.43900000e+00  2.00200000e+00
  5.45600000e-01  1.51700000e-01  5.50000000e-01  1.17200000e+04  1.75900000e+03
  4.00800000e+02  1.13700000e+02  3.70300000e+01  1.32700000e+01  5.02500000e+00
  1.01300000e+00  1.17200000e+04  1.75900000e+03  4.00800000e+02  1.13700000e+02
  3.70300000e+01  1.32700000e+01  5.02500000e+00  1.01300000e+00  3.02300000e-01
  1.77000000e+01  3.85400000e+00  1.04600000e+00  2.75300000e-01  1.18500000e+00
  1.30100000e+01  1.96200000e+00  4.44600000e-01  1.22000000e-01  7.27000000e-01
  1.30100000e+01  1.96200000e+00  4.44600000e-01  1.22000000e-01  7.27000000e-01
  1.30100000e+01  1.96200000e+00  4.44600000e-01  1.22000000e-01  7.27000000e-01
  1.30100000e+01  1.96200000e+00  4.44600000e-01  1.22000000e-01  7.27000000e-01
  1.30100000e+01  1.96200000e+00  4.44600000e-01  1.22000000e-01  7.27000000e-01
  1.30100000e+01  1.96200000e+00  4.44600000e-01  1.22000000e-01  7.27000000e-01
Contraction coefficients                   R   N=         140
  6.91583963e-04  5.32579615e-03  2.70607210e-02  1.01656846e-01  2.74574824e-01
  4.48294319e-01  2.84902611e-01  1.51948592e-02 -2.93269653e-04 -2.31803547e-03
 -1.14997860e-02 -4.68267270e-02 -1.28466169e-01 -3.01266272e-01 -2.55630702e-01
  1.09379336e+00  1.00000000e+00  5.69792516e-02  3.13207212e-01  7.60376742e-01
  1.00000000e+00  1.00000000e+00  6.91583963e-04  5.32579615e-03  2.70607210e-02
  1.01656846e-01  2.74574824e-01  4.48294319e-01  2.84902611e-01  1.51948592e-02
 -2.93269653e-04 -2.31803547e-03 -1.14997860e-02 -4.68267270e-02 -1.28466169e-01
 -3.01266272e-01 -2.55630702e-01  1.09379336e+00  1.00000000e+00  5.69792516e-02
  3.13207212e-01  7.60376742e-01  1.00000000e+00  1.00000000e+00  6.91583963e-04
  5.32579615e-03  2.70607210e-02  1.01656846e-01  2.74574824e-01  4.48294319e-01
  2.84902611e-01  1.51948592e-02 -2.93269653e-04 -2.31803547e-03 -1.14997860e-02
 -4.68267270e-02 -1.28466169e-01 -3.01266272e-01 -2.55630702e-01  1.09379336e+00
  1.00000000e+00  5.69792516e-02  3.13207212e-01  7.60376742e-01  1.00000000e+00
  1.00000000e+00  6.91583963e-04  5.32579615e-03  2.70607210e-02  1.01656846e-01
  2.74574824e-01  4.48294319e-01  2.84902611e-01  1.51948592e-02 -2.93269653e-04
 -2.31803547e-03 -1.14997860e-02 -4.68267270e-02 -1.28466169e-01 -3.01266272e-01
 -2.55630702e-01  1.09379336e+00  1.00000000e+00  5.69792516e-02  3.13207212e-01
  7.60376742e-01  1.00000000e+00  1.00000000e+00  7.09645947e-04  5.46727229e-03
  2.78231186e-02  1.04747740e-01  2.82920846e-01  4.48495239e-01  2.70816885e-01
  1.54502916e-02 -3.14443412e-04 -2.48213768e-03 -1.23163554e-02 -5.05389173e-02
 -1.39384903e-01 -3.25077495e-01 -2.29848308e-01  1.09537935e+00  1.00000000e+00
  6.26791663e-02  3.33536566e-01  7.41239642e-01  1.00000000e+00  1.00000000e+00
  3.34987264e-02  2.34800801e-01  8.13682958e-01  1.00000000e+00  1.00000000e+00
  3.34987264e-02  2.34800801e-01  8.13682958e-01  1.00000000e+00  1.00000000e+00
  3.34987264e-02  2.34800801e-01  8.13682958e-01  1.00000000e+00  1.00000000e+00
  3.34987264e-02  2.34800801e-01  8.13682958e-01  1.00000000e+00  1.00000000e+00
  3.34987264e-02  2.34800801e-01  8.13682958e-01  1.00000000e+00  1.00000000e+00
  3.34987264e-02  2.34800801e-01  8.13682958e-01  1.00000000e+00  1.00000000e+00
Coordinates of each shell                  R   N=         144
  2.01686644e+00  2.69601411e+00 -2.14474396e-01  2.01686644e+00  2.69601411e+00
 -2.14474396e-01  2.01686644e+00  2.69601411e+00 -2.14474396e-01  2.01686644e+00
  2.69601411e+00 -2.14474396e-01  2.01686644e+00  2.69601411e+00 -2.14474396e-01
  2.01686644e+00  2.69601411e+00 -2.14474396e-01 -7.97546673e-01  2.38561958e+00
 -1.14473510e-01 -7.97546673e-01  2.38561958e+00 -1.14473510e-01 -7.97546673e-01
  2.38561958e+00 -1.14473510e-01 -7.97546673e-01  2.38561958e+00 -1.14473510e-01
 -7.97546673e-01  2.38561958e+00 -1.14473510e-01 -7.97546673e-01  2.38561958e+00
 -1.14473510e-01 -2.09298674e+00  1.87841621e-01  2.95978114e-02 -2.09298674e+00
  1.87841621e-01  2.95978114e-02 -2.09298674e+00  1.87841621e-01  2.95978114e-02
 -2.09298674e+00  1.87841621e-01  2.95978114e-02 -2.09298674e+00  1.87841621e-01
  2.95978114e-02 -2.09298674e+00  1.87841621e-01  2.95978114e-02 -9.15153628e-01
 -2.33942808e+00  7.15357475e-02 -9.15153628e-01 -2.33942808e+00  7.15357475e-02
 -9.15153628e-01 -2.33942808e+00  7.15357475e-02 -9.15153628e-01 -2.33942808e+00
  7.15357475e-02 -9.15153628e-01 -2.33942808e+00  7.15357475e-02 -9.15153628e-01
 -2.33942808e+00  7.15357475e-02  1.34824583e+00 -2.74686301e+00  2.11311759e-01
  1.34824583e+00 -2.74686301e+00  2.11311759e-01  1.34824583e+00 -2.74686301e+00
  2.11311759e-01  1.34824583e+00 -2.74686301e+00  2.11311759e-01  1.34824583e+00
 -2.74686301e+00  2.11311759e-01  1.34824583e+00 -2.74686301e+00  2.11311759e-01
  2.92966605e+00  1.15447675e+00 -1.26397813e+00  2.92966605e+00  1.15447675e+00
 -1.26397813e+00  2.92966605e+00  1.15447675e+00 -1.26397813e+00  2.54103111e+00
  4.55161159e+00 -1.00619517e+00  2.54103111e+00  4.55161159e+00 -1.00619517e+00
  2.54103111e+00  4.55161159e+00 -1.00619517e+00  2.79209529e+00  2.58815925e+00
  1.72007683e+00  2.79209529e+00  2.58815925e+00  1.72007683e+00  2.79209529e+00
  2.58815925e+00  1.72007683e+00 -2.28623495e+00 -3.95318894e+00 -5.00541258e-02
 -2.28623495e+00 -3.95318894e+00 -5.00541258e-02 -2.28623495e+00 -3.95318894e+00
 -5.00541258e-02 -4.16323897e+00  2.34658622e-01  9.63357572e-02 -4.16323897e+00
  2.34658622e-01  9.63357572e-02 -4.16323897e+00  2.34658622e-01  9.63357572e-02
 -1.91177776e+00  4.13142165e+00 -1.37309716e-01 -1.91177776e+00  4.13142165e+00
 -1.37309716e-01 -1.91177776e+00  4.13142165e+00 -1.37309716e-01
Total Energy                               R     -2.312415544789524e+02
Alpha Orbital Energies                     R   N=         100
 -1.91349137e+01 -1.02730456e+01 -1.02228089e+01 -1.01975774e+01 -1.01921572e+01
 -1.03928407e+00 -8.08799996e-01 -7.17470996e-01 -6.28688910e-01 -5.33017938e-01
 -4.95918955e-01 -4.41617548e-01 -4.31484267e-01 -4.21200436e-01 -3.86115925e-01
 -3.78952740e-01 -3.74748210e-01 -2.73536787e-01 -2.49886688e-01 -6.55048016e-02
  5.54211089e-02  6.18561555e-02  8.83430100e-02  1.04496533e-01  1.29322560e-01
  1.45796898e-01  1.55459698e-01  2.16117517e-01  2.59814267e-01  3.23429277e-01
  3.40077080e-01  4.30143142e-01  4.38230754e-01  4.52085985e-01  4.76645464e-01
  4.84070260e-01  5.07760027e-01  5.26057310e-01  5.62074127e-01  6.03545645e-01
  6.13868663e-01  6.26439300e-01  6.36141838e-01  6.48354089e-01  6.63196101e-01
  6.84619368e-01  7.01022680e-01  7.66035236e-01  8.27288018e-01  8.54101742e-01
  9.11621077e-01  9.35973829e-01  9.76342349e-01  9.92238971e-01  1.02070878e+00
  1.03653930e+00  1.07803951e+00  1.15504964e+00  1.18266441e+00  1.19682311e+00
  1.29802072e+00  1.36481690e+00  1.38907928e+00  1.44986109e+00  1.47474084e+00
  1.49359139e+00  1.54674527e+00  1.56439080e+00  1.61850796e+00  1.62197117e+00
  1.64817001e+00  1.66207815e+00  1.66954593e+00  1.68869475e+00  1.72941222e+00
  1.75182059e+00  1.78712617e+00  1.80340034e+00  1.84590347e+00  1.91855023e+00
  1.95821880e+00  1.97562192e+00  2.01291028e+00  2.06368116e+00  2.11047472e+00
  2.22732853e+00  2.31084552e+00  2.33309741e+00  2.39695584e+00  2.41256061e+00
  2.42281395e+00  2.48834900e+00  2.57467229e+00  2.64926750e+00  2.69506124e+00
  2.78676291e+00  2.96373461e+00  3.06606412e+00  3.42093300e+00  3.48062342e+00
Alpha MO coefficients                      R   N=       10000
 -4.89666045e-05 -1.08423312e-04 -3.38661070e-06  6.51376477e-05  2.78562109e-05
  1.49326172e-05 -7.15109361e-06  3.60876272e-05  1.89481346e-04  5.50116334e-05
  2.84223965e-05  5.61855129e-05  6.06619037e-05 -1.04010449e-04 -2.24837248e-04
 -3.99780334e-04  5.78747779e-03 -2.13844628e-05 -1.24112476e-05 -2.63345075e-05
 -1.09326739e-03 -2.53999912e-03  2.31371613e-04 -4.15166915e-05 -5.23527789e-06
 -2.21205175e-06 -4.50301444e-05 -3.62270098e-05  2.22340248e-04  3.40989671e-04
 -4.55291968e-03  1.71714789e-05  2.93178154e-04 -1.72629022e-05 -4.77953972e-03
 -3.57916463e-03  8.33288754e-05  1.44313160e-04  1.25745345e-06  6.11002762e-05
 -3.25975567e-04  5.08924554e-04  4.39954908e-04  5.72846581e-04  5.51906187e-03
 -1.09402743e-04 -1.70843336e-04 -1.06584432e-05  6.67665009e-03  7.05093825e-04
  3.39457564e-04 -4.13820478e-05 -4.72957495e-05  3.49507123e-05 -1.15357015e-03
  5.12529060e-04  1.00417104e+00  9.47291802e-03 -1.51618848e-02 -1.83215294e-03
  3.52737837e-04 -1.29664801e-04  3.50736085e-03 -8.50019961e-04  2.38135629e-04
 -2.06986450e-05  7.72266531e-06 -3.76273669e-07  6.60909141e-05  9.29398533e-06
 -8.92458625e-05 -4.13905844e-05  5.32956926e-05  3.61214291e-05 -2.92581628e-06
  1.09224979e-04  2.97841377e-04 -6.72094302e-05 -7.93139452e-05  2.99032787e-05
 -6.53280557e-05 -2.44012841e-04  5.89914957e-05  4.22135672e-05  4.60912567e-05
 -1.21100373e-04  9.73378527e-04 -7.62612535e-04  1.19952739e-04 -3.79305488e-05
 -2.70804219e-04 -1.35575300e-03  1.86850074e-04  2.59144287e-04  1.01908684e-05
 -1.73327306e-04  2.84641751e-04  5.69461870e-05  8.75822289e-05 -1.39595810e-05
 -3.35573959e-04 -4.33271857e-04  8.45141574e-04  2.95269427e-04  5.72330831e-05
 -8.09620872e-06 -5.81045116e-04  2.60248727e-04  9.94120199e-05  1.40575554e-05
 -1.92249187e-05  2.99815432e-05 -1.25782292e-04 -7.42992966e-05 -4.28498115e-04
 -6.32511693e-04  6.92556015e-03 -2.66870154e-04 -2.43161450e-05  1.69862660e-05
 -2.35864839e-03 -4.07776304e-03  2.82780531e-04 -4.37682251e-04 -8.93532941e-05
 -5.40352286e-05  3.31335452e-04  3.82235462e-04  1.62413538e-03 -2.30098755e-04
 -2.37637689e-03 -3.38844956e-04  7.43889330e-04 -6.23607334e-06 -2.78021764e-03
 -6.23278844e-03  2.52153670e-04  1.05312700e-03 -4.31049363e-05  5.54499815e-05
  1.15979215e-03  8.10438004e-04  1.00592207e+00  1.52418010e-02 -1.07928976e-02
  7.32511926e-04 -4.86503624e-04  3.48662807e-05  5.45499819e-03 -2.07257988e-03
  2.28423755e-04 -1.63930735e-03  2.64959402e-04  3.49082538e-05  8.25705830e-04
  4.78190938e-05  3.65227748e-04  9.11273788e-04 -5.94746185e-03  7.36758507e-04
 -2.18398225e-04  3.55412640e-05  3.38645096e-03 -2.23216855e-04  2.40500120e-04
  5.59732134e-04 -1.01091281e-04  1.16903035e-05 -7.08586666e-04  2.65402991e-04
 -8.08482620e-05  4.83408892e-05  7.44816881e-05  2.98933703e-05 -1.62720974e-05
 -4.40221980e-05  2.76991234e-04 -5.89073985e-05 -4.33429032e-05 -1.30694825e-06
 -5.13395547e-05 -5.76393467e-05  8.65817604e-05  2.53814335e-05 -2.57914847e-05
 -1.64786519e-03  2.49559562e-03 -1.45480414e-03 -1.45170781e-03 -1.15314712e-04
 -4.83938309e-04 -4.68592870e-04  6.57314524e-05  3.26923874e-04 -1.87295384e-05
 -3.35839560e-05  6.52081533e-04  2.38174604e-04  1.07908926e-04 -1.44363986e-05
  3.28476135e-03 -4.47180855e-04  4.36426560e-03  7.36897769e-04  8.76661325e-05
  5.88275153e-05 -2.32334673e-03 -1.06533880e-03 -4.83392219e-04  7.89643362e-04
  1.17481515e-04 -1.40597895e-06 -1.03105883e-03 -3.84943165e-06  1.00628808e+00
  1.60688504e-02 -1.97965045e-02 -5.48773289e-04  2.47474419e-04  3.34662622e-05
 -2.17531904e-03  3.59941279e-03 -8.95815669e-06 -1.08602513e-03  9.13768755e-06
 -7.07215589e-05 -5.29775773e-04 -2.54484688e-04  1.29146023e-02 -1.28647057e-03
  4.68743717e-03 -7.72833268e-04 -1.09505179e-03  8.92362443e-05  2.67312250e-03
  2.32069144e-03 -2.29657135e-04  8.85962625e-04  8.20895380e-05  1.39480850e-04
  5.63537772e-04 -9.77786450e-04 -2.60840424e-04 -5.13839035e-04  1.00469919e-03
 -3.92327583e-05 -2.08955629e-04  1.52416884e-05 -1.94411973e-04  1.02160517e-03
  9.25727565e-06 -3.39019082e-04 -1.95041048e-05 -9.05108262e-06  1.91037303e-04
 -8.71443901e-05 -3.39996868e-05 -7.42743046e-05 -2.29896878e-04  1.24529494e-04
 -1.09109225e-06  1.79512042e-05 -5.68626984e-05 -2.61610517e-04  1.61264396e-06
  1.04231574e-05 -1.58507254e-05  4.02152517e-06 -9.88205711e-06  1.42153244e-05
 -4.33851657e-04  1.56073875e-04 -3.41877241e-05  3.12014081e-05  7.47099536e-05
 -3.46745378e-04  2.76026546e-04  7.99103907e-05  7.90768464e-05  6.34401722e-05
 -4.74857293e-04  1.20434105e-03 -1.42340648e-04  1.45900102e-05  1.95465984e-05
 -2.70129315e-05  4.08098015e-04  5.29916722e-05 -5.46185354e-05 -8.25425007e-06
  9.98572120e-05  9.22023457e-04  1.23389453e-04 -2.33556378e-04  1.18897274e-05
 -2.36205111e-03  1.20460249e-03 -1.21185694e-03  1.78428196e-03 -1.51080426e-05
  1.57141042e-03  4.03058843e-04  4.04860385e-06 -8.94288998e-05 -1.15266068e-04
  8.28833524e-05  7.08588097e-04 -1.64342688e-04 -1.40772335e-04  3.10916971e-04
  6.72666512e-05 -1.36984385e-05 -7.77976332e-05  2.11542040e-04  1.44256889e-02
  1.78461795e-03 -6.77354683e-03 -6.01656817e-04 -1.20241763e-03  7.94662093e-05
  5.73769650e-04  4.15229736e-03 -1.50051930e-04 -9.27238740e-04 -6.50358140e-05
 -1.21436962e-04 -5.20099682e-04  1.01946570e-03 -1.00647460e+00 -1.65243250e-02
  2.15218332e-02  3.20528036e-04 -2.96982374e-04  4.24105895e-05  5.57120081e-03
  3.43739153e-04 -2.67177455e-04  1.07813731e-03  9.93431898e-05  7.35016339e-05
 -3.87977587e-04 -3.85937469e-04  1.94055980e-03  8.05555361e-04 -5.80177911e-03
 -2.55583221e-04  7.40601511e-04  6.42434516e-06 -6.47680443e-04 -3.50767166e-03
  4.73709382e-05 -6.88825345e-04 -4.83944298e-05 -4.99562738e-05 -6.31340173e-04
 -1.18787195e-03 -4.35171194e-05 -7.50746062e-05  9.26545786e-04 -3.00754493e-05
  7.41647831e-05  2.44897157e-05  9.15078291e-05  5.97142536e-04 -4.86442807e-05
  1.31239273e-04 -3.43104916e-05 -1.62581776e-05 -6.90361498e-05 -2.17467721e-04
  1.59667019e-04 -3.77749363e-04 -2.58900459e-05 -4.56796418e-05  5.70484538e-05
 -4.80342917e-05 -2.22182466e-04 -3.52295246e-05  6.68206033e-05  1.56752010e-05
 -3.48098264e-05 -1.31322211e-04 -5.13104735e-05 -6.39144657e-05  1.38132765e-04
  2.50257287e-04 -1.00033536e-03 -7.51597593e-05  2.04678288e-04 -2.49872214e-05
  2.44219430e-03 -7.72351406e-04  2.13795382e-03 -1.63134270e-04 -5.66197040e-05
 -9.89464180e-05 -1.00391613e-03 -2.63775831e-04  2.82741778e-05  6.73671879e-06
  1.00698015e+00  1.74121343e-02 -1.94482215e-02  4.44320376e-04  1.04254738e-04
  1.61443824e-04  2.95894964e-03  2.30792155e-04 -5.56893477e-04  2.29501106e-04
  2.88219888e-05 -6.35403749e-05 -6.04365810e-04 -1.34459247e-04 -3.52500420e-03
 -2.99296226e-04  1.89503696e-03 -4.88956645e-04  5.95894935e-05  2.08718217e-05
  4.48874456e-03  2.30678123e-03 -1.79389871e-04  6.08427241e-04  1.22673099e-04
  1.64020175e-05 -1.33484561e-03 -5.53368277e-04  9.95860533e-04 -5.47563652e-04
  3.44489796e-03 -1.97635994e-04  8.25880898e-05  8.36705562e-06  9.19425111e-04
  2.62837223e-03 -1.91175073e-04 -3.45753034e-04  1.11200632e-05 -3.66350745e-05
 -5.45598187e-04 -2.06892221e-04 -1.05550092e-04 -4.65891697e-04  6.27198672e-04
 -3.85621489e-05 -2.72597757e-04 -1.24507881e-05 -1.17285816e-04  5.17734218e-04
  5.16809814e-05 -1.77151808e-05 -2.26578214e-05 -1.05992724e-06  3.89400378e-05
  3.54469100e-05 -7.83204855e-05 -1.55659673e-04  1.87741854e-04  1.05506764e-05
 -1.18672986e-04 -1.10450155e-05 -1.22152683e-04  2.40774385e-04  4.11137789e-05
 -4.60025311e-05  1.73764873e-06  1.71050815e-06  2.85964440e-07 -1.39672487e-06
 -1.21661406e-03  1.92511801e-03  6.88551447e-04 -1.45191993e-03 -9.94670765e-04
 -1.33928577e-03  1.88916104e-03  4.52842619e-04  1.79835293e-03 -7.52094165e-04
 -1.09979189e-03  2.35695932e-03  5.44438087e-04 -1.12555244e-04  1.82301087e-03
  1.68130331e-05  3.84730520e-04  6.36930850e-06  6.91042804e-05 -8.35240496e-06
  5.07992456e-05  3.72224651e-04  9.31771284e-05 -2.02582584e-04  1.20835836e-05
 -4.33520180e-04  2.39474286e-04 -3.72330247e-04 -1.18223991e-04  2.03346220e-05
 -4.88603151e-04  6.58022609e-03  5.62127030e-03 -3.08999285e-03 -3.17240328e-03
 -3.05397558e-05 -3.03388187e-03 -2.44278413e-03  9.60868802e-04 -6.35233368e-04
 -1.93461208e-04 -2.13623800e-04  1.65640725e-04  9.11876750e-04  5.72493276e-04
  1.66002139e-02 -1.30181212e-02 -9.15325905e-05 -1.05821749e-02  6.37322175e-04
 -2.11118703e-03  9.93580675e-03 -6.63904829e-04 -4.63271892e-04 -1.26182585e-04
 -2.86047078e-04 -1.65600790e-03  7.22774821e-04 -3.61883400e-03  3.67957150e-02
  3.27238643e-02  2.09767497e-02 -2.04917261e-02  7.04727047e-04  2.01375940e-02
  1.44924260e-03 -3.83081805e-04 -3.80097055e-03  1.64843635e-04 -5.24677044e-04
 -9.88640866e-04 -9.03474041e-03 -1.45892940e-02  2.24862252e-01  9.44001107e-02
  1.84578514e-01 -2.46886654e-02  1.13469158e-02  1.20467470e-02 -3.05748546e-03
  1.08715071e-03 -1.35045962e-02  3.16810620e-03 -1.09298738e-03  3.11681940e-02
 -1.37318343e-02 -9.14488834e-03  4.02193328e-01  3.60233567e-01 -1.55237843e-01
  3.10982376e-02 -1.00253137e-02 -3.16635188e-02  7.14861360e-03 -2.49481703e-03
 -5.24794044e-03  1.28376497e-03 -5.31318337e-04  1.21456453e-02 -5.02459542e-03
  5.23233429e-03  3.03361796e-03 -6.45995328e-04 -4.86976954e-04  6.01901751e-04
  9.89437676e-04 -1.25147433e-05  2.98620601e-05  5.89566100e-06 -4.52353100e-05
  1.95637256e-03  8.61613187e-04 -2.77722006e-04 -2.17575423e-04 -4.60178438e-04
  3.92646792e-02 -3.64947574e-03  1.01480943e-02  5.89832920e-03  7.31503707e-04
  7.15982061e-03  6.02986372e-03  9.60232561e-04 -1.94107290e-03 -2.57478023e-05
  1.80493359e-03 -3.24601052e-03 -2.24569965e-04 -8.31994346e-04  7.64528828e-05
  1.09770512e-02 -1.81249631e-01 -7.51361454e-02  6.57208889e-02  1.30220616e-02
 -4.97098680e-03  2.94880025e-03 -8.67448727e-03  1.24302245e-03  5.62641583e-03
  7.95947417e-04  7.95856236e-06 -9.85109528e-03 -3.51196072e-03  1.97831374e-02
 -2.91308269e-01 -2.01768469e-01 -9.46564062e-04  6.61459903e-02 -3.50776012e-03
 -3.25160450e-02  2.16817981e-02 -4.06833193e-04  9.97157344e-03  8.87347454e-04
  9.81524475e-04 -2.67838755e-03 -1.11660140e-02  1.69978088e-02 -2.54049072e-01
 -1.41655185e-01 -5.83168101e-02 -5.74172736e-02  5.73305706e-03 -2.84936697e-03
 -2.37379642e-02  1.52670167e-03  6.94164662e-03  7.51204119e-04  1.03079025e-03
  8.74174284e-03 -9.10024280e-03  2.45349981e-03 -6.38469221e-02 -5.15488553e-02
  6.96715981e-02 -8.01973583e-02  4.87032761e-03  2.50061115e-02 -2.23874328e-02
  1.10021900e-03  2.64297518e-03  6.39233263e-04  2.45179454e-04  1.35694283e-02
  2.77211839e-03 -3.35167202e-04  7.55400456e-02  7.20811379e-02 -1.14386581e-02
 -1.65174926e-02 -1.83664170e-04  1.61792127e-03 -6.87954822e-03  5.81333179e-04
  1.86698656e-04  5.81971869e-05  1.64714614e-04  1.60978052e-03  1.61030663e-03
 -6.69986168e-02 -3.25378858e-03  5.05542530e-03 -7.29527466e-03 -5.27652069e-03
 -6.23321432e-02 -1.36065883e-03  4.14721866e-03  8.69207594e-03 -3.67144006e-03
 -6.81571057e-02 -3.59641017e-03  4.64580100e-03  2.18861731e-04  9.08865658e-03
 -1.80751894e-02  8.88782566e-04  4.53318806e-05 -3.38389140e-03  1.73327297e-05
 -8.40153257e-02 -2.45218754e-03 -1.43220950e-02 -1.47151623e-03  5.87136630e-04
 -1.02166344e-01 -1.31025760e-02 -7.10559429e-03  1.42486164e-02 -2.27346835e-04
  1.39818285e-02 -2.86625660e-01 -1.20125436e-01  1.92441114e-02 -1.01212991e-02
 -5.22592527e-03 -1.73370741e-02 -8.54816159e-03  5.03221601e-04  1.44999526e-03
  1.47673150e-04 -1.84778939e-04 -3.08547454e-03  2.23088437e-03  5.30125562e-03
 -4.85850121e-02 -8.48514905e-02 -1.38579153e-01 -9.41809740e-02  7.26874883e-03
 -9.32293983e-02 -8.36743141e-03  2.70637303e-03  3.84909314e-03  3.79664457e-04
 -4.86230165e-04 -1.71467609e-02  3.27152274e-03 -1.38995001e-02  2.28421698e-01
  1.67442990e-01 -5.62964553e-03 -5.53454101e-02  4.36058430e-04  3.62894547e-02
 -4.02571217e-02 -7.89450895e-05 -4.80950238e-03  1.20902302e-04 -2.68023544e-04
 -9.97710316e-03 -5.05199681e-03 -3.04814274e-03  1.52784935e-01  6.25653289e-02
 -1.07483558e-01  7.83515566e-02 -4.86622072e-03 -3.76751051e-02  7.78451390e-03
 -1.76173071e-03 -1.65584229e-03 -5.42459078e-04 -8.23076310e-05 -1.01443672e-02
 -5.23968731e-03 -2.66020628e-04 -8.45783302e-02 -8.39654903e-02 -1.88960634e-02
  9.74699461e-03  4.53890377e-04 -2.08124889e-02  3.19422536e-03 -6.40005949e-04
 -9.72601391e-04  1.46498950e-04  8.90767114e-05  9.52694922e-04 -2.04308061e-03
 -1.21546885e-01 -1.67734269e-02  7.24874054e-03 -1.24895389e-02 -8.45752106e-03
 -1.33527999e-01 -1.58167542e-02  4.75624814e-03  1.58635649e-02 -7.15848373e-03
 -1.30703191e-01 -1.61451430e-02  6.38050142e-03 -1.46213473e-03  1.61610825e-02
  7.08416837e-02  2.55911528e-03  3.52245580e-03  8.64766278e-03  4.10050993e-04
  1.15012672e-01  2.32344496e-02  1.45842425e-02 -1.42390636e-03 -4.53318664e-04
 -2.97109168e-02 -1.65211332e-02 -4.17363281e-03  8.61694554e-04  1.93272908e-04
  5.34012171e-03 -1.76283668e-01 -9.72206882e-02 -7.40228792e-02 -5.93826149e-03
 -2.65353533e-03 -3.82636798e-02 -6.63588517e-03  6.63113443e-03 -4.91882110e-03
 -8.63433897e-04 -2.01405601e-04  7.27034751e-03  9.59950696e-04 -5.23110433e-03
  2.09193461e-01  9.82431688e-02 -1.39543347e-01 -1.46373314e-02  5.67193336e-03
 -4.16259526e-02 -6.44343232e-04 -3.17636520e-04  2.56409593e-03 -4.09995330e-04
 -3.47934127e-04 -5.05510004e-03  3.03618748e-03 -1.33466622e-03 -6.76585478e-04
  1.05878826e-02  1.34939255e-02  2.48205605e-01 -8.21862458e-03  7.66567422e-03
  7.65854811e-02 -1.64594050e-03  4.93632034e-04 -2.25465666e-04 -1.07487661e-03
  1.90590202e-03  1.12464895e-02  2.31857307e-03 -2.36804669e-01 -1.54410114e-01
  1.55756035e-01 -2.80466803e-02  8.65594731e-03  4.82352566e-02 -1.83713809e-02
  2.87017859e-03 -1.09323908e-03  9.07491914e-04 -9.92565700e-05  6.05186096e-03
  2.01941197e-03  9.49413951e-04  1.23217859e-01  1.44095356e-01  5.36275481e-02
 -9.53517377e-03  3.75170673e-03  4.03994269e-02 -6.04417653e-03  3.03984988e-03
  2.56017933e-03 -3.81310018e-04  1.09688778e-04 -2.39061075e-03  7.51681151e-04
 -1.01439552e-01 -8.29546965e-03  3.73258541e-03 -9.77081414e-03 -6.00365922e-03
 -1.01255028e-01 -1.57170638e-02  1.14448330e-03  1.03767623e-02 -4.95292995e-03
 -1.06450686e-01 -2.04095876e-02  3.29167133e-03 -7.42541652e-04  1.11744009e-02
 -1.59698757e-01 -2.83517905e-02 -8.28873318e-03 -1.42662618e-02 -8.37455524e-04
 -5.20245016e-03 -2.33335386e-04 -1.95320101e-04  5.00626504e-03 -1.72869460e-04
  1.46206518e-01  2.53042323e-02  6.59913084e-03 -1.48292413e-02  4.33909651e-04
  1.64566111e-03 -4.98444666e-02 -3.78601045e-02 -1.22859483e-01  8.49188582e-02
 -1.62506025e-03 -3.67380905e-02  3.54577680e-02 -2.48552780e-03 -5.47581700e-03
 -3.26104882e-04 -1.57936395e-03  9.86154007e-03 -5.78602545e-03 -2.13162270e-03
  1.42842921e-01  9.49508659e-02  7.81760931e-04  2.23854672e-01 -1.09540568e-02
  2.48741205e-02  7.13172335e-02 -4.22155195e-03  4.21949856e-03  6.38419155e-04
  6.31176962e-04  3.27948067e-05 -6.96260256e-03  2.68522346e-03 -1.53457322e-01
 -1.03264655e-01 -1.77879238e-02  1.84402665e-03 -3.10729126e-03 -1.82610559e-02
  3.18216890e-02 -2.39653159e-03 -4.23360894e-03  9.46673193e-05 -3.71322029e-04
 -1.33982982e-02  1.61608038e-03  5.68583752e-04  1.58111614e-01  1.21237833e-01
 -6.39495787e-02 -2.37334270e-01 -6.11391615e-03 -4.88704387e-02 -5.41652627e-02
 -2.94936487e-03  5.28589853e-03 -2.92815655e-06  3.48319558e-05  5.13681285e-05
  1.33097721e-03  2.37190188e-04 -8.63621513e-02 -1.19536159e-01 -1.39121814e-01
 -1.09449076e-01 -6.60220662e-03 -8.26366980e-02 -6.01542683e-02 -3.67029343e-03
 -3.52550700e-03  1.06437417e-03  7.04426066e-04  8.78227524e-03  6.81430239e-03
 -1.12099805e-01 -3.51759553e-02  1.94906511e-03 -5.10041702e-03 -6.26375809e-03
  8.36207092e-04 -4.79321955e-03 -3.56200278e-03  2.33389150e-03 -8.78336022e-06
 -6.44507289e-02 -2.02153463e-02 -7.48199633e-04  2.34734433e-03  6.04695240e-03
  2.29102886e-01  5.99887670e-02  1.19383302e-02  1.27451743e-02  1.17154544e-03
 -8.25931015e-02 -2.94278969e-02 -8.59726102e-03 -5.52118946e-04  2.36017467e-04
  2.17047256e-01  6.37705566e-02  1.07632784e-02 -1.22189406e-02 -8.38995599e-06
  3.01940011e-03 -4.60997915e-02 -5.28277813e-02 -1.44696567e-01 -9.76380537e-02
  4.47714887e-03 -3.14834572e-02 -3.97571242e-02 -4.23831150e-03 -5.18802492e-03
 -1.21658247e-03  1.94283399e-03  7.55563974e-03  4.71924915e-03  8.75062837e-04
  8.91577946e-02  5.41080140e-02  1.39949964e-01 -1.10544375e-01 -1.53609812e-03
  9.05678450e-02 -2.58020734e-02 -1.59520256e-03  1.90161582e-03  9.76298919e-04
  3.51743268e-04 -9.72020737e-03 -1.04056030e-02  5.41857215e-03 -7.15927144e-02