Generated by Psi4
        SP                           RHF                       CC-PVDZ
Number of atoms                            I               11
Charge                                     I                0
Multiplicity                               I                1
Number of electrons                        I               38
Number of alpha electrons                  I               19
Number of beta electrons                   I               19
Number of basis functions                  I              100
Number of independent functions            I              100
Atomic numbers                             I   N=          11
           6           6           6           6           8           1
           1           1           1           1           1
Nuclear charges                            R   N=          11
  6.00000000e+00  6.00000000e+00  6.00000000e+00  6.00000000e+00  8.00000000e+00
  1.00000000e+00  1.00000000e+00  1.00000000e+00  1.00000000e+00  1.00000000e+00
  1.00000000e+00
Current cartesian coordinates              R   N=          33
  1.67159378e+00  2.77534927e+00  1.68501707e-01 -8.34301609e-01  2.30479968e+00
 -9.97312916e-02 -2.14391388e+00 -5.89577797e-02  4.06578721e-01 -8.53463754e-01
 -2.24138591e+00  4.42807113e-02  1.63977438e+00 -2.39420564e+00 -3.44356924e-01
  2.17110264e+00 -6.16136725e-01 -6.32133905e-01  2.64333010e+00  4.26408572e+00
 -8.92485858e-01  2.83243919e+00  1.66422516e+00  1.49094061e+00 -1.76224767e+00
 -4.07018571e+00 -1.88166978e-01 -4.20557247e+00 -1.22540620e-01  4.68888509e-01
 -1.98369349e+00  3.77966809e+00 -9.68991665e-01
Integer atomic weights                     I   N=          11
          12          12          12          12          16           1
           1           1           1           1           1
Real atomic weights                        R   N=          11
  1.20000000e+01  1.20000000e+01  1.20000000e+01  1.20000000e+01  1.59949146e+01
  1.00782503e+00  1.00782503e+00  1.00782503e+00  1.00782503e+00  1.00782503e+00
  1.00782503e+00
Number of primitive shells                 I              140
Number of contracted shells                I               48
Pure/Cartesian d shells                    I                0
Pure/Cartesian f shells                    I                0
Highest angular momentum                   I                2
Largest degree of contraction              I                8
Shell types                                I   N=          48
           0           0           0           1           1          -2
           0           0           0           1           1          -2
           0           0           0           1           1          -2
           0           0           0           1           1          -2
           0           0           0           1           1          -2
           0           0           1           0           0           1
           0           0           1           0           0           1
           0           0           1           0           0           1
Number of primitives per shell             I   N=          48
           8           8           1           3           1           1
           8           8           1           3           1           1
           8           8           1           3           1           1
           8           8           1           3           1           1
           8           8           1           3           1           1
           3           1           1           3           1           1
           3           1           1           3           1           1
           3           1           1           3           1           1
Shell to atom map                          I   N=          48
           1           1           1           1           1           1
           2           2           2           2           2           2
           3           3           3           3           3           3
           4           4           4           4           4           4
           5           5           5           5           5           5
           6           6           6           7           7           7
           8           8           8           9           9           9
          10          10          10          11          11          11
Primitive exponents                        R   N=         140
  6.66500000e+03  1.00000000e+03  2.28000000e+02  6.47100000e+01  2.10600000e+01
  7.49500000e+00  2.79700000e+00  5.21500000e-01  6.66500000e+03  1.00000000e+03
  2.28000000e+02  6.47100000e+01  2.10600000e+01  7.49500000e+00  2.79700000e+00
  5.21500000e-01  1.59600000e-01  9.43900000e+00  2.00200000e+00  5.45600000e-01
  1.51700000e-01  5.50000000e-01  6.66500000e+03  1.00000000e+03  2.28000000e+02
  6.47100000e+01  2.10600000e+01  7.49500000e+00  2.79700000e+00  5.21500000e-01
  6.66500000e+03  1.00000000e+03  2.28000000e+02  6.47100000e+01  2.10600000e+01
  7.49500000e+00  2.79700000e+00  5.21500000e-01  1.59600000e-01  9.43900000e+00
  2.00200000e+00  5.45600000e-01  1.51700000e-01  5.50000000e-01  6.66500000e+03
  1.00000000e+03  2.28000000e+02  6.47100000e+01  2.10600000e+01  7.49500000e+00
  2.79700000e+00  5.21500000e-01  6.66500000e+03  1.00000000e+03  2.28000000e+02
  6.47100000e+01  2.10600000e+01  7.49500000e+00  2.79700000e+00  5.21500000e-01
  1.59600000e-01  9.43900000e+00  2.00200000e+00  5.45600000e-01  1.51700000e-01
  5.50000000e-01  6.66500000e+03  1.00000000e+03  2.28000000e+02  6.47100000e+01
  2.10600000e+01  7.49500000e+00  2.79700000e+00  5.21500000e-01  6.66500000e+03
  1.00000000e+03  2.28000000e+02  6.47100000e+01  2.10600000e+01  7.49500000e+00
  2.79700000e+00  5.21500000e-01  1.59600000e-01  9.43900000e+00  2.00200000e+00
  5.45600000e-01  1.51700000e-01  5.50000000e-01  1.17200000e+04  1.75900000e+03
  4.00800000e+02  1.13700000e+02  3.70300000e+01  1.32700000e+01  5.02500000e+00
  1.01300000e+00  1.17200000e+04  1.75900000e+03  4.00800000e+02  1.13700000e+02
  3.70300000e+01  1.32700000e+01  5.02500000e+00  1.01300000e+00  3.02300000e-01
  1.77000000e+01  3.85400000e+00  1.04600000e+00  2.75300000e-01  1.18500000e+00
  1.30100000e+01  1.96200000e+00  4.44600000e-01  1.22000000e-01  7.27000000e-01
  1.30100000e+01  1.96200000e+00  4.44600000e-01  1.22000000e-01  7.27000000e-01
  1.30100000e+01  1.96200000e+00  4.44600000e-01  1.22000000e-01  7.27000000e-01
  1.30100000e+01  1.96200000e+00  4.44600000e-01  1.22000000e-01  7.27000000e-01
  1.30100000e+01  1.96200000e+00  4.44600000e-01  1.22000000e-01  7.27000000e-01
  1.30100000e+01  1.96200000e+00  4.44600000e-01  1.22000000e-01  7.27000000e-01
Contraction coefficients                   R   N=         140
  6.91583963e-04  5.32579615e-03  2.70607210e-02  1.01656846e-01  2.74574824e-01
  4.48294319e-01  2.84902611e-01  1.51948592e-02 -2.93269653e-04 -2.31803547e-03
 -1.14997860e-02 -4.68267270e-02 -1.28466169e-01 -3.01266272e-01 -2.55630702e-01
  1.09379336e+00  1.00000000e+00  5.69792516e-02  3.13207212e-01  7.60376742e-01
  1.00000000e+00  1.00000000e+00  6.91583963e-04  5.32579615e-03  2.70607210e-02
  1.01656846e-01  2.74574824e-01  4.48294319e-01  2.84902611e-01  1.51948592e-02
 -2.93269653e-04 -2.31803547e-03 -1.14997860e-02 -4.68267270e-02 -1.28466169e-01
 -3.01266272e-01 -2.55630702e-01  1.09379336e+00  1.00000000e+00  5.69792516e-02
  3.13207212e-01  7.60376742e-01  1.00000000e+00  1.00000000e+00  6.91583963e-04
  5.32579615e-03  2.70607210e-02  1.01656846e-01  2.74574824e-01  4.48294319e-01
  2.84902611e-01  1.51948592e-02 -2.93269653e-04 -2.31803547e-03 -1.14997860e-02
 -4.68267270e-02 -1.28466169e-01 -3.01266272e-01 -2.55630702e-01  1.09379336e+00
  1.00000000e+00  5.69792516e-02  3.13207212e-01  7.60376742e-01  1.00000000e+00
  1.00000000e+00  6.91583963e-04  5.32579615e-03  2.70607210e-02  1.01656846e-01
  2.74574824e-01  4.48294319e-01  2.84902611e-01  1.51948592e-02 -2.93269653e-04
 -2.31803547e-03 -1.14997860e-02 -4.68267270e-02 -1.28466169e-01 -3.01266272e-01
 -2.55630702e-01  1.09379336e+00  1.00000000e+00  5.69792516e-02  3.13207212e-01
  7.60376742e-01  1.00000000e+00  1.00000000e+00  7.09645947e-04  5.46727229e-03
  2.78231186e-02  1.04747740e-01  2.82920846e-01  4.48495239e-01  2.70816885e-01
  1.54502916e-02 -3.14443412e-04 -2.48213768e-03 -1.23163554e-02 -5.05389173e-02
 -1.39384903e-01 -3.25077495e-01 -2.29848308e-01  1.09537935e+00  1.00000000e+00
  6.26791663e-02  3.33536566e-01  7.41239642e-01  1.00000000e+00  1.00000000e+00
  3.34987264e-02  2.34800801e-01  8.13682958e-01  1.00000000e+00  1.00000000e+00
  3.34987264e-02  2.34800801e-01  8.13682958e-01  1.00000000e+00  1.00000000e+00
  3.34987264e-02  2.34800801e-01  8.13682958e-01  1.00000000e+00  1.00000000e+00
  3.34987264e-02  2.34800801e-01  8.13682958e-01  1.00000000e+00  1.00000000e+00
  3.34987264e-02  2.34800801e-01  8.13682958e-01  1.00000000e+00  1.00000000e+00
  3.34987264e-02  2.34800801e-01  8.13682958e-01  1.00000000e+00  1.00000000e+00
Coordinates of each shell                  R   N=         144
  1.67159378e+00  2.77534927e+00  1.68501707e-01  1.67159378e+00  2.77534927e+00
  1.68501707e-01  1.67159378e+00  2.77534927e+00  1.68501707e-01  1.67159378e+00
  2.77534927e+00  1.68501707e-01  1.67159378e+00  2.77534927e+00  1.68501707e-01
  1.67159378e+00  2.77534927e+00  1.68501707e-01 -8.34301609e-01  2.30479968e+00
 -9.97312916e-02 -8.34301609e-01  2.30479968e+00 -9.97312916e-02 -8.34301609e-01
  2.30479968e+00 -9.97312916e-02 -8.34301609e-01  2.30479968e+00 -9.97312916e-02
 -8.34301609e-01  2.30479968e+00 -9.97312916e-02 -8.34301609e-01  2.30479968e+00
 -9.97312916e-02 -2.14391388e+00 -5.89577797e-02  4.06578721e-01 -2.14391388e+00
 -5.89577797e-02  4.06578721e-01 -2.14391388e+00 -5.89577797e-02  4.06578721e-01
 -2.14391388e+00 -5.89577797e-02  4.06578721e-01 -2.14391388e+00 -5.89577797e-02
  4.06578721e-01 -2.14391388e+00 -5.89577797e-02  4.06578721e-01 -8.53463754e-01
 -2.24138591e+00  4.42807113e-02 -8.53463754e-01 -2.24138591e+00  4.42807113e-02
 -8.53463754e-01 -2.24138591e+00  4.42807113e-02 -8.53463754e-01 -2.24138591e+00
  4.42807113e-02 -8.53463754e-01 -2.24138591e+00  4.42807113e-02 -8.53463754e-01
 -2.24138591e+00  4.42807113e-02  1.63977438e+00 -2.39420564e+00 -3.44356924e-01
  1.63977438e+00 -2.39420564e+00 -3.44356924e-01  1.63977438e+00 -2.39420564e+00
 -3.44356924e-01  1.63977438e+00 -2.39420564e+00 -3.44356924e-01  1.63977438e+00
 -2.39420564e+00 -3.44356924e-01  1.63977438e+00 -2.39420564e+00 -3.44356924e-01
  2.17110264e+00 -6.16136725e-01 -6.32133905e-01  2.17110264e+00 -6.16136725e-01
 -6.32133905e-01  2.17110264e+00 -6.16136725e-01 -6.32133905e-01  2.64333010e+00
  4.26408572e+00 -8.92485858e-01  2.64333010e+00  4.26408572e+00 -8.92485858e-01
  2.64333010e+00  4.26408572e+00 -8.92485858e-01  2.83243919e+00  1.66422516e+00
  1.49094061e+00  2.83243919e+00  1.66422516e+00  1.49094061e+00  2.83243919e+00
  1.66422516e+00  1.49094061e+00 -1.76224767e+00 -4.07018571e+00 -1.88166978e-01
 -1.76224767e+00 -4.07018571e+00 -1.88166978e-01 -1.76224767e+00 -4.07018571e+00
 -1.88166978e-01 -4.20557247e+00 -1.22540620e-01  4.68888509e-01 -4.20557247e+00
 -1.22540620e-01  4.68888509e-01 -4.20557247e+00 -1.22540620e-01  4.68888509e-01
 -1.98369349e+00  3.77966809e+00 -9.68991665e-01 -1.98369349e+00  3.77966809e+00
 -9.68991665e-01 -1.98369349e+00  3.77966809e+00 -9.68991665e-01
Total Energy                               R     -2.312154888014264e+02
Alpha Orbital Energies                     R   N=         100
 -1.91688816e+01 -1.02527898e+01 -1.02102115e+01 -1.01891937e+01 -1.01848925e+01
 -1.06671214e+00 -8.06615705e-01 -7.33849361e-01 -6.22765507e-01 -5.83944556e-01
 -5.04171100e-01 -4.74636358e-01 -4.47009704e-01 -4.15657999e-01 -3.96154117e-01
 -3.83031939e-01 -3.44423295e-01 -2.98380831e-01 -2.17987788e-01 -3.12968942e-02
  4.85194495e-02  6.90237852e-02  9.20090356e-02  1.08623295e-01  1.30458359e-01
  1.41133510e-01  1.69049935e-01  2.30974546e-01  2.94161063e-01  3.20748412e-01
  3.32626555e-01  4.30239823e-01  4.45412723e-01  4.71230777e-01  4.73407218e-01
  4.97575476e-01  5.12868647e-01  5.32746127e-01  5.47165841e-01  5.68670827e-01
  5.79916987e-01  6.15344627e-01  6.34045409e-01  6.51659330e-01  6.76662772e-01
  7.39539491e-01  7.43957631e-01  7.80766238e-01  8.43150303e-01  8.71123718e-01
  9.18083051e-01  9.45949805e-01  9.81825493e-01  1.00682560e+00  1.05812900e+00
  1.07549306e+00  1.09539202e+00  1.11844646e+00  1.16410994e+00  1.20114245e+00
  1.25891758e+00  1.32905534e+00  1.37966320e+00  1.41352492e+00  1.47743150e+00
  1.49792150e+00  1.51884654e+00  1.52398058e+00  1.57152658e+00  1.59292058e+00
  1.61757240e+00  1.65442400e+00  1.69906071e+00  1.71040406e+00  1.72834512e+00
  1.74360324e+00  1.77250958e+00  1.82921745e+00  1.89168635e+00  1.93325985e+00
  1.98455144e+00  2.01101192e+00  2.03116775e+00  2.07118089e+00  2.10821736e+00
  2.17999391e+00  2.21180311e+00  2.31777766e+00  2.39028635e+00  2.40944346e+00
  2.44147487e+00  2.54910464e+00  2.71702637e+00  2.76851403e+00  2.90262671e+00
  2.96907465e+00  3.02843002e+00  3.19551382e+00  3.44210217e+00  3.69048878e+00
Alpha MO coefficients                      R   N=       10000
 -1.62947905e-04 -2.79018513e-04  1.63508467e-03 -8.11360115e-05  7.94211248e-06
  1.89225526e-05 -1.21011466e-04 -1.12808862e-03  6.39800225e-05 -8.22695381e-05
 -5.93455649e-05  7.59914926e-05 -1.61626082e-04  5.22827922e-05  1.58673167e-04
  2.80736630e-04 -4.53099264e-03  4.03535599e-05  9.19280145e-06  8.46044079e-05
  1.59754479e-04  2.32175427e-03 -9.17351611e-04  4.19105894e-05 -1.06806102e-04
  1.05712740e-04  3.63727314e-06  3.37332811e-05 -1.49202879e-04 -2.04174938e-04
  4.44345811e-03  9.35928713e-05 -2.53563910e-04 -4.35540276e-05  4.25026966e-03
  2.43663583e-03 -6.20936328e-04 -1.33634251e-04 -1.43864711e-04 -4.15383202e-05
  4.51829968e-04 -3.60178001e-04 -2.23445690e-04 -3.87679258e-04 -6.00308805e-03
 -3.32276424e-04  1.62901732e-04  1.24982120e-04 -5.14760915e-03 -1.91636234e-03
  5.76395753e-04  3.49289429e-04 -4.15609986e-05 -1.78869100e-04  8.12419387e-04
 -3.25684112e-04 -1.00408935e+00 -9.37427161e-03  1.41139852e-02  1.12917535e-03
 -1.24502356e-03 -4.08867220e-06 -3.17842431e-03  1.21331304e-03  3.98714763e-04
 -1.55223486e-06 -1.35141880e-06  7.32024083e-05  1.63481843e-04 -1.84504517e-04
 -4.82137282e-04 -8.71496936e-04 -7.27428820e-05 -9.12177780e-04 -4.91266317e-06
 -6.74081822e-05  8.26568386e-05  3.08710876e-05  7.87927837e-05  4.06330917e-06
 -1.47915000e-04 -1.62896394e-04 -1.11391545e-05 -7.38508824e-06 -9.44822365e-06
  5.09899278e-04 -7.89482995e-04  6.12933410e-04  2.10160173e-04 -5.47750229e-05
  1.28734034e-04  1.14264900e-03 -2.21216493e-04 -1.90283549e-04  4.78679231e-05
  5.36868199e-05 -5.20077277e-04 -2.60591024e-05 -7.10825052e-05  4.47719145e-05
 -2.99023844e-04 -3.66708762e-04  1.15712536e-03  1.29082941e-04  9.48173444e-05
  4.47680749e-05 -1.09731900e-03  3.73307224e-04 -3.94010341e-04 -1.01822632e-04
 -1.63668803e-05 -4.72741489e-05  4.41512423e-05 -5.39462229e-05 -4.68374977e-04
 -6.93264587e-04  4.42130188e-03 -8.99123621e-05  2.31360343e-05 -1.09097415e-05
 -2.10896608e-03 -3.65439126e-03  7.81394898e-04 -3.15323849e-04 -1.05920698e-04
 -9.56970977e-05 -4.72672274e-05  6.76725388e-05  4.51840025e-03 -9.34416407e-04
 -3.51945902e-04 -6.34008120e-04  1.29436698e-03  2.03219994e-04 -2.00753729e-03
 -5.27544413e-03  4.71002110e-04  1.08696545e-03  2.99658208e-04 -1.47109029e-04
  3.19778850e-04  9.95748370e-04  1.00596082e+00  1.54122170e-02 -1.14645405e-02
  6.45345292e-04 -3.63582757e-04 -3.09796193e-04  4.53193586e-03 -1.64994921e-03
 -7.78744618e-04 -1.63308293e-03 -2.95864758e-04  5.43921728e-04 -3.20420602e-04
  8.85672183e-05  7.05832125e-04  1.28583549e-03 -4.89075893e-03  3.21947462e-04
 -1.57596664e-04 -4.30745105e-05  3.18677597e-03 -1.25871690e-04 -4.22886324e-04
  7.38765248e-04  3.26162531e-04  7.76223670e-06 -7.85493553e-04  4.09891575e-05
  6.34010554e-04 -2.21792152e-04 -5.55201688e-04 -1.79028083e-04  8.14119581e-05
 -5.52727896e-05  1.66759490e-04 -9.03207562e-06 -4.18850782e-05  1.97939097e-05
 -2.66478948e-05  6.10285341e-04  2.93023667e-05  4.45682405e-05 -3.34343288e-05
 -2.37602107e-03  2.30849023e-03 -1.44731218e-03 -1.74649480e-03 -1.73659237e-04
 -6.90295294e-05 -3.48869680e-04  3.36727452e-04  2.84891449e-04 -3.12777694e-05
 -9.50040743e-05  5.15882593e-04  1.42255594e-04  1.33508861e-04 -4.79720117e-05
  1.52314770e-02 -1.07450087e-03  4.97841768e-03  1.31911095e-03  2.22232407e-04
  3.33972655e-05 -2.57586708e-03 -1.46606428e-03  5.40111666e-04  9.02718880e-04
 -2.70580442e-04  1.41923424e-05 -1.08151308e-03 -3.07949671e-04  1.00637490e+00
  1.63731423e-02 -1.92314843e-02 -1.01990267e-04  2.08133457e-04 -3.31061623e-04
 -2.38449356e-03  3.06306729e-03 -1.44792522e-03 -7.77616915e-04  5.94593465e-04
 -7.35496982e-04  2.07830156e-04 -1.72185186e-04  5.67486098e-03 -4.08621834e-04
  1.05904685e-03 -4.46766342e-04 -6.71477136e-04  1.48732854e-04  7.21422890e-04
  3.00837675e-03  3.72331398e-04  7.97218182e-04  1.42875534e-04  5.33394594e-04
  8.62483424e-04 -9.66110235e-04 -4.20013673e-04 -7.80406508e-04  3.65839554e-03
 -2.09728868e-05 -2.12392044e-04  9.14000672e-05 -6.58508952e-04  2.57524867e-03
 -6.76146354e-05 -4.11386152e-04 -2.94964664e-04 -2.75221459e-05  2.26522525e-04
 -3.33084009e-05  7.11680514e-05  1.03089995e-04 -1.07899280e-03  1.58918738e-04
 -3.13294968e-05  1.59293687e-06  6.86166219e-05 -6.34791802e-04  6.65513882e-05
  5.56068069e-05 -1.37848142e-05  2.39061200e-05  1.99232135e-05  4.57829886e-05
  3.08327325e-04  6.66306540e-04 -3.63312424e-04 -6.70557465e-05 -4.31635527e-05
 -1.68037855e-05  9.46190250e-04  1.48545281e-04 -1.03005278e-04  1.75121423e-04
 -3.11165951e-04  1.22612615e-04  4.25372541e-05  1.55722921e-04 -1.77261750e-04
 -1.92808241e-05  6.94434398e-04  1.28373189e-04 -1.05872268e-04 -1.43758576e-05
 -1.26855759e-04  3.07146128e-04  6.01717030e-06 -3.51509310e-04 -3.13043805e-05
 -2.41992541e-03  1.16802325e-03 -1.13664808e-03  1.57529944e-03 -9.49492558e-04
  1.00660032e+00  1.68962666e-02 -1.71968029e-02  2.58692628e-04 -2.64821566e-04
 -1.33858204e-04  2.43675772e-03  2.06343388e-03  6.00455913e-04 -3.17774511e-04
  2.57870489e-04 -1.55248521e-03  6.19526184e-04  4.93712296e-04 -1.63644632e-02
 -1.34091417e-03  2.14069322e-03 -1.31253267e-03 -2.39947773e-04 -2.09614904e-04
  3.23164669e-03  1.83602874e-03 -1.29955771e-04  9.05962728e-04 -3.83430277e-04
  2.16461555e-04 -1.21615982e-03 -7.46499906e-04 -1.70424440e-03 -5.55604862e-04
  3.32785986e-03 -1.25863163e-04  9.22232232e-06 -6.78757993e-05  1.94447232e-03
  2.04689713e-03 -4.13790986e-04 -3.74789527e-04  6.86865126e-05 -2.16564549e-04
 -3.50863556e-04 -2.80539040e-05  2.27769075e-05 -2.06785060e-04 -1.54988986e-03
 -8.84737536e-05 -1.33759617e-04 -6.20977196e-05 -1.44273645e-03 -4.40058298e-04
  2.91378243e-04  6.01029892e-05  1.11599747e-04 -8.09039354e-05 -1.31233601e-04
  1.18810767e-04  1.10237323e-06  2.11861291e-05  4.55241453e-04  1.67389794e-04
  8.47736959e-05 -6.78402704e-05 -1.08870657e-03 -1.49991795e-04  1.98190912e-04
 -7.47982955e-05 -3.07711158e-05 -2.62589480e-05  4.02935795e-05  5.08402780e-05
  5.39532020e-04  2.50053327e-03 -6.11997616e-05  6.33794286e-04  1.03032556e-04
 -2.28650919e-03  1.65024290e-03  9.49524481e-04  1.58648573e-03 -1.31366752e-03
 -1.61553443e-03  1.61112014e-03  1.01887018e-03 -1.27183846e-03  1.45076340e-03
 -6.47921503e-05 -5.52259443e-05  5.13795375e-05  8.97361414e-06 -3.56266824e-05
  1.16425473e-04  6.22401051e-04  8.89058632e-06 -1.14854455e-04  5.57770994e-05
 -3.15035883e-05  3.49210185e-04 -5.57094506e-05 -2.82113603e-04  4.44954316e-05
  1.01334140e-03 -4.52637307e-04  2.63789594e-03  5.10716331e-05  1.23671482e-04
 -6.11606970e-05 -2.04179003e-03 -3.72860517e-04  3.44796093e-04 -2.71167675e-04
  4.37201831e-04 -2.52292803e-04  1.93313799e-04 -4.16032005e-04 -6.02711841e-03
 -6.40622909e-04  3.19097113e-03  2.50848793e-04  6.70448406e-04 -1.50878747e-04
 -2.45136130e-03 -3.43248166e-03 -8.59218813e-05  8.57689150e-04  5.05533057e-04
  4.76669206e-04  5.78886008e-04 -1.15035697e-03  1.00671689e+00  1.68812572e-02
 -2.21344827e-02 -1.84610755e-04 -1.73067020e-04 -4.82952712e-04 -4.95575791e-03
 -1.86872958e-04  2.05646496e-03 -1.11585952e-03 -1.20977908e-04  5.85116345e-05
  6.43249005e-04 -1.58871800e-04 -5.65822842e-03 -1.47895400e-03  6.82188529e-03
  6.71938396e-04 -1.08022940e-03 -2.06054089e-04 -4.63144221e-04  3.96477789e-03
  8.46314013e-06  8.23908714e-04  2.84019845e-04 -4.25340004e-04  6.90622722e-04
  9.99544673e-04  1.75666798e-05  1.55574500e-05 -8.55523497e-04  6.08640845e-05
 -4.46060177e-05 -2.90199215e-05 -1.16875175e-04 -7.45843913e-04  9.74647603e-05
 -5.69995006e-05 -1.03390096e-05  1.70101468e-05  7.49241408e-05  9.10704903e-05
  2.41929408e-04  2.79269779e-04 -1.40592560e-04 -2.03943234e-04  5.03683826e-05
  1.83253746e-04  5.69202742e-04  1.07809426e-04 -1.58385285e-04  5.26809462e-05
 -6.35676858e-04  3.81802488e-04  1.30409851e-04 -4.50246106e-05  1.31698015e-04
  1.40755019e-04  1.02803256e-03  3.60715188e-04  1.25345760e-05  4.60805110e-05
 -2.40829181e-03  1.00734947e-03 -2.20391872e-03 -1.27580801e-04 -1.31722753e-04
 -3.03259952e-04  5.15661096e-04  2.65790177e-04  2.32989159e-04  8.88593708e-05
  2.46040870e-04  1.54083737e-02 -4.05194725e-03 -3.23310803e-03 -9.17182062e-03
 -6.27305060e-04  2.78726314e-03  6.16292274e-03 -4.87391908e-03 -3.25519371e-04
 -7.78200342e-04  7.83212369e-04 -6.52407782e-04  8.48409745e-04 -4.87385322e-04
  1.86593694e-02  5.49162591e-03  3.82918594e-03 -1.13874689e-02  9.88622018e-04
  4.57985263e-03  2.55862515e-03  4.64511686e-04 -1.56569313e-03 -2.96050325e-04
 -6.72909778e-04 -9.54062623e-04  3.63851981e-06 -1.96135334e-03  3.86276609e-02
  5.07343784e-03  2.49170274e-02 -1.71129037e-02 -6.32701014e-03  9.30105983e-03
  1.00233941e-02 -1.76923586e-03 -2.61403497e-03 -2.13905989e-03  1.06065817e-03
  3.03006497e-03 -7.74641666e-03 -1.26817760e-02  1.62852755e-01  7.94284574e-02
  1.32515746e-01  8.37868856e-03 -2.16327870e-02  5.96494016e-03  1.91283330e-02
  6.71075408e-04 -1.19493178e-02 -8.95830806e-03 -1.42292656e-03  2.92223034e-02
  2.41629534e-04 -6.70296284e-03  4.18978242e-01  3.69205885e-01 -9.14507946e-02
  7.84250726e-02  6.24870393e-03 -3.10121665e-02 -2.47249176e-03  4.61628877e-03
 -6.54995122e-03 -2.61785543e-03 -9.29761916e-04  4.86503963e-03 -1.56996833e-03
  1.62011885e-01  4.64408425e-03 -1.43084864e-02 -2.93669135e-02  6.71038387e-03
  1.00189871e-03 -4.45244547e-03 -6.70401526e-05 -3.31233989e-04  3.23811535e-05
  1.11214861e-02  7.00842699e-03 -1.47797100e-03 -6.92338744e-04 -1.28181041e-03
  3.60699679e-02  4.06779759e-03  7.93175140e-03  5.68422077e-03  1.20266127e-04
  5.33466571e-03  3.30472256e-03  5.14655359e-04 -2.02445855e-03 -1.99033268e-04
  2.08231888e-03 -1.75059206e-03 -2.06666357e-04 -4.65269850e-04 -1.04107245e-04
  1.45342992e-02 -1.88600692e-01 -1.02694407e-01  8.49329980e-02  2.76381734e-02
  7.84223926e-03  6.90616893e-03 -3.31983724e-03  8.26963511e-03  6.40992447e-03
 -1.11887016e-03 -3.21845020e-03 -7.55548678e-03 -5.07765288e-03  1.98068917e-02
 -2.80196061e-01 -1.84417362e-01 -3.61865880e-02  4.71379057e-02 -1.28359829e-02
 -2.21279797e-02  2.58078393e-02 -1.20877168e-02  1.09623692e-02  5.60328824e-04
  1.89869495e-03 -2.16119212e-03 -9.62321571e-03  1.81706475e-02 -2.39824922e-01
 -1.37962303e-01 -6.12042985e-02 -1.96868998e-02  2.57545661e-02 -1.54710408e-02
 -1.26784880e-02  9.02250846e-03  8.05938950e-03  3.18544898e-03  2.34635038e-03
  8.25311820e-03 -5.73464694e-03  4.91198924e-03 -1.10895842e-01 -6.08124575e-02
  7.51264754e-02 -8.73077524e-02 -1.43368192e-02  2.44912000e-02 -1.37099288e-02
 -6.27074392e-03  2.97302752e-03 -1.34835614e-03 -1.67192271e-03  1.35284414e-02
  4.86540778e-03  8.05953976e-04  1.02534403e-01  9.97904743e-02  1.40108879e-02
 -4.64541615e-03 -5.38030499e-03  1.21498382e-02 -8.69803635e-03 -2.33900998e-03
  7.53774006e-04  3.18260219e-04 -5.26782636e-04 -5.88324829e-04  2.32853119e-03
  1.73559823e-02  4.05164852e-03  6.38912438e-04 -1.13800542e-02 -6.95023399e-04
 -5.65952984e-02  1.23057133e-03  6.40483915e-03  7.02862875e-03 -4.13812325e-03
 -6.75777939e-02 -2.46574861e-03  7.43704618e-03 -4.70274382e-03  6.86417951e-03
 -2.63740567e-02  8.79894707e-04  4.54535958e-04 -4.86260661e-03 -4.30683373e-04
 -7.76463974e-02 -6.27535659e-03 -1.28902515e-02 -1.45781791e-03  8.37181997e-04
 -9.64860442e-02 -1.35743220e-02 -8.23327930e-03  1.11197321e-02 -5.92445119e-03
  1.57923388e-02 -2.30821885e-01 -1.25995938e-01  4.99635015e-02  1.43327808e-02
  9.88938412e-03 -1.23944355e-04 -2.89734777e-04  4.25125047e-03  4.33521280e-03
 -1.54588837e-03 -3.03542312e-03 -3.77406730e-03  1.21714790e-03  8.32842356e-03
 -1.21902102e-01 -9.81748252e-02 -1.17898669e-01 -7.49632823e-02  2.33764705e-03
 -5.19197147e-02 -9.40372954e-03 -4.92117402e-03  2.50496392e-03 -2.49964036e-03
 -1.91566617e-03 -1.59232878e-02  2.65198022e-03 -1.35014990e-02  2.03337072e-01
  1.31824102e-01  1.59806559e-02 -1.10131197e-01 -1.69281150e-02  1.90795267e-02
 -3.03317490e-02 -1.93030440e-03 -3.13205834e-03 -6.80492603e-04  3.62477869e-03
 -6.64698875e-03 -1.25045314e-02 -1.02133753e-02  2.48025677e-01  1.40994398e-01
 -7.67725739e-02  5.20873796e-02  1.22422924e-02 -2.27479932e-02  1.12540989e-02
  2.20639652e-03 -5.20661273e-03 -1.00031649e-03  1.69549806e-03 -4.27070968e-03
 -1.15090479e-02 -1.95433031e-03 -8.40877225e-02 -7.50738085e-02 -1.02147163e-01
 -5.90988751e-02  2.11203656e-02 -4.93433826e-02 -1.12496311e-02  7.49828789e-03
 -1.49412648e-03 -1.18690556e-03  1.23556488e-03  7.48401157e-03 -3.64800605e-03
 -1.14805543e-01 -2.20846195e-02  3.15017133e-03  7.93947386e-03 -4.00683231e-03
 -9.52066936e-02 -7.53302075e-03  7.25252137e-03  1.06294297e-02 -6.89192631e-03
 -1.01905217e-01 -1.35044030e-02  8.97498134e-03 -5.77370918e-03  1.00633178e-02
  1.08173572e-01  1.06232197e-02  4.18720839e-03  1.39797609e-02  1.87283374e-03
  9.10614541e-02  1.34713687e-02  1.28516162e-02 -2.54287182e-03 -7.20362991e-04
 -5.29098599e-02 -1.23759514e-02 -6.41128707e-03  3.08263633e-03 -2.90532725e-03
  1.09884661e-02 -1.97496621e-01 -1.32108524e-01 -2.21232711e-02 -3.31229474e-02
  5.33148697e-03 -2.33939585e-02  2.70084631e-03 -8.54354947e-03 -1.42581837e-03
 -4.22710549e-04  1.73018925e-04  9.57799725e-04  2.18198282e-03 -2.47636142e-03
  8.47280599e-02  4.24164902e-02 -1.58881992e-01 -9.07291461e-02 -4.90786023e-04
 -5.70909017e-02 -4.02058004e-02  1.88793022e-03 -4.38941247e-04 -3.37461681e-03
 -2.15508529e-03 -1.05476982e-02  1.28588038e-03 -5.30698960e-03  1.46473374e-01
  9.00568731e-02 -1.79751778e-02  1.31478670e-01 -1.58394232e-02  4.99810557e-03
  4.10664011e-02 -1.97691960e-03 -3.36217614e-04 -7.74281894e-04 -5.17001479e-03
 -1.53183677e-03  8.21841391e-03  4.06409711e-03 -2.18675170e-01 -1.41061574e-01
 -3.13192878e-02  1.40706727e-01  1.13266791e-02 -1.07755610e-02  2.73103650e-02
 -1.51556783e-03  1.07848161e-03  1.37954177e-03 -1.94091763e-03 -8.48867364e-03
  7.27720820e-03  9.12700118e-04  7.11830478e-02  7.71333022e-02  2.04215029e-01
  1.50426231e-01 -4.47206914e-02  9.54307592e-02  5.15069534e-02 -1.78106874e-02
  2.02070142e-03  1.89047944e-03 -1.17569268e-03 -1.18051524e-02  1.30406728e-04
  1.63746772e-01  3.54152519e-02 -4.94040534e-03 -2.43521049e-02  2.78948436e-03
 -1.29678998e-01 -2.73848603e-02  6.78958442e-03  1.05650712e-02 -8.00322143e-03
 -9.34932568e-02 -4.66806741e-03  6.14138560e-03 -8.70667970e-03  7.63276505e-03
 -1.80485669e-01 -3.64667576e-02 -8.79645685e-03 -1.57452771e-02 -2.46489905e-03
  8.82058226e-02  1.97936270e-02  9.87673830e-03  3.21554705e-03 -6.58099051e-04
  5.90213176e-02  1.14329881e-02  1.84641733e-04 -6.46451758e-03  2.36810005e-03
  4.64210851e-03 -1.18746696e-01 -6.84410688e-02 -1.43451450e-01  4.78781732e-02
 -3.62040388e-02 -5.83536093e-02  1.75334944e-02 -1.09637272e-02 -3.76913913e-03
  2.80768653e-03 -4.71389665e-04  1.29289779e-02  2.02038614e-03 -5.13662414e-03
  2.17259396e-01  1.24002399e-01 -9.48031920e-02  7.87375631e-02 -3.80045410e-02
 -3.94997777e-02  1.48417178e-02 -8.46890950e-03  4.83664724e-03 -1.78021424e-03
 -4.39183793e-04 -1.35678528e-03  1.49541918e-03  2.15414743e-03 -8.59602960e-02
 -3.15759180e-02 -1.09057121e-02  1.73227711e-01 -8.85847043e-03 -3.37425587e-03
  4.20712921e-02 -8.75686014e-03 -1.25243878e-03 -8.31876591e-04 -6.23995293e-03
 -3.99104344e-03  6.87416110e-03  2.25189218e-03 -7.30740265e-03 -8.61746172e-03
  1.63604067e-01 -1.67047862e-01 -4.10676867e-02  5.03492260e-02 -5.48107633e-02
 -1.07981449e-02 -2.49608536e-03 -1.63828670e-03 -4.04118647e-04  1.23030150e-02
 -8.64579856e-03  1.32066925e-03  4.12365005e-02  5.81196398e-02 -1.71326206e-01
 -1.99909374e-01  3.09846853e-02 -6.66823045e-02 -8.37555192e-02  7.82077918e-03
  8.65279310e-04 -6.62434609e-04  7.24687333e-04  1.14204114e-02  1.32035538e-03
 -1.93261846e-01 -4.62458511e-02  4.04532256e-03  9.36246596e-03 -7.09698727e-03
 -7.73739846e-02 -1.64523760e-02  4.93631278e-04  7.66484468e-03 -5.63546574e-03
 -1.61680039e-01 -3.34267439e-02  6.14586599e-03 -4.10634798e-03  1.20995399e-02
  4.07076942e-02  7.81458914e-03  4.00482648e-03  1.47202225e-03 -2.05819773e-05
 -4.55129473e-02 -1.19000545e-02 -5.82534625e-03  3.34369412e-03  9.96645200e-05
  1.98653440e-01  4.23794072e-02  1.02651656e-02 -1.39208086e-02  8.84235451e-03
  1.41302362e-03 -4.84191797e-02 -5.59720947e-02 -1.06486795e-01 -1.14561680e-01
  3.89568485e-02 -1.91024202e-02 -4.92328147e-02  1.42376638e-02 -3.75843072e-03
  1.57877474e-03  2.37186057e-03  1.32415623e-03  4.88270413e-03 -5.54826835e-04
  4.09879793e-02  4.05080180e-02  1.00794926e-01 -1.29223321e-01  4.76726374e-02
  6.28921094e-02 -4.43628388e-02  1.41411445e-02 -9.99900337e-04  1.97481116e-03
  7.18853576e-04 -8.64810546e-03 -1.04230464e-02  5.38746959e-03 -5.52634640e-02