[Molden Format]
[Atoms] (AU)
C    1    6           1.6626719671         2.8528262013         0.2146631981
C    2    6          -0.8266644847         2.3553396983        -0.1211357676
C    3    6          -2.1015557809        -0.0352109046         0.3746603565
C    4    6          -0.8642898012        -2.2584972372         0.0658070712
O    5    8           1.6175564566        -2.5076849145        -0.3875662509
H    6    1           2.2924294156        -0.8171846776        -0.6194255176
H    7    1           2.5278736439         4.5502037374        -0.5705105048
H    8    1           2.8771678241         1.6966615788         1.4321067444
H    9    1          -1.8723831378        -4.0664368096         0.0253469577
H   10    1          -4.1539172169        -0.0727074929         0.5739164429
H   11    1          -1.9833479504         3.8062938107        -1.0486617648
[GTO]
  1 0
 s    8  1.00
     6665.0000000000         0.0006920000
     1000.0000000000         0.0053290000
      228.0000000000         0.0270770000
       64.7100000000         0.1017180000
       21.0600000000         0.2747400000
        7.4950000000         0.4485640000
        2.7970000000         0.2850740000
        0.5215000000         0.0152040000
 s    8  1.00
     6665.0000000000        -0.0001460000
     1000.0000000000        -0.0011540000
      228.0000000000        -0.0057250000
       64.7100000000        -0.0233120000
       21.0600000000        -0.0639550000
        7.4950000000        -0.1499810000
        2.7970000000        -0.1272620000
        0.5215000000         0.5445290000
 s    1  1.00
        0.1596000000         1.0000000000
 p    3  1.00
        9.4390000000         0.0381090000
        2.0020000000         0.2094800000
        0.5456000000         0.5085570000
 p    1  1.00
        0.1517000000         1.0000000000
 d    1  1.00
        0.5500000000         1.0000000000

  2 0
 s    8  1.00
     6665.0000000000         0.0006920000
     1000.0000000000         0.0053290000
      228.0000000000         0.0270770000
       64.7100000000         0.1017180000
       21.0600000000         0.2747400000
        7.4950000000         0.4485640000
        2.7970000000         0.2850740000
        0.5215000000         0.0152040000
 s    8  1.00
     6665.0000000000        -0.0001460000
     1000.0000000000        -0.0011540000
      228.0000000000        -0.0057250000
       64.7100000000        -0.0233120000
       21.0600000000        -0.0639550000
        7.4950000000        -0.1499810000
        2.7970000000        -0.1272620000
        0.5215000000         0.5445290000
 s    1  1.00
        0.1596000000         1.0000000000
 p    3  1.00
        9.4390000000         0.0381090000
        2.0020000000         0.2094800000
        0.5456000000         0.5085570000
 p    1  1.00
        0.1517000000         1.0000000000
 d    1  1.00
        0.5500000000         1.0000000000

  3 0
 s    8  1.00
     6665.0000000000         0.0006920000
     1000.0000000000         0.0053290000
      228.0000000000         0.0270770000
       64.7100000000         0.1017180000
       21.0600000000         0.2747400000
        7.4950000000         0.4485640000
        2.7970000000         0.2850740000
        0.5215000000         0.0152040000
 s    8  1.00
     6665.0000000000        -0.0001460000
     1000.0000000000        -0.0011540000
      228.0000000000        -0.0057250000
       64.7100000000        -0.0233120000
       21.0600000000        -0.0639550000
        7.4950000000        -0.1499810000
        2.7970000000        -0.1272620000
        0.5215000000         0.5445290000
 s    1  1.00
        0.1596000000         1.0000000000
 p    3  1.00
        9.4390000000         0.0381090000
        2.0020000000         0.2094800000
        0.5456000000         0.5085570000
 p    1  1.00
        0.1517000000         1.0000000000
 d    1  1.00
        0.5500000000         1.0000000000

  4 0
 s    8  1.00
     6665.0000000000         0.0006920000
     1000.0000000000         0.0053290000
      228.0000000000         0.0270770000
       64.7100000000         0.1017180000
       21.0600000000         0.2747400000
        7.4950000000         0.4485640000
        2.7970000000         0.2850740000
        0.5215000000         0.0152040000
 s    8  1.00
     6665.0000000000        -0.0001460000
     1000.0000000000        -0.0011540000
      228.0000000000        -0.0057250000
       64.7100000000        -0.0233120000
       21.0600000000        -0.0639550000
        7.4950000000        -0.1499810000
        2.7970000000        -0.1272620000
        0.5215000000         0.5445290000
 s    1  1.00
        0.1596000000         1.0000000000
 p    3  1.00
        9.4390000000         0.0381090000
        2.0020000000         0.2094800000
        0.5456000000         0.5085570000
 p    1  1.00
        0.1517000000         1.0000000000
 d    1  1.00
        0.5500000000         1.0000000000

  5 0
 s    8  1.00
    11720.0000000000         0.0007100000
     1759.0000000000         0.0054700000
      400.8000000000         0.0278370000
      113.7000000000         0.1048000000
       37.0300000000         0.2830620000
       13.2700000000         0.4487190000
        5.0250000000         0.2709520000
        1.0130000000         0.0154580000
 s    8  1.00
    11720.0000000000        -0.0001600000
     1759.0000000000        -0.0012630000
      400.8000000000        -0.0062670000
      113.7000000000        -0.0257160000
       37.0300000000        -0.0709240000
       13.2700000000        -0.1654110000
        5.0250000000        -0.1169550000
        1.0130000000         0.5573680000
 s    1  1.00
        0.3023000000         1.0000000000
 p    3  1.00
       17.7000000000         0.0430180000
        3.8540000000         0.2289130000
        1.0460000000         0.5087280000
 p    1  1.00
        0.2753000000         1.0000000000
 d    1  1.00
        1.1850000000         1.0000000000

  6 0
 s    3  1.00
       13.0100000000         0.0196850000
        1.9620000000         0.1379770000
        0.4446000000         0.4781480000
 s    1  1.00
        0.1220000000         1.0000000000
 p    1  1.00
        0.7270000000         1.0000000000

  7 0
 s    3  1.00
       13.0100000000         0.0196850000
        1.9620000000         0.1379770000
        0.4446000000         0.4781480000
 s    1  1.00
        0.1220000000         1.0000000000
 p    1  1.00
        0.7270000000         1.0000000000

  8 0
 s    3  1.00
       13.0100000000         0.0196850000
        1.9620000000         0.1379770000
        0.4446000000         0.4781480000
 s    1  1.00
        0.1220000000         1.0000000000
 p    1  1.00
        0.7270000000         1.0000000000

  9 0
 s    3  1.00
       13.0100000000         0.0196850000
        1.9620000000         0.1379770000
        0.4446000000         0.4781480000
 s    1  1.00
        0.1220000000         1.0000000000
 p    1  1.00
        0.7270000000         1.0000000000

  10 0
 s    3  1.00
       13.0100000000         0.0196850000
        1.9620000000         0.1379770000
        0.4446000000         0.4781480000
 s    1  1.00
        0.1220000000         1.0000000000
 p    1  1.00
        0.7270000000         1.0000000000

  11 0
 s    3  1.00
       13.0100000000         0.0196850000
        1.9620000000         0.1379770000
        0.4446000000         0.4781480000
 s    1  1.00
        0.1220000000         1.0000000000
 p    1  1.00
        0.7270000000         1.0000000000

[5D7F]
[9G]

[MO]
 Sym= A
 Ene=        -1.9172361081e+01
 Spin= Alpha
 Occup=         2.0000000000e+00
  1        -1.2901530933e-04
  2        -2.2298831639e-04
  3         1.5941744464e-03
  4        -1.0125089774e-04
  5         6.0122090941e-05
  6         2.2702799553e-05
  7        -2.4872840292e-04
  8        -1.3053213108e-03
  9         1.6575358264e-04
 10        -8.0494487461e-05
 11        -1.6650935571e-05
 12         5.1594490953e-05
 13        -1.1220338481e-04
 14         7.0801359650e-05
 15         1.9821190845e-04
 16         3.4655881567e-04
 17        -5.2323031591e-03
 18         2.3357660586e-05
 19         3.9920443785e-06
 20         8.7258347753e-05
 21         6.2646333998e-05
 22         2.7404396499e-03
 23        -1.0057390262e-03
 24         6.3970684713e-05
 25        -1.1660756914e-04
 26         1.0744448704e-04
 27        -3.8521312818e-06
 28         3.3916872458e-05
 29        -1.7502719513e-04
 30        -2.4874395650e-04
 31         4.7426007465e-03
 32         6.8915278672e-05
 33        -2.4939348687e-04
 34        -2.5265859201e-05
 35         4.5739458551e-03
 36         2.7875244144e-03
 37        -8.3530372055e-04
 38        -1.4347489075e-04
 39        -1.6022586654e-04
 40         7.0785720228e-06
 41         4.3976172270e-04
 42        -3.7634922955e-04
 43        -2.1702771585e-04
 44        -3.8081509427e-04
 45        -5.9048488815e-03
 46        -3.1336759673e-04
 47         1.8560432502e-04
 48         1.0928966694e-04
 49        -5.5745567520e-03
 50        -1.8681898817e-03
 51         8.6133725289e-04
 52         3.7160327563e-04
 53        -3.8197146542e-05
 54        -6.6964568584e-05
 55         7.7288331144e-04
 56        -3.6532679571e-04
 57        -1.0041087304e+00
 58        -9.4208978301e-03
 59         1.4064264869e-02
 60         9.8844056212e-04
 61        -1.3931641291e-03
 62        -6.3739263142e-05
 63        -3.2287715243e-03
 64         1.2440828660e-03
 65         5.4073196179e-04
 66         3.4573148047e-05
 67         4.3486698448e-08
 68         7.8727521421e-05
 69         1.7308998496e-04
 70        -2.5298768604e-04
 71        -2.6558017481e-04
 72        -5.8760767135e-04
 73        -1.8270542923e-04
 74        -1.0530199103e-03
 75         1.1324795773e-05
 76        -4.3988087750e-06
 77         2.1429767901e-04
 78         4.1396709178e-05
 79         7.3759569388e-05
 80        -2.3661935534e-06
 81        -2.1038807113e-04
 82        -1.8825729458e-04
 83         7.2662165219e-07
 84        -2.3628409762e-05
 85        -2.0041367935e-05
 86         4.0017965043e-04
 87        -9.0802250355e-04
 88         6.4292418872e-04
 89         1.6452095782e-04
 90        -9.6014525208e-05
 91         1.4847028616e-04
 92         1.2543461715e-03
 93        -2.3012811491e-04
 94        -2.0433500202e-04
 95         5.3816684749e-05
 96         5.4949111994e-05
 97        -6.3857234695e-04
 98        -2.8576612224e-05
 99        -8.7095740235e-05
100         3.9690673715e-05
 Sym= A
 Ene=        -1.0252688527e+01
 Spin= Alpha
 Occup=         2.0000000000e+00
  1        -2.9407472723e-04
  2        -3.6298102183e-04
  3         1.0923683941e-03
  4         1.3655835870e-04
  5         9.3188038883e-05
  6         5.6673510238e-05
  7        -1.1478843643e-03
  8         3.4305469780e-04
  9        -4.8795873766e-04
 10        -9.3746600497e-05
 11        -2.1503192189e-05
 12        -3.4382852767e-05
 13         4.3825721074e-05
 14        -3.7435385491e-05
 15        -4.7782936621e-04
 16        -6.9670023424e-04
 17         4.6377680857e-03
 18        -1.0667677095e-04
 19         7.1511335852e-06
 20        -1.9770556182e-06
 21        -2.2015887042e-03
 22        -3.7585822734e-03
 23         7.9886474266e-04
 24        -3.2856177229e-04
 25        -1.1148684824e-04
 26        -1.0041145540e-04
 27        -2.6475151406e-05
 28         1.2840119145e-04
 29         4.3496579723e-03
 30        -9.2679812634e-04
 31        -5.8157596436e-05
 32        -5.7881900257e-04
 33         1.2825071472e-03
 34         1.6824591639e-04
 35        -2.0168726318e-03
 36        -5.8064586703e-03
 37         5.8418789993e-04
 38         1.0623091125e-03
 39         2.8771713200e-04
 40        -1.2404121710e-04
 41         4.5028815092e-04
 42         9.2660545145e-04
 43         1.0059137673e+00
 44         1.5299685323e-02
 45        -1.1845506683e-02
 46         6.5221503828e-04
 47        -4.0440106993e-04
 48        -2.4194582519e-04
 49         4.9522664202e-03
 50        -1.8491293425e-03
 51        -9.6187511734e-04
 52        -1.6337864374e-03
 53        -4.1508614803e-04
 54         2.8723987620e-04
 55        -1.8360603953e-04
 56         8.6164762392e-05
 57         7.1413102873e-04
 58         1.2946787161e-03
 59        -5.0543670487e-03
 60         3.0496024125e-04
 61        -1.9556329460e-04
 62        -4.6938456987e-05
 63         3.3299700875e-03
 64        -1.8176759027e-04
 65        -5.8757781090e-04
 66         7.2716808445e-04
 67         3.8650496031e-04
 68        -1.5816058747e-05
 69        -7.8835741187e-04
 70         1.1566077849e-04
 71         5.8284226322e-04
 72        -4.1575592158e-04
 73        -6.0788747169e-04
 74        -9.5585601903e-05
 75         1.0266046728e-04
 76        -5.1875949466e-05
 77         2.0881134584e-04
 78        -2.4701455848e-05
 79        -4.0089054257e-05
 80         2.7140622892e-05
 81        -1.5469689293e-05
 82         7.4815344402e-04
 83         2.2324268310e-05
 84         5.4555502068e-05
 85        -3.5626633161e-05
 86        -2.1514249334e-03
 87         2.3639556174e-03
 88        -1.4782506212e-03
 89        -1.6493128726e-03
 90         4.2380240049e-05
 91        -1.2644945279e-04
 92        -3.5489678071e-04
 93         3.1083699433e-04
 94         2.8802424537e-04
 95        -5.2579335222e-05
 96        -7.8316711793e-05
 97         5.0275065887e-04
 98         1.5360688615e-04
 99         1.2425406633e-04
100        -4.1158902973e-05
 Sym= A
 Ene=        -1.0208070331e+01
 Spin= Alpha
 Occup=         2.0000000000e+00
  1         1.7053536185e-02
  2        -1.1229021230e-03
  3         4.9225537951e-03
  4         1.3138196137e-03
  5         2.5633092209e-04
  6         7.9427523028e-05
  7        -2.3571430891e-03
  8        -1.5632494726e-03
  9         3.9572827383e-04
 10         8.4909400880e-04
 11        -3.6469249822e-04
 12         8.6406625796e-06
 13        -1.1002089438e-03
 14        -3.2759247038e-04
 15         1.0062968871e+00
 16         1.6275653835e-02
 17        -1.9084318020e-02
 18        -1.0010445107e-04
 19         1.7108631672e-04
 20        -3.3803965624e-04
 21        -2.0842625445e-03
 22         3.0379450426e-03
 23        -1.4861012646e-03
 24        -7.3456464726e-04
 25         6.4971303739e-04
 26        -7.2561115527e-04
 27         2.2613423513e-04
 28        -1.0996810307e-04
 29         5.5436781314e-03
 30        -4.1070492039e-04
 31         9.5149216612e-04
 32        -4.4788588540e-04
 33        -6.4754510662e-04
 34         1.5124135841e-04
 35         5.7718164846e-04
 36         3.3250650051e-03
 37         3.3717330433e-04
 38         8.0210522470e-04
 39         9.3735176121e-05
 40         5.4821253620e-04
 41         9.5792660513e-04
 42        -9.5297357861e-04
 43        -4.0455503792e-04
 44        -7.6964226886e-04
 45         4.0010626112e-03
 46        -5.4817760056e-05
 47        -2.0858056942e-04
 48         1.1538520208e-04
 49        -5.3098121368e-04
 50         2.7455762917e-03
 51        -1.4145584196e-04
 52        -4.2957646806e-04
 53        -3.2643327652e-04
 54         6.5296935714e-06
 55         3.0880195591e-04
 56        -1.4199372722e-04
 57         7.7300995064e-05
 58         1.1011435257e-04
 59        -1.2061280309e-03
 60         1.5401385214e-04
 61        -4.7322841250e-05
 62        -4.7298988315e-06
 63         1.4480946402e-04
 64        -6.5065588607e-04
 65         4.5321462359e-05
 66         7.2145485707e-05
 67         4.7358281983e-06
 68         1.9575959700e-05
 69         5.8978876953e-06
 70         2.3530344513e-05
 71         2.9139229874e-04
 72         5.2267223101e-04
 73        -3.0951627955e-04
 74        -9.3661867588e-05
 75        -4.4288568610e-05
 76        -4.1603313237e-05
 77         8.7374491564e-04
 78         1.4709337559e-04
 79        -1.2471653266e-04
 80         1.1869151885e-04
 81        -2.7241215083e-04
 82         2.3591195670e-05
 83         5.2280763462e-05
 84         2.1185011185e-04
 85        -1.6289071129e-04
 86         1.9091812036e-05
 87         7.7678532621e-04
 88         1.4024577950e-04
 89        -9.3105637303e-05
 90        -6.6750462880e-06
 91        -2.0718327872e-04
 92         2.9125886547e-04
 93        -2.0818060810e-05
 94        -3.6580233355e-04
 95        -5.1439666588e-05
 96        -2.3311800050e-03
 97         1.2173429833e-03
 98        -1.1304852528e-03
 99         1.5233634277e-03
100        -9.9115306546e-04
 Sym= A
 Ene=        -1.0189046116e+01
 Spin= Alpha
 Occup=         2.0000000000e+00
  1         1.0064211810e+00
  2         1.6622567914e-02
  3        -1.6017184504e-02
  4         2.9351734470e-04
  5        -8.7561979191e-05
  6         5.0302203987e-05
  7         2.3328731385e-03
  8         1.4671819627e-03
  9         4.9967383664e-04
 10        -7.0164244163e-04
 11         5.5507510012e-04
 12        -1.4070781114e-03
 13         3.1552639409e-04
 14         4.1565730500e-04
 15        -1.8235443135e-02
 16        -1.3839856617e-03
 17         1.6917706799e-03
 18        -1.3292572719e-03
 19        -2.5477214700e-04
 20        -2.0603688268e-04
 21         2.9953145889e-03
 22         1.9416968818e-03
 23        -3.4794398161e-05
 24         9.6708560531e-04
 25        -4.0914247893e-04
 26         2.3023101691e-04
 27        -1.1305476430e-03
 28        -7.2945371987e-04
 29        -1.2490350050e-03
 30        -5.3542812082e-04
 31         3.2467273291e-03
 32        -1.1293588146e-04
 33         3.0844122274e-05
 34        -6.1060349882e-05
 35         1.8772514864e-03
 36         2.1106393070e-03
 37        -4.5130351284e-04
 38        -3.7887182328e-04
 39         7.0833257173e-05
 40        -2.2083112847e-04
 41        -3.3409987202e-04
 42        -6.0422646711e-06
 43         7.9424248082e-06
 44        -2.2203112940e-04
 45        -1.0776818465e-03
 46        -4.9613279045e-05
 47        -1.3710725020e-04
 48        -5.2344025746e-05
 49        -1.2868926789e-03
 50        -2.7715465259e-04
 51         2.8548994207e-04
 52         4.9001201918e-05
 53         1.0734055858e-04
 54        -8.5825935551e-05
 55        -9.3947732122e-05
 56         1.1084455066e-04
 57         1.5218626301e-05
 58         4.6316211113e-05
 59         4.3282355566e-04
 60         1.5928295870e-04
 61         8.6794805102e-05
 62        -4.6246911505e-05
 63        -8.4194248802e-04
 64        -1.1650411103e-04
 65         1.1797615462e-04
 66        -6.3235374424e-05
 67        -3.4703878576e-05
 68        -2.9396188941e-05
 69         5.9378784941e-05
 70         7.4239541792e-05
 71         3.1787153719e-04
 72         1.7847252076e-03
 73        -1.0153165924e-04
 74         6.0711447805e-04
 75         8.9588533754e-05
 76        -2.3616641600e-03
 77         1.6698786578e-03
 78         8.3499975418e-04
 79         1.8707749421e-03
 80        -9.5164371767e-04
 81        -1.8958708173e-03
 82         1.5843215897e-03
 83         1.1109876126e-03
 84        -1.3572721019e-03
 85         1.4140592565e-03
 86        -7.2784715403e-05
 87        -2.3346899505e-05
 88         3.8576154709e-05
 89         1.4687780344e-05
 90        -2.2691221675e-05
 91         1.0824260060e-04
 92         5.9621724156e-04
 93         8.0047629261e-06
 94        -1.1868507846e-04
 95         5.0971495242e-05
 96         2.7146780977e-05
 97         3.3666157895e-04
 98        -1.9489992844e-05
 99        -2.8706322765e-04
100         8.0740605330e-05
 Sym= A
 Ene=        -1.0182839884e+01
 Spin= Alpha
 Occup=         2.0000000000e+00
  1         5.4577373959e-04
  2        -4.6995305267e-04
  3         2.7231753994e-03
  4         7.4294852517e-05
  5         1.2479758694e-04
  6        -6.8334423374e-05
  7        -2.0418639669e-03
  8        -4.5718188539e-04
  9         1.9674624946e-04
 10        -2.7162925751e-04
 11         4.5248064042e-04
 12        -2.8565317648e-04
 13         2.1657889951e-04
 14        -4.2893848140e-04
 15        -5.8982810610e-03
 16        -6.5629336633e-04
 17         3.1099835732e-03
 18         2.2989283655e-04
 19         6.8389069914e-04
 20        -1.6564561858e-04
 21        -2.2577840538e-03
 22        -3.5186982474e-03
 23        -6.4461054655e-05
 24         8.7183566877e-04
 25         5.0760091215e-04
 26         4.3972240310e-04
 27         5.6182893570e-04
 28        -1.1958392677e-03
 29         1.0066763901e+00
 30         1.6798819199e-02
 31        -2.1847134374e-02
 32        -2.2476796728e-04
 33        -1.4788262279e-04
 34        -3.1622470134e-04
 35        -5.0452737951e-03
 36        -2.1999660786e-04
 37         1.8923530790e-03
 38        -1.0987159143e-03
 39        -2.6070142336e-04
 40         3.9238954953e-05
 41         5.0201504536e-04
 42        -1.8387886628e-04
 43        -5.5044627217e-03
 44        -1.5075081717e-03
 45         6.8102998521e-03
 46         6.4975004555e-04
 47        -1.1433002073e-03
 48        -1.6838023418e-04
 49        -8.9939074098e-05
 50         4.0238971309e-03
 51        -1.3316862125e-04
 52         8.1609978299e-04
 53         2.3984537961e-04
 54        -3.4632506183e-04
 55         6.8089356955e-04
 56         1.0077457623e-03
 57         2.5558175245e-05
 58         3.0756878328e-05
 59        -9.4396983626e-04
 60         4.2735286320e-05
 61        -5.6660760014e-05
 62        -1.9802678809e-05
 63        -1.0403012694e-04
 64        -7.2345112198e-04
 65         7.6084787164e-05
 66        -5.6728124467e-05
 67        -2.2308037425e-05
 68         7.7099452827e-07
 69         8.1638808886e-05
 70         8.1746621422e-05
 71         2.6176456352e-04
 72         1.4442870582e-04
 73        -1.3846047614e-04
 74        -1.9439528047e-04
 75         3.0187714391e-05
 76         1.2163470390e-04
 77         5.6376531923e-04
 78         1.3065693754e-04
 79        -1.3839100028e-04
 80         3.7304896935e-05
 81        -6.7471329092e-04
 82         4.1421970124e-04
 83         1.6390056592e-04
 84        -6.5473429763e-05
 85         1.3534295605e-04
 86         1.0278043482e-04
 87         1.0815879659e-03
 88         3.0457036375e-04
 89        -1.4088963831e-05
 90         9.8425202357e-06
 91        -2.4306768492e-03
 92         8.9642932270e-04
 93        -2.1810006737e-03
 94        -9.9914297744e-05
 95         6.9433720237e-05
 96        -3.2661193926e-04
 97         5.8368363742e-04
 98         2.3115174309e-04
 99         2.5105108238e-04
100         8.2106681291e-05
 Sym= A
 Ene=        -1.0695489098e+00
 Spin= Alpha
 Occup=         2.0000000000e+00
  1         3.2394678518e-04
  2         1.2018378977e-02
  3        -5.5419731101e-03
  4        -2.4178302979e-03
  5        -7.2202301053e-03
  6        -6.3155837271e-04
  7         3.3465492262e-03
  8         7.3149214229e-03
  9        -3.7404851635e-03
 10        -2.5544027713e-04
 11        -7.5923777193e-04
 12         6.6747659556e-04
 13        -7.2509852275e-04
 14         9.5313447722e-04
 15        -3.4485721682e-04
 16         1.5312025949e-02
 17         5.0363143868e-03
 18         2.6190306242e-03
 19        -9.7480187307e-03
 20         9.3971805881e-04
 21         6.3883742854e-03
 22         1.6011401647e-03
 23         7.0294637241e-04
 24        -1.5255455218e-03
 25        -2.4210581643e-04
 26        -6.0787688593e-04
 27        -1.0647562015e-03
 28         1.2331979573e-04
 29        -1.4606737378e-03
 30         3.6125745744e-02
 31        -3.1546595269e-03
 32         2.2611064352e-02
 33        -1.7154527353e-02
 34        -5.4193376479e-03
 35         6.1161312454e-03
 36         1.3446518515e-02
 37        -1.5755764949e-03
 38        -2.2845814107e-03
 39        -1.6875411076e-03
 40         1.2577658345e-03
 41         2.6410064160e-03
 42        -7.8323166779e-03
 43        -1.2658439923e-02
 44         1.5703353132e-01
 45         8.3572692382e-02
 46         1.2969198127e-01
 47         2.4657566452e-03
 48        -2.4369382248e-02
 49         4.6789000126e-03
 50         2.3304737711e-02
 51         4.5462030988e-04
 52        -1.1648431524e-02
 53        -9.9228660917e-03
 54        -4.7768339450e-04
 55         2.9092763990e-02
 56        -1.4971327497e-03
 57        -6.8157359685e-03
 58         4.2219304962e-01
 59         3.6715456244e-01
 60        -8.0544088922e-02
 61         8.5893995635e-02
 62         9.9311275557e-03
 63        -3.1272429597e-02
 64        -4.2635077588e-03
 65         5.7422892774e-03
 66        -6.4792073289e-03
 67        -3.0185385294e-03
 68        -4.6122729393e-04
 69         4.3769128779e-03
 70        -1.4048717584e-03
 71         1.7221972221e-01
 72         5.3825763468e-03
 73        -1.7447018309e-02
 74        -3.0518828784e-02
 75         5.9569567443e-03
 76         2.3407599210e-04
 77        -5.1242374035e-03
 78         2.4434249903e-05
 79        -4.8997178441e-05
 80        -9.6543862636e-05
 81         9.6964354699e-03
 82         6.0705204699e-03
 83        -1.3910021725e-03
 84        -6.8414122481e-04
 85        -1.1211566885e-03
 86         3.3362413779e-02
 87         5.0338106102e-03
 88         8.3529896637e-03
 89         4.5985994670e-03
 90        -8.0670551486e-04
 91         5.0748004619e-03
 92         2.4593689908e-03
 93         4.6332912130e-04
 94        -2.1952477027e-03
 95        -1.2311577471e-04
 96         1.8805968411e-03
 97        -7.5354540989e-04
 98        -2.7058032305e-04
 99        -4.2541796791e-04
100        -1.0391175788e-04
 Sym= A
 Ene=        -8.0370965379e-01
 Spin= Alpha
 Occup=         2.0000000000e+00
  1         1.4781233186e-02
  2        -1.8887417341e-01
  3        -1.0481736219e-01
  4         8.3941672061e-02
  5         2.6262205925e-02
  6         9.0165931489e-03
  7         8.6701800343e-03
  8        -1.2861652841e-03
  9         7.6973394777e-03
 10         5.7766347033e-03
 11        -1.4502501795e-03
 12        -3.1361887953e-03
 13        -7.7362594792e-03
 14        -5.3089585614e-03
 15         1.9301697164e-02
 16        -2.7857384948e-01
 17        -1.7893222931e-01
 18        -3.6774226181e-02
 19         4.5897135584e-02
 20        -1.4771938611e-02
 21        -1.8509781742e-02
 22         2.1923705944e-02
 23        -1.2360762513e-02
 24         1.0807665280e-02
 25         1.6549763079e-04
 26         1.7518804024e-03
 27        -1.8818184373e-03
 28        -1.0195318104e-02
 29         1.8351960325e-02
 30        -2.4138965675e-01
 31        -1.4321263465e-01
 32        -5.8407044728e-02
 33        -1.7896143179e-02
 34         2.2059293339e-02
 35        -1.8749627895e-02
 36        -1.1028638384e-02
 37         9.6422176391e-03
 38         8.3441540806e-03
 39         2.5996485542e-03
 40         2.4142203829e-03
 41         8.7833582735e-03
 42        -5.4271251918e-03
 43         5.1837752866e-03
 44        -1.2000624943e-01
 45        -6.3124454972e-02
 46         6.7847497688e-02
 47        -8.5859986866e-02
 48        -1.3114820642e-02
 49         2.3239383274e-02
 50        -1.2027572746e-02
 51        -6.4209881112e-03
 52         3.2394031302e-03
 53        -1.4345535568e-03
 54        -1.3407133471e-03
 55         1.2661187007e-02
 56         4.7606146950e-03
 57         9.4071232539e-04
 58         9.4638871206e-02
 59         8.9113484381e-02
 60         2.2759732528e-02
 61         3.1679505685e-04
 62        -6.2352111133e-03
 63         1.5016000141e-02
 64        -8.3897212286e-03
 65        -2.9287153328e-03
 66         7.8401972521e-04
 67         4.1809362860e-04
 68        -6.1444680806e-04
 69        -1.0159850694e-03
 70         2.6875533003e-03
 71         2.8940072249e-02
 72         4.1157439694e-03
 73        -9.4032293114e-04
 74        -1.0450980820e-02
 75        -2.7190888209e-04
 76        -5.8524201595e-02
 77        -6.4461231524e-04
 78         6.0846047699e-03
 79         8.0184178098e-03
 80        -3.1141122653e-03
 81        -6.7615608948e-02
 82        -3.0980435761e-03
 83         7.7131790222e-03
 84        -4.9706141845e-03
 85         6.3966464508e-03
 86        -3.1329168037e-02
 87         9.4083810865e-04
 88        -1.2703132995e-04
 89        -5.6061158421e-03
 90        -2.3895005624e-04
 91        -7.9576472129e-02
 92        -7.9406367503e-03
 93        -1.2983793687e-02
 94        -1.2671250606e-03
 95         1.4575106524e-03
 96        -9.4890584089e-02
 97        -1.2030810602e-02
 98        -8.2859431111e-03
 99         1.0864117922e-02
100        -6.2739453171e-03
 Sym= A
 Ene=        -7.3221686689e-01
 Spin= Alpha
 Occup=         2.0000000000e+00
  1         1.6255983361e-02
  2        -2.2893090293e-01
  3        -1.2620759949e-01
  4         5.1347687192e-02
  5         9.4130768971e-03
  6         9.5404232704e-03
  7         8.2822838824e-04
  8         1.3967325029e-03
  9         3.1451749947e-03
 10         3.8383975866e-03
 11        -1.7198119208e-03
 12        -2.5755486236e-03
 13        -4.4879735509e-03
 14         7.8750400633e-04
 15         8.6261225211e-03
 16        -1.2886845693e-01
 17        -1.0096138378e-01
 18        -1.1294216876e-01
 19        -7.3358999903e-02
 20        -7.9513790597e-04
 21        -5.0332874183e-02
 22        -1.1025645225e-02
 23        -5.5144861743e-03
 24         2.7065097326e-03
 25        -2.9983476400e-03
 26        -2.0602153903e-03
 27        -1.5272509665e-02
 28         1.5005002053e-03
 29        -1.3234969768e-02
 30         1.9622469977e-01
 31         1.3055151343e-01
 32         1.2891204380e-02
 33        -1.1436831823e-01
 34        -1.1796736442e-02
 35         1.9904104034e-02
 36        -3.3289943452e-02
 37        -1.3084442552e-03
 38        -3.2260873056e-03
 39        -3.1684440632e-04
 40         3.1826138520e-03
 41        -6.5107584711e-03
 42        -1.2414574992e-02
 43        -9.8112669126e-03
 44         2.5212490098e-01
 45         1.3979031605e-01
 46        -7.1340048440e-02
 47         5.1741663843e-02
 48         1.2021347921e-02
 49        -2.1402366614e-02
 50         7.2533816243e-03
 51         2.0359573961e-03