Generated by Psi4
        SP                           RHF                       CC-PVDZ
Number of atoms                            I               11
Charge                                     I                0
Multiplicity                               I                1
Number of electrons                        I               38
Number of alpha electrons                  I               19
Number of beta electrons                   I               19
Number of basis functions                  I              100
Number of independent functions            I              100
Atomic numbers                             I   N=          11
           6           6           6           6           8           1
           1           1           1           1           1
Nuclear charges                            R   N=          11
  6.00000000e+00  6.00000000e+00  6.00000000e+00  6.00000000e+00  8.00000000e+00
  1.00000000e+00  1.00000000e+00  1.00000000e+00  1.00000000e+00  1.00000000e+00
  1.00000000e+00
Current cartesian coordinates              R   N=          33
  1.66358433e+00  2.82087538e+00  2.14414408e-01 -8.33019918e-01  2.33900555e+00
 -8.67841825e-02 -2.12461704e+00 -5.61627460e-02  3.90022840e-01 -8.60526337e-01
 -2.25809404e+00  3.96982295e-02  1.63471326e+00 -2.43844020e+00 -3.73549687e-01
  2.20761293e+00 -7.14187776e-01 -6.26450658e-01  2.61859819e+00  4.32957608e+00
 -8.31414303e-01  2.84911085e+00  1.64869907e+00  1.43818081e+00 -1.78274526e+00
 -4.10189013e+00 -1.47410811e-01 -4.19115244e+00 -1.21922777e-01  4.88111417e-01
 -1.99130738e+00  3.77718187e+00 -1.02879822e+00
Integer atomic weights                     I   N=          11
          12          12          12          12          16           1
           1           1           1           1           1
Real atomic weights                        R   N=          11
  1.20000000e+01  1.20000000e+01  1.20000000e+01  1.20000000e+01  1.59949146e+01
  1.00782503e+00  1.00782503e+00  1.00782503e+00  1.00782503e+00  1.00782503e+00
  1.00782503e+00
Number of primitive shells                 I              140
Number of contracted shells                I               48
Pure/Cartesian d shells                    I                0
Pure/Cartesian f shells                    I                0
Highest angular momentum                   I                2
Largest degree of contraction              I                8
Shell types                                I   N=          48
           0           0           0           1           1          -2
           0           0           0           1           1          -2
           0           0           0           1           1          -2
           0           0           0           1           1          -2
           0           0           0           1           1          -2
           0           0           1           0           0           1
           0           0           1           0           0           1
           0           0           1           0           0           1
Number of primitives per shell             I   N=          48
           8           8           1           3           1           1
           8           8           1           3           1           1
           8           8           1           3           1           1
           8           8           1           3           1           1
           8           8           1           3           1           1
           3           1           1           3           1           1
           3           1           1           3           1           1
           3           1           1           3           1           1
Shell to atom map                          I   N=          48
           1           1           1           1           1           1
           2           2           2           2           2           2
           3           3           3           3           3           3
           4           4           4           4           4           4
           5           5           5           5           5           5
           6           6           6           7           7           7
           8           8           8           9           9           9
          10          10          10          11          11          11
Primitive exponents                        R   N=         140
  6.66500000e+03  1.00000000e+03  2.28000000e+02  6.47100000e+01  2.10600000e+01
  7.49500000e+00  2.79700000e+00  5.21500000e-01  6.66500000e+03  1.00000000e+03
  2.28000000e+02  6.47100000e+01  2.10600000e+01  7.49500000e+00  2.79700000e+00
  5.21500000e-01  1.59600000e-01  9.43900000e+00  2.00200000e+00  5.45600000e-01
  1.51700000e-01  5.50000000e-01  6.66500000e+03  1.00000000e+03  2.28000000e+02
  6.47100000e+01  2.10600000e+01  7.49500000e+00  2.79700000e+00  5.21500000e-01
  6.66500000e+03  1.00000000e+03  2.28000000e+02  6.47100000e+01  2.10600000e+01
  7.49500000e+00  2.79700000e+00  5.21500000e-01  1.59600000e-01  9.43900000e+00
  2.00200000e+00  5.45600000e-01  1.51700000e-01  5.50000000e-01  6.66500000e+03
  1.00000000e+03  2.28000000e+02  6.47100000e+01  2.10600000e+01  7.49500000e+00
  2.79700000e+00  5.21500000e-01  6.66500000e+03  1.00000000e+03  2.28000000e+02
  6.47100000e+01  2.10600000e+01  7.49500000e+00  2.79700000e+00  5.21500000e-01
  1.59600000e-01  9.43900000e+00  2.00200000e+00  5.45600000e-01  1.51700000e-01
  5.50000000e-01  6.66500000e+03  1.00000000e+03  2.28000000e+02  6.47100000e+01
  2.10600000e+01  7.49500000e+00  2.79700000e+00  5.21500000e-01  6.66500000e+03
  1.00000000e+03  2.28000000e+02  6.47100000e+01  2.10600000e+01  7.49500000e+00
  2.79700000e+00  5.21500000e-01  1.59600000e-01  9.43900000e+00  2.00200000e+00
  5.45600000e-01  1.51700000e-01  5.50000000e-01  1.17200000e+04  1.75900000e+03
  4.00800000e+02  1.13700000e+02  3.70300000e+01  1.32700000e+01  5.02500000e+00
  1.01300000e+00  1.17200000e+04  1.75900000e+03  4.00800000e+02  1.13700000e+02
  3.70300000e+01  1.32700000e+01  5.02500000e+00  1.01300000e+00  3.02300000e-01
  1.77000000e+01  3.85400000e+00  1.04600000e+00  2.75300000e-01  1.18500000e+00
  1.30100000e+01  1.96200000e+00  4.44600000e-01  1.22000000e-01  7.27000000e-01
  1.30100000e+01  1.96200000e+00  4.44600000e-01  1.22000000e-01  7.27000000e-01
  1.30100000e+01  1.96200000e+00  4.44600000e-01  1.22000000e-01  7.27000000e-01
  1.30100000e+01  1.96200000e+00  4.44600000e-01  1.22000000e-01  7.27000000e-01
  1.30100000e+01  1.96200000e+00  4.44600000e-01  1.22000000e-01  7.27000000e-01
  1.30100000e+01  1.96200000e+00  4.44600000e-01  1.22000000e-01  7.27000000e-01
Contraction coefficients                   R   N=         140
  6.91583963e-04  5.32579615e-03  2.70607210e-02  1.01656846e-01  2.74574824e-01
  4.48294319e-01  2.84902611e-01  1.51948592e-02 -2.93269653e-04 -2.31803547e-03
 -1.14997860e-02 -4.68267270e-02 -1.28466169e-01 -3.01266272e-01 -2.55630702e-01
  1.09379336e+00  1.00000000e+00  5.69792516e-02  3.13207212e-01  7.60376742e-01
  1.00000000e+00  1.00000000e+00  6.91583963e-04  5.32579615e-03  2.70607210e-02
  1.01656846e-01  2.74574824e-01  4.48294319e-01  2.84902611e-01  1.51948592e-02
 -2.93269653e-04 -2.31803547e-03 -1.14997860e-02 -4.68267270e-02 -1.28466169e-01
 -3.01266272e-01 -2.55630702e-01  1.09379336e+00  1.00000000e+00  5.69792516e-02
  3.13207212e-01  7.60376742e-01  1.00000000e+00  1.00000000e+00  6.91583963e-04
  5.32579615e-03  2.70607210e-02  1.01656846e-01  2.74574824e-01  4.48294319e-01
  2.84902611e-01  1.51948592e-02 -2.93269653e-04 -2.31803547e-03 -1.14997860e-02
 -4.68267270e-02 -1.28466169e-01 -3.01266272e-01 -2.55630702e-01  1.09379336e+00
  1.00000000e+00  5.69792516e-02  3.13207212e-01  7.60376742e-01  1.00000000e+00
  1.00000000e+00  6.91583963e-04  5.32579615e-03  2.70607210e-02  1.01656846e-01
  2.74574824e-01  4.48294319e-01  2.84902611e-01  1.51948592e-02 -2.93269653e-04
 -2.31803547e-03 -1.14997860e-02 -4.68267270e-02 -1.28466169e-01 -3.01266272e-01
 -2.55630702e-01  1.09379336e+00  1.00000000e+00  5.69792516e-02  3.13207212e-01
  7.60376742e-01  1.00000000e+00  1.00000000e+00  7.09645947e-04  5.46727229e-03
  2.78231186e-02  1.04747740e-01  2.82920846e-01  4.48495239e-01  2.70816885e-01
  1.54502916e-02 -3.14443412e-04 -2.48213768e-03 -1.23163554e-02 -5.05389173e-02
 -1.39384903e-01 -3.25077495e-01 -2.29848308e-01  1.09537935e+00  1.00000000e+00
  6.26791663e-02  3.33536566e-01  7.41239642e-01  1.00000000e+00  1.00000000e+00
  3.34987264e-02  2.34800801e-01  8.13682958e-01  1.00000000e+00  1.00000000e+00
  3.34987264e-02  2.34800801e-01  8.13682958e-01  1.00000000e+00  1.00000000e+00
  3.34987264e-02  2.34800801e-01  8.13682958e-01  1.00000000e+00  1.00000000e+00
  3.34987264e-02  2.34800801e-01  8.13682958e-01  1.00000000e+00  1.00000000e+00
  3.34987264e-02  2.34800801e-01  8.13682958e-01  1.00000000e+00  1.00000000e+00
  3.34987264e-02  2.34800801e-01  8.13682958e-01  1.00000000e+00  1.00000000e+00
Coordinates of each shell                  R   N=         144
  1.66358433e+00  2.82087538e+00  2.14414408e-01  1.66358433e+00  2.82087538e+00
  2.14414408e-01  1.66358433e+00  2.82087538e+00  2.14414408e-01  1.66358433e+00
  2.82087538e+00  2.14414408e-01  1.66358433e+00  2.82087538e+00  2.14414408e-01
  1.66358433e+00  2.82087538e+00  2.14414408e-01 -8.33019918e-01  2.33900555e+00
 -8.67841825e-02 -8.33019918e-01  2.33900555e+00 -8.67841825e-02 -8.33019918e-01
  2.33900555e+00 -8.67841825e-02 -8.33019918e-01  2.33900555e+00 -8.67841825e-02
 -8.33019918e-01  2.33900555e+00 -8.67841825e-02 -8.33019918e-01  2.33900555e+00
 -8.67841825e-02 -2.12461704e+00 -5.61627460e-02  3.90022840e-01 -2.12461704e+00
 -5.61627460e-02  3.90022840e-01 -2.12461704e+00 -5.61627460e-02  3.90022840e-01
 -2.12461704e+00 -5.61627460e-02  3.90022840e-01 -2.12461704e+00 -5.61627460e-02
  3.90022840e-01 -2.12461704e+00 -5.61627460e-02  3.90022840e-01 -8.60526337e-01
 -2.25809404e+00  3.96982295e-02 -8.60526337e-01 -2.25809404e+00  3.96982295e-02
 -8.60526337e-01 -2.25809404e+00  3.96982295e-02 -8.60526337e-01 -2.25809404e+00
  3.96982295e-02 -8.60526337e-01 -2.25809404e+00  3.96982295e-02 -8.60526337e-01
 -2.25809404e+00  3.96982295e-02  1.63471326e+00 -2.43844020e+00 -3.73549687e-01
  1.63471326e+00 -2.43844020e+00 -3.73549687e-01  1.63471326e+00 -2.43844020e+00
 -3.73549687e-01  1.63471326e+00 -2.43844020e+00 -3.73549687e-01  1.63471326e+00
 -2.43844020e+00 -3.73549687e-01  1.63471326e+00 -2.43844020e+00 -3.73549687e-01
  2.20761293e+00 -7.14187776e-01 -6.26450658e-01  2.20761293e+00 -7.14187776e-01
 -6.26450658e-01  2.20761293e+00 -7.14187776e-01 -6.26450658e-01  2.61859819e+00
  4.32957608e+00 -8.31414303e-01  2.61859819e+00  4.32957608e+00 -8.31414303e-01
  2.61859819e+00  4.32957608e+00 -8.31414303e-01  2.84911085e+00  1.64869907e+00
  1.43818081e+00  2.84911085e+00  1.64869907e+00  1.43818081e+00  2.84911085e+00
  1.64869907e+00  1.43818081e+00 -1.78274526e+00 -4.10189013e+00 -1.47410811e-01
 -1.78274526e+00 -4.10189013e+00 -1.47410811e-01 -1.78274526e+00 -4.10189013e+00
 -1.47410811e-01 -4.19115244e+00 -1.21922777e-01  4.88111417e-01 -4.19115244e+00
 -1.21922777e-01  4.88111417e-01 -4.19115244e+00 -1.21922777e-01  4.88111417e-01
 -1.99130738e+00  3.77718187e+00 -1.02879822e+00 -1.99130738e+00  3.77718187e+00
 -1.02879822e+00 -1.99130738e+00  3.77718187e+00 -1.02879822e+00
Total Energy                               R     -2.312180055455191e+02
Alpha Orbital Energies                     R   N=         100
 -1.91696963e+01 -1.02534259e+01 -1.02099293e+01 -1.01896464e+01 -1.01853295e+01
 -1.06967066e+00 -8.04635455e-01 -7.33492820e-01 -6.25513348e-01 -5.84171790e-01
 -5.02102550e-01 -4.75707053e-01 -4.47537092e-01 -4.15283789e-01 -3.96120294e-01
 -3.80919637e-01 -3.45782281e-01 -2.98578476e-01 -2.18492647e-01 -2.99928492e-02
  5.01868556e-02  6.98185329e-02  9.03919725e-02  1.05748082e-01  1.29222967e-01
  1.40320484e-01  1.70507679e-01  2.29147400e-01  2.95626314e-01  3.20091282e-01
  3.34333194e-01  4.30603695e-01  4.46184792e-01  4.72262183e-01  4.72972665e-01
  4.98878724e-01  5.12433626e-01  5.35422379e-01  5.46886078e-01  5.67195499e-01
  5.81116102e-01  6.15881345e-01  6.33176212e-01  6.52308143e-01  6.74484477e-01
  7.36857595e-01  7.42476179e-01  7.80842723e-01  8.58548435e-01  8.76345949e-01
  9.29107735e-01  9.45833946e-01  9.76979910e-01  1.00363713e+00  1.05544947e+00
  1.07403881e+00  1.08892352e+00  1.11190960e+00  1.15913803e+00  1.19669528e+00
  1.24924190e+00  1.32827100e+00  1.37288002e+00  1.40732410e+00  1.47988549e+00
  1.49345207e+00  1.51485828e+00  1.51907533e+00  1.57038767e+00  1.58890377e+00
  1.61691590e+00  1.64360707e+00  1.69870022e+00  1.70784311e+00  1.72881369e+00
  1.74059360e+00  1.76446870e+00  1.82736194e+00  1.89329937e+00  1.92403057e+00
  1.97757591e+00  2.00812482e+00  2.03665865e+00  2.07803926e+00  2.09739148e+00
  2.17684495e+00  2.22492781e+00  2.31625075e+00  2.38142662e+00  2.39856567e+00
  2.43064361e+00  2.55526943e+00  2.71722825e+00  2.76665292e+00  2.90094369e+00
  2.97683393e+00  3.01943884e+00  3.18668642e+00  3.44243576e+00  3.71202103e+00
Alpha MO coefficients                      R   N=       10000
 -1.57274103e-04 -2.72285588e-04  1.70584521e-03 -9.16658588e-05  2.93788401e-05
  2.22025062e-05 -1.84470839e-04 -1.19149974e-03  9.44073432e-05 -7.71706924e-05
 -3.92808372e-05  5.69685707e-05 -1.32993210e-04  6.02588491e-05  1.78160308e-04
  3.12910964e-04 -4.77257748e-03  3.12219767e-05  7.97970476e-06  8.69729484e-05
  6.05320873e-05  2.46140143e-03 -9.25557885e-04  5.57601532e-05 -1.07782642e-04
  1.04540174e-04 -1.91905120e-06  3.00267810e-05 -1.54514110e-04 -2.13520667e-04
  4.49004676e-03  9.20507782e-05 -2.57082529e-04 -3.98041386e-05  4.27261115e-03
  2.53673875e-03 -6.48421253e-04 -1.33286068e-04 -1.44294906e-04 -2.35784636e-05
  4.28040894e-04 -3.55993705e-04 -2.01675330e-04 -3.53361919e-04 -5.94139950e-03
 -3.30296990e-04  1.66412517e-04  1.21089354e-04 -5.20894204e-03 -1.83505878e-03
  6.54397791e-04  3.66401443e-04 -3.77157598e-05 -1.46374908e-04  7.85443606e-04
 -3.36510249e-04 -1.00409407e+00 -9.39601113e-03  1.39252638e-02  1.04895012e-03
 -1.35367185e-03 -2.50558611e-05 -3.18801252e-03  1.14478434e-03  4.62406431e-04
  3.01891017e-05  1.25114495e-06  8.38864608e-05  1.96985099e-04 -2.27452602e-04
 -2.80318514e-04 -7.59116721e-04 -1.35716995e-04 -1.06545725e-03  1.36003302e-05
 -5.41317599e-05  1.17772833e-04  3.14687334e-05  8.06855599e-05  6.38189437e-06
 -1.84527671e-04 -1.86148401e-04 -2.63584276e-06 -2.32851894e-05 -1.64343925e-05
  4.94675320e-04 -7.81375266e-04  6.04639946e-04  2.06468029e-04 -6.21562470e-05
  1.42541476e-04  1.13026113e-03 -2.15750810e-04 -1.90147886e-04  4.82114371e-05
  5.07115750e-05 -5.66200557e-04 -2.48296659e-05 -7.52784285e-05  4.06558922e-05
 -2.91706970e-04 -3.58355299e-04  1.08813971e-03  1.34606134e-04  9.01213064e-05
  4.94628592e-05 -1.10162473e-03  4.09046092e-04 -4.28490262e-04 -9.78456474e-05
 -1.53860462e-05 -3.86366764e-05  4.31913597e-05 -4.47116842e-05 -4.88564159e-04
 -7.09435360e-04  4.43826411e-03 -9.09875438e-05  2.34025676e-05 -9.67139436e-06
 -2.09562017e-03 -3.66250876e-03  7.51343397e-04 -3.24496021e-04 -1.00446235e-04
 -9.02129125e-05 -3.55062173e-05  9.42351452e-05  4.45323931e-03 -9.54382295e-04
 -1.28697744e-04 -6.27182477e-04  1.30155664e-03  1.95901706e-04 -1.89964089e-03
 -5.45983385e-03  4.36379533e-04  1.07089463e-03  2.88852532e-04 -1.46623404e-04
  3.69038968e-04  9.75332965e-04  1.00590411e+00  1.52871256e-02 -1.16415556e-02
  6.65274180e-04 -3.61514075e-04 -2.88448436e-04  4.57931564e-03 -1.78264478e-03
 -8.29928234e-04 -1.62478243e-03 -3.26982784e-04  4.79680504e-04 -3.33741715e-04
  7.18483395e-05  6.97319360e-04  1.26697070e-03 -4.82688564e-03  3.06548492e-04
 -1.72590898e-04 -4.17452174e-05  3.18798849e-03 -1.12100755e-04 -4.76850748e-04
  7.29886680e-04  3.43590142e-04 -1.93726016e-06 -7.78781683e-04  6.05347646e-05
  6.18065855e-04 -2.70448864e-04 -5.80570376e-04 -1.34171521e-04  8.70087378e-05
 -5.63139869e-05  1.56783460e-04 -1.23081578e-05 -4.27747681e-05  1.93031127e-05
 -1.40611204e-05  6.76245947e-04  2.25495335e-05  4.67982314e-05 -3.15973482e-05
 -2.29396739e-03  2.26009098e-03 -1.44877186e-03 -1.72066749e-03 -1.16931940e-04
 -9.48819477e-05 -2.89409102e-04  3.22801288e-04  2.83055997e-04 -3.54314593e-05
 -8.54891870e-05  4.97258038e-04  1.47515221e-04  1.27155100e-04 -4.11419928e-05
  1.60126484e-02 -1.10683812e-03  4.92220639e-03  1.32562661e-03  2.40751519e-04
  4.34352880e-05 -2.46795990e-03 -1.52212412e-03  4.99866639e-04  8.78158319e-04
 -2.89781229e-04  2.13702059e-05 -1.09285189e-03 -3.19305956e-04  1.00631987e+00
  1.62789146e-02 -1.91939670e-02 -8.16931923e-05  1.78713464e-04 -3.52632116e-04
 -2.21183061e-03  3.08469039e-03 -1.41523250e-03 -7.10878626e-04  6.59994998e-04
 -7.30300617e-04  2.66975283e-04 -1.33000166e-04  5.51142429e-03 -3.93101083e-04
  1.08581909e-03 -4.34530250e-04 -6.33457421e-04  1.35234166e-04  7.07195261e-04
  3.18324411e-03  3.47050517e-04  7.90536306e-04  9.34978166e-05  5.06007586e-04
  9.36946241e-04 -9.44197143e-04 -3.98660419e-04 -7.70602865e-04  3.74091436e-03
 -3.95759511e-05 -2.11157919e-04  1.00321997e-04 -6.25678821e-04  2.62439786e-03
 -5.51921133e-05 -4.12303663e-04 -3.08578255e-04 -6.64133543e-06  2.81227040e-04
 -9.71602647e-05  7.40138056e-05  1.06599506e-04 -1.13226589e-03  1.60089849e-04
 -3.82946461e-05 -1.07771822e-06  1.06238865e-04 -6.35724043e-04  5.10451743e-05
  6.37027554e-05 -5.74502199e-06  2.15153637e-05  1.39892115e-05  3.74282388e-05
  3.07367419e-04  6.18660220e-04 -3.37897684e-04 -6.75405089e-05 -3.85366595e-05
 -2.17592270e-05  9.47529255e-04  1.38484533e-04 -1.05184439e-04  1.67246956e-04
 -2.87719364e-04  4.18729388e-05  4.05274191e-05  1.84117681e-04 -1.69001576e-04
  2.28420143e-05  7.23524140e-04  1.38845244e-04 -8.66175172e-05 -8.71707895e-06
 -1.73858870e-04  3.17596698e-04 -1.81481869e-05 -3.59812487e-04 -4.11737549e-05
 -2.33965830e-03  1.20385310e-03 -1.11632785e-03  1.51199043e-03 -1.02464798e-03
  1.00653572e+00  1.68040726e-02 -1.67117183e-02  3.17491187e-04 -3.06858535e-04
 -1.68065656e-04  2.37779087e-03  1.69780324e-03  7.46636354e-04 -4.50682814e-04
  3.01971689e-04 -1.56017786e-03  5.43830296e-04  3.79447107e-04 -1.71695483e-02
 -1.35100432e-03  1.93676495e-03 -1.31767901e-03 -2.59734722e-04 -2.15351282e-04
  3.15890948e-03  1.94575337e-03 -1.52196686e-04  9.15381193e-04 -4.40308296e-04
  2.18921594e-04 -1.16073787e-03 -7.63255905e-04 -1.63126221e-03 -5.42978640e-04
  3.28460084e-03 -1.17837141e-04  1.46423284e-05 -6.48129541e-05  1.90458235e-03
  2.15310746e-03 -3.82824869e-04 -3.75683938e-04  6.99203704e-05 -2.07993424e-04
 -3.44555256e-04 -1.63200373e-05  1.97158470e-05 -2.05324999e-04 -1.28508160e-03
 -6.93447735e-05 -1.32073742e-04 -5.72486663e-05 -1.41067280e-03 -3.66506013e-04
  2.85912442e-04  5.68790449e-05  1.10942559e-04 -8.44343003e-05 -1.11399807e-04
  1.12245714e-04  1.75700275e-05  5.20335261e-05  4.48921710e-04  1.70031468e-04
  1.02590220e-04 -6.03046281e-05 -9.72929298e-04 -1.43847286e-04  1.51355458e-04
 -7.04183744e-05 -3.39086660e-05 -3.35155238e-05  4.53098613e-05  6.89670274e-05
  4.14837040e-04  2.15139828e-03 -7.86151079e-05  6.60618767e-04  1.03892584e-04
 -2.26112038e-03  1.77454086e-03  9.33590689e-04  1.59997383e-03 -1.29183781e-03
 -1.81591634e-03  1.53632337e-03  1.09799111e-03 -1.37027058e-03  1.38339763e-03
 -6.95094024e-05 -5.06696106e-05  5.19252749e-05  9.06041708e-06 -3.22938579e-05
  1.13193446e-04  6.07623973e-04  9.57662452e-06 -1.18820393e-04  5.07745323e-05
 -3.82861230e-06  3.23225524e-04 -3.91262649e-05 -2.85912580e-04  6.90508543e-05
  9.55649391e-04 -4.32324771e-04  2.44898167e-03  6.53399985e-05  1.11957540e-04
 -6.07390158e-05 -1.96177924e-03 -3.49763503e-04  3.12725687e-04 -2.82508712e-04
  4.53219403e-04 -2.51414456e-04  1.95540305e-04 -4.37521686e-04 -5.85966301e-03
 -6.44123585e-04  3.29823734e-03  2.21919853e-04  6.62265760e-04 -1.51103491e-04
 -2.20589926e-03 -3.48271719e-03 -9.28584539e-05  8.58645059e-04  5.03104175e-04
  4.27765624e-04  5.65232925e-04 -1.17698954e-03  1.00667098e+00  1.67747695e-02
 -2.20835276e-02 -1.83809815e-04 -1.84484409e-04 -4.16568319e-04 -5.04764396e-03
 -1.56339218e-04  1.95502982e-03 -1.08867307e-03 -1.44794258e-04  5.94286882e-05
  5.50286362e-04 -1.65934385e-04 -5.61545472e-03 -1.49789938e-03  6.90613647e-03
  6.60472914e-04 -1.10432400e-03 -1.98297745e-04 -3.16719316e-04  4.09435565e-03
 -1.00716796e-06  8.12283093e-04  2.68303166e-04 -4.06238893e-04  6.77715688e-04
  1.00631467e-03  2.07333173e-05  2.15691207e-05 -9.13538178e-04  5.58263372e-05
 -5.15123175e-05 -2.49523511e-05 -1.12119184e-04 -7.48780641e-04  8.11075580e-05
 -5.60786169e-05 -1.45803992e-05  1.02423248e-05  7.90790708e-05  8.95737225e-05
  2.73841109e-04  2.41413918e-04 -1.43936592e-04 -1.92215789e-04  4.58995229e-05
  1.89062202e-04  5.48815398e-04  1.10973523e-04 -1.62355191e-04  5.39204255e-05
 -6.48198779e-04  4.00220143e-04  1.41653590e-04 -7.01906796e-05  1.25705154e-04
  1.40616958e-04  1.07418253e-03  3.46452192e-04 -1.78897300e-06  3.31839332e-05
 -2.35507081e-03  9.42435515e-04 -2.16535660e-03 -1.26705576e-04 -7.29425065e-05
 -3.50644488e-04  5.83218333e-04  2.20359124e-04  2.44042624e-04  8.13364118e-05
  3.29754496e-04  1.37608379e-02 -5.41693156e-03 -2.73904676e-03 -8.18136117e-03
 -6.72537303e-04  2.78862880e-03  6.57705007e-03 -4.42549118e-03 -2.05513096e-04
 -7.70316619e-04  7.23762815e-04 -6.13493679e-04  9.00623048e-04 -3.94310673e-04
  1.67423198e-02  5.58937803e-03  3.26278341e-03 -1.04528401e-02  8.40401452e-04
  5.39828284e-03  1.79444736e-03  6.38043158e-04 -1.53986898e-03 -2.45184573e-04
 -6.10636255e-04 -1.03798905e-03  4.52110775e-05 -1.55204448e-03  3.74049482e-02
 -1.05497256e-03  2.37895315e-02 -1.70849306e-02 -5.94110560e-03  6.58654908e-03
  1.20598987e-02 -1.27093516e-03 -2.39590443e-03 -1.92755310e-03  1.12624499e-03
  2.80066717e-03 -7.69240539e-03 -1.24348357e-02  1.58727094e-01  8.20413916e-02
  1.30340666e-01  6.71770775e-03 -2.23699393e-02  5.26402125e-03  2.28579745e-02
  9.16138930e-04 -1.17599697e-02 -9.25732418e-03 -1.15453826e-03  2.91154709e-02
 -1.09590057e-04 -6.86742979e-03  4.20380689e-01  3.65028884e-01 -8.53363942e-02
  8.36218214e-02  7.45471256e-03 -3.07942148e-02 -5.00422269e-03  5.08120218e-03
 -6.54389322e-03 -2.74514629e-03 -7.45090331e-04  4.41142449e-03 -1.38500018e-03
  1.72815458e-01  4.79883046e-03 -1.57263019e-02 -3.10576052e-02  6.44283985e-03
  7.61652478e-04 -4.39086789e-03 -2.61637868e-05 -2.58899793e-04 -2.08387923e-05
  1.08075524e-02  6.96696994e-03 -1.44397345e-03 -6.09005450e-04 -1.17667805e-03
  3.49417305e-02  5.07982035e-03  7.89479669e-03  5.41958692e-03 -8.59715071e-05
  5.18304916e-03  2.48215322e-03  5.34240445e-04 -2.06929740e-03 -1.79862741e-04
  1.97333540e-03 -1.25339014e-03 -2.33491897e-04 -4.36660115e-04 -1.10961969e-04
  1.49245384e-02 -1.91138250e-01 -1.04803155e-01  8.46060473e-02  2.81544817e-02
  9.57018398e-03  7.30844291e-03 -2.73262628e-03  8.23925397e-03  6.08297358e-03
 -1.42732139e-03 -3.32317258e-03 -7.55611857e-03 -5.25730189e-03  1.94707805e-02
 -2.79574095e-01 -1.82661598e-01 -3.85555378e-02  4.58712713e-02 -1.25478883e-02
 -2.12819848e-02  2.35917513e-02 -1.21145927e-02  1.10116620e-02  2.47256974e-04
  1.62472676e-03 -2.18143480e-03 -9.82446964e-03  1.79481673e-02 -2.38984205e-01
 -1.40507561e-01 -5.94196370e-02 -1.85087106e-02  2.36600052e-02 -1.73032098e-02
 -1.23541696e-02  9.23151162e-03  8.24109131e-03  2.83942378e-03  2.18942360e-03
  8.45327551e-03 -5.54066623e-03  4.97385873e-03 -1.14870076e-01 -6.19774340e-02
  7.06042543e-02 -8.59111004e-02 -1.40151626e-02  2.39081454e-02 -1.24949134e-02
 -6.30273634e-03  3.09029888e-03 -1.33537042e-03 -1.62685558e-03  1.29722201e-02
  4.82540895e-03  8.21330510e-04  9.79973915e-02  9.37579183e-02  1.86689298e-02
 -1.60980107e-03 -6.02890938e-03  1.36892110e-02 -8.56588920e-03 -2.69985281e-03
  7.69083352e-04  3.82552718e-04 -5.76752320e-04 -8.94756727e-04  2.46567667e-03
  2.39643203e-02  3.70997137e-03  3.70843354e-05 -1.11198894e-02 -5.15393597e-04
 -5.84497667e-02  7.31780018e-04  6.45824059e-03  7.34736656e-03 -4.19673494e-03
 -6.95437402e-02 -2.73970211e-03  7.78210812e-03 -5.14558427e-03  6.62084044e-03
 -2.75644271e-02  1.02839789e-03  2.65697304e-04 -5.01721289e-03 -3.97997505e-04
 -7.75073351e-02 -7.08870088e-03 -1.27393921e-02 -1.41955587e-03  9.34125566e-04
 -9.55146440e-02 -1.27614109e-02 -8.30469632e-03  1.07748872e-02 -6.36553983e-03
  1.59656738e-02 -2.28537791e-01 -1.24522238e-01  4.91728927e-02  1.39675757e-02
  1.12985049e-02 -1.72300082e-04 -2.33721027e-04  3.85752880e-03  4.01551348e-03
 -1.71191247e-03 -2.95647999e-03 -3.98500318e-03  9.85997151e-04  8.33660191e-03
 -1.23112109e-01 -9.98665434e-02 -1.15266902e-01 -7.29521909e-02  6.84180783e-04
 -5.07690860e-02 -9.53634955e-03 -5.36661950e-03  2.57829219e-03 -2.66315076e-03
 -1.82063857e-03 -1.56483282e-02  2.17697513e-03 -1.33181491e-02  2.01419662e-01
  1.33153333e-01  1.53410152e-02 -1.11914262e-01 -1.56279832e-02  2.00022107e-02
 -3.04162485e-02 -2.09849692e-03 -3.23551858e-03 -6.51041668e-04  3.46710583e-03
 -6.58427946e-03 -1.25006469e-02 -1.00203937e-02  2.51810204e-01  1.42864350e-01
 -7.22274022e-02  5.25161029e-02  1.19076246e-02 -2.23533185e-02  8.80870829e-03
  2.16120887e-03 -5.35907503e-03 -1.08722189e-03  1.81403684e-03 -4.05099133e-03
 -1.15815995e-02 -1.97452711e-03 -8.35693833e-02 -7.16134974e-02 -1.08850437e-01
 -6.08843480e-02  2.20860850e-02 -5.10752307e-02 -9.76602718e-03  8.03712039e-03
 -1.46801833e-03 -1.32635990e-03  1.20665958e-03  7.53780491e-03 -4.08804892e-03
 -1.18389333e-01 -2.26417120e-02  3.45079994e-03  9.52171646e-03 -3.63697543e-03
 -9.51292893e-02 -7.81144420e-03  7.13235427e-03  1.07465855e-02 -6.73845062e-03
 -1.02169476e-01 -1.32890874e-02  9.14285333e-03 -6.16626882e-03  9.49884075e-03
  1.07483472e-01  9.64968387e-03  4.33627216e-03  1.39950201e-02  1.55481601e-03
  8.97390602e-02  1.35875858e-02  1.26001681e-02 -2.57819985e-03 -9.22789609e-04
 -5.18462182e-02 -1.19185268e-02 -6.24352605e-03  2.92645719e-03 -3.12352194e-03
  1.09364968e-02 -1.92608918e-01 -1.28474031e-01 -1.95548251e-02 -3.14501723e-02
  6.73990223e-03 -2.18663493e-02  3.29376632e-03 -8.74518131e-03 -1.26824077e-03
 -4.43955110e-04  2.44912483e-04  5.43152627e-04  2.18765890e-03 -2.29624533e-03
  7.75713947e-02  3.80017282e-02 -1.52844073e-01 -9.20372094e-02 -2.40024008e-03
 -5.42646404e-02 -3.95954679e-02  1.55405663e-03 -6.72208395e-04 -3.30482482e-03
 -2.04072710e-03 -1.05553215e-02  1.38128960e-03 -5.65932852e-03  1.54067869e-01
  9.37664028e-02 -1.82042466e-02  1.18718288e-01 -1.43959594e-02  4.89408051e-03
  3.94149321e-02 -2.25435710e-03 -6.22888871e-04 -6.98011877e-04 -4.64528240e-03
 -2.00768025e-03  7.71984358e-03  3.52008003e-03 -2.12680316e-01 -1.36382925e-01
 -4.85057804e-02  1.45435232e-01  1.35401532e-02 -1.60411709e-02  3.19727143e-02
  2.06723053e-05  1.56979962e-03  1.88959558e-03 -2.03871623e-03 -9.73772464e-03
  8.11341265e-03  6.32221729e-04  6.14584319e-02  6.15702375e-02  2.19889966e-01
  1.61561168e-01 -4.77412608e-02  9.94657864e-02  5.30914569e-02 -1.90997493e-02
  1.64276245e-03  2.12863103e-03 -1.21973933e-03 -1.26163292e-02  9.97679914e-04
  1.81825419e-01  3.64533553e-02 -5.50561622e-03 -2.48633147e-02  2.69198246e-03
 -1.25765165e-01 -2.67165698e-02  6.54713365e-03  1.05062136e-02 -7.63467163e-03
 -8.97084711e-02 -3.45004784e-03  6.12224187e-03 -8.93643222e-03  6.89009345e-03
 -1.72335999e-01 -3.35756776e-02 -8.81622061e-03 -1.51556495e-02 -1.89227633e-03
  9.13998491e-02  2.00652414e-02  1.03191861e-02  2.94855891e-03 -8.15869320e-04
  5.39463812e-02  1.03018591e-02  7.23120783e-05 -6.00876685e-03  2.30583148e-03
  5.55114912e-03 -1.27755248e-01 -7.47193664e-02 -1.45929666e-01  4.22729854e-02
 -3.54430249e-02 -5.88655669e-02  1.55510370e-02 -1.15878710e-02 -3.65337497e-03
  2.99232471e-03 -3.68617457e-04  1.25585800e-02  2.64363138e-03 -4.90215694e-03
  2.20624232e-01  1.26758766e-01 -9.95177155e-02  6.57189005e-02 -3.91205665e-02
 -4.26784367e-02  1.27873605e-02 -8.86675065e-03  4.68998643e-03 -1.90614558e-03
 -6.12711440e-04 -1.94194576e-03  1.40818428e-03  1.91917765e-03 -8.01639740e-02
 -2.45422694e-02 -8.95929510e-03  1.81843683e-01 -1.01491973e-02 -1.00360528e-03
  4.26377087e-02 -9.03856383e-03 -1.25478488e-03 -9.72171837e-04 -6.15516758e-03
 -3.72117347e-03  7.02890865e-03  2.48955516e-03 -1.96418292e-02 -1.91329838e-02
  1.65117150e-01 -1.59909768e-01 -4.15915070e-02  5.17901618e-02 -5.56635684e-02
 -1.18571669e-02 -2.53070052e-03 -2.03058009e-03 -3.62991821e-04  1.20465887e-02
 -8.44996900e-03  1.36394978e-03  4.62641141e-02  6.74046462e-02 -1.68717492e-01
 -1.92756110e-01  2.93529875e-02 -6.39072317e-02 -7.90188375e-02  7.12816293e-03
  1.13799455e-03 -6.90327257e-04  5.74164241e-04  1.10170389e-02  5.69068496e-04
 -1.86970586e-01 -4.45769976e-02  3.92200453e-03  9.06425667e-03 -6.34440963e-03
 -8.55192876e-02 -1.83691554e-02  7.41812578e-04  8.38932304e-03 -6.03888917e-03
 -1.68530254e-01 -3.45814797e-02  6.67044867e-03 -5.24181835e-03  1.18947569e-02
  2.82270466e-02  4.44966666e-03  3.43724211e-03  5.35902852e-04 -2.84099483e-04
 -4.31107794e-02 -1.05984778e-02 -5.52532666e-03  3.57525996e-03  1.64899848e-04
  1.94820173e-01  4.06567502e-02  9.90732732e-03 -1.34768509e-02  9.29816258e-03
  1.09332643e-03 -4.50110118e-02 -5.01506666e-02 -9.72199904e-02 -1.19287622e-01
  4.27420633e-02 -1.84065595e-02 -5.13796243e-02  1.51811834e-02 -3.75738445e-03
  1.55824702e-03  2.49076851e-03  6.96168534e-04  4.55680981e-03 -3.03712198e-04
  3.60430880e-02  3.11985908e-02  9.72551005e-02 -1.33049271e-01  5.20926503e-02
  5.85638372e-02 -4.39148942e-02  1.50291804e-02 -1.11262339e-03  1.88025934e-03
  8.66610913e-04 -8.19993296e-03 -9.90198338e-03  4.84835360e-03 -4.77317179e-02