[Molden Format]
[Atoms] (AU)
C    1    6           1.6415228503         3.0053703391         0.3018198332
C    2    6          -0.7916396783         2.4108498766        -0.1712241206
C    3    6          -2.0440848076        -0.0094289528         0.2925407866
C    4    6          -0.8889098724        -2.2794340962         0.1033052187
O    5    8           1.5810238542        -2.6819205142        -0.4072729101
H    6    1           2.3543237465        -1.0337845166        -0.7071303053
H    7    1           2.4266374615         4.8277578504        -0.2638537142
H    8    1           2.9022366084         1.7528331235         1.3608436322
H    9    1          -1.9205674703        -4.0615135225         0.2689147692
H   10    1          -4.0835899076        -0.0137751717         0.6199270128
H   11    1          -1.9677844696         3.8556010008        -1.0832361088
[GTO]
  1 0
 s    8  1.00
     6665.0000000000         0.0006920000
     1000.0000000000         0.0053290000
      228.0000000000         0.0270770000
       64.7100000000         0.1017180000
       21.0600000000         0.2747400000
        7.4950000000         0.4485640000
        2.7970000000         0.2850740000
        0.5215000000         0.0152040000
 s    8  1.00
     6665.0000000000        -0.0001460000
     1000.0000000000        -0.0011540000
      228.0000000000        -0.0057250000
       64.7100000000        -0.0233120000
       21.0600000000        -0.0639550000
        7.4950000000        -0.1499810000
        2.7970000000        -0.1272620000
        0.5215000000         0.5445290000
 s    1  1.00
        0.1596000000         1.0000000000
 p    3  1.00
        9.4390000000         0.0381090000
        2.0020000000         0.2094800000
        0.5456000000         0.5085570000
 p    1  1.00
        0.1517000000         1.0000000000
 d    1  1.00
        0.5500000000         1.0000000000

  2 0
 s    8  1.00
     6665.0000000000         0.0006920000
     1000.0000000000         0.0053290000
      228.0000000000         0.0270770000
       64.7100000000         0.1017180000
       21.0600000000         0.2747400000
        7.4950000000         0.4485640000
        2.7970000000         0.2850740000
        0.5215000000         0.0152040000
 s    8  1.00
     6665.0000000000        -0.0001460000
     1000.0000000000        -0.0011540000
      228.0000000000        -0.0057250000
       64.7100000000        -0.0233120000
       21.0600000000        -0.0639550000
        7.4950000000        -0.1499810000
        2.7970000000        -0.1272620000
        0.5215000000         0.5445290000
 s    1  1.00
        0.1596000000         1.0000000000
 p    3  1.00
        9.4390000000         0.0381090000
        2.0020000000         0.2094800000
        0.5456000000         0.5085570000
 p    1  1.00
        0.1517000000         1.0000000000
 d    1  1.00
        0.5500000000         1.0000000000

  3 0
 s    8  1.00
     6665.0000000000         0.0006920000
     1000.0000000000         0.0053290000
      228.0000000000         0.0270770000
       64.7100000000         0.1017180000
       21.0600000000         0.2747400000
        7.4950000000         0.4485640000
        2.7970000000         0.2850740000
        0.5215000000         0.0152040000
 s    8  1.00
     6665.0000000000        -0.0001460000
     1000.0000000000        -0.0011540000
      228.0000000000        -0.0057250000
       64.7100000000        -0.0233120000
       21.0600000000        -0.0639550000
        7.4950000000        -0.1499810000
        2.7970000000        -0.1272620000
        0.5215000000         0.5445290000
 s    1  1.00
        0.1596000000         1.0000000000
 p    3  1.00
        9.4390000000         0.0381090000
        2.0020000000         0.2094800000
        0.5456000000         0.5085570000
 p    1  1.00
        0.1517000000         1.0000000000
 d    1  1.00
        0.5500000000         1.0000000000

  4 0
 s    8  1.00
     6665.0000000000         0.0006920000
     1000.0000000000         0.0053290000
      228.0000000000         0.0270770000
       64.7100000000         0.1017180000
       21.0600000000         0.2747400000
        7.4950000000         0.4485640000
        2.7970000000         0.2850740000
        0.5215000000         0.0152040000
 s    8  1.00
     6665.0000000000        -0.0001460000
     1000.0000000000        -0.0011540000
      228.0000000000        -0.0057250000
       64.7100000000        -0.0233120000
       21.0600000000        -0.0639550000
        7.4950000000        -0.1499810000
        2.7970000000        -0.1272620000
        0.5215000000         0.5445290000
 s    1  1.00
        0.1596000000         1.0000000000
 p    3  1.00
        9.4390000000         0.0381090000
        2.0020000000         0.2094800000
        0.5456000000         0.5085570000
 p    1  1.00
        0.1517000000         1.0000000000
 d    1  1.00
        0.5500000000         1.0000000000

  5 0
 s    8  1.00
    11720.0000000000         0.0007100000
     1759.0000000000         0.0054700000
      400.8000000000         0.0278370000
      113.7000000000         0.1048000000
       37.0300000000         0.2830620000
       13.2700000000         0.4487190000
        5.0250000000         0.2709520000
        1.0130000000         0.0154580000
 s    8  1.00
    11720.0000000000        -0.0001600000
     1759.0000000000        -0.0012630000
      400.8000000000        -0.0062670000
      113.7000000000        -0.0257160000
       37.0300000000        -0.0709240000
       13.2700000000        -0.1654110000
        5.0250000000        -0.1169550000
        1.0130000000         0.5573680000
 s    1  1.00
        0.3023000000         1.0000000000
 p    3  1.00
       17.7000000000         0.0430180000
        3.8540000000         0.2289130000
        1.0460000000         0.5087280000
 p    1  1.00
        0.2753000000         1.0000000000
 d    1  1.00
        1.1850000000         1.0000000000

  6 0
 s    3  1.00
       13.0100000000         0.0196850000
        1.9620000000         0.1379770000
        0.4446000000         0.4781480000
 s    1  1.00
        0.1220000000         1.0000000000
 p    1  1.00
        0.7270000000         1.0000000000

  7 0
 s    3  1.00
       13.0100000000         0.0196850000
        1.9620000000         0.1379770000
        0.4446000000         0.4781480000
 s    1  1.00
        0.1220000000         1.0000000000
 p    1  1.00
        0.7270000000         1.0000000000

  8 0
 s    3  1.00
       13.0100000000         0.0196850000
        1.9620000000         0.1379770000
        0.4446000000         0.4781480000
 s    1  1.00
        0.1220000000         1.0000000000
 p    1  1.00
        0.7270000000         1.0000000000

  9 0
 s    3  1.00
       13.0100000000         0.0196850000
        1.9620000000         0.1379770000
        0.4446000000         0.4781480000
 s    1  1.00
        0.1220000000         1.0000000000
 p    1  1.00
        0.7270000000         1.0000000000

  10 0
 s    3  1.00
       13.0100000000         0.0196850000
        1.9620000000         0.1379770000
        0.4446000000         0.4781480000
 s    1  1.00
        0.1220000000         1.0000000000
 p    1  1.00
        0.7270000000         1.0000000000

  11 0
 s    3  1.00
       13.0100000000         0.0196850000
        1.9620000000         0.1379770000
        0.4446000000         0.4781480000
 s    1  1.00
        0.1220000000         1.0000000000
 p    1  1.00
        0.7270000000         1.0000000000

[5D7F]
[9G]

[MO]
 Sym= A
 Ene=        -1.9174600466e+01
 Spin= Alpha
 Occup=         2.0000000000e+00
  1        -7.8684480998e-05
  2        -1.3541869805e-04
  3         1.2166597498e-03
  4        -1.0254334247e-04
  5         7.4928939918e-05
  6         2.3260239645e-05
  7        -2.4333913741e-04
  8        -1.3464014121e-03
  9         1.5966654363e-04
 10        -7.0789178875e-05
 11         1.2214927355e-05
 12         4.2484669195e-05
 13        -5.0355893367e-05
 14         7.5724411895e-05
 15         2.1130719915e-04
 16         3.6375765707e-04
 17        -5.5855151520e-03
 18        -5.6750916552e-06
 19         5.8222246228e-06
 20         6.5196866462e-05
 21         2.2981387777e-04
 22         2.9595840990e-03
 23        -9.0052815232e-04
 24         6.6753790595e-05
 25        -1.2662127944e-04
 26         1.0347713557e-04
 27        -6.4250401297e-06
 28         2.2330143216e-05
 29        -1.9249000037e-04
 30        -2.8108029210e-04
 31         4.7658278248e-03
 32         5.1507814331e-05
 33        -2.6671794495e-04
 34         6.4589033750e-06
 35         4.6531624516e-03
 36         3.1395053847e-03
 37        -1.0687101845e-03
 38        -1.5910406088e-04
 39        -1.4231398841e-04
 40         6.5606017435e-05
 41         3.9117060375e-04
 42        -3.9754231953e-04
 43        -1.9859880931e-04
 44        -3.6202616800e-04
 45        -5.6777443584e-03
 46        -3.2947882786e-04
 47         2.1911943404e-04
 48         9.9262083175e-05
 49        -5.8759025045e-03
 50        -1.4561833969e-03
 51         1.2084663160e-03
 52         4.0274879518e-04
 53         4.8434213523e-06
 54         7.0676128258e-05
 55         7.0798338075e-04
 56        -4.0231360494e-04
 57        -1.0040824663e+00
 58        -9.3560019695e-03
 59         1.4051855104e-02
 60         8.9416218607e-04
 61        -1.4526687259e-03
 62        -5.5670081050e-05
 63        -3.2351196310e-03
 64         1.4213867664e-03
 65         6.0563247871e-04
 66         2.0166263634e-05
 67         1.7567578521e-06
 68         8.4158861675e-05
 69         1.4996703927e-04
 70        -2.6244130807e-04
 71        -2.5795420838e-04
 72        -3.2839602586e-04
 73        -2.2798428720e-04
 74        -9.7923417446e-04
 75         6.2174224519e-05
 76         5.4256036869e-05
 77         2.9717081224e-04
 78         3.7237704849e-05
 79         6.2390075331e-05
 80         7.2986891044e-06
 81        -2.3190810772e-04
 82        -2.0006936403e-04
 83         3.2534351798e-06
 84        -2.5069412518e-05
 85        -1.2852063344e-05
 86         4.0219724481e-04
 87        -8.9666553191e-04
 88         6.3517325398e-04
 89         1.4378962341e-04
 90        -1.2644518185e-04
 91         1.6828459611e-04
 92         1.2534615321e-03
 93        -2.2564869218e-04
 94        -2.0789947536e-04
 95         6.3415477964e-05
 96         9.0015325535e-05
 97        -6.1098112984e-04
 98        -3.4858981000e-05
 99        -1.0841263528e-04
100         2.9039919064e-05
 Sym= A
 Ene=        -1.0250540809e+01
 Spin= Alpha
 Occup=         2.0000000000e+00
  1        -2.8028722233e-04
  2        -3.4393390964e-04
  3         1.1148529239e-03
  4         1.4503533545e-04
  5         8.0138504156e-05
  6         7.2592600612e-05
  7        -1.2762613357e-03
  8         4.9008343643e-04
  9        -6.3799683483e-04
 10        -7.5792887283e-05
 11        -1.6225290903e-05
 12        -2.9494421989e-05
 13         5.4745900861e-05
 14        -3.7727196559e-05
 15        -4.9271580145e-04
 16        -7.0549036179e-04
 17         4.8670278403e-03
 18        -1.1862761260e-04
 19         1.2770977178e-05
 20         2.2951790306e-06
 21        -2.3988736907e-03
 22        -4.1484574593e-03
 23         7.6274535275e-04
 24        -3.5209406115e-04
 25        -9.7943144433e-05
 26        -1.0499364496e-04
 27         6.3003917077e-06
 28         1.8561785681e-04
 29         4.6206908933e-03
 30        -1.0088366983e-03
 31         1.5064288833e-04
 32        -5.7660874686e-04
 33         1.3543412704e-03
 34         9.6503213682e-05
 35        -1.9568180075e-03
 36        -6.4815072326e-03
 37         7.7300796261e-04
 38         1.0748264195e-03
 39         2.4043567156e-04
 40        -5.3644238974e-05
 41         5.7138048671e-04
 42         9.0229183607e-04
 43         1.0059154372e+00
 44         1.5300964528e-02
 45        -1.2575611683e-02
 46         5.6466597105e-04
 47        -4.6644959687e-04
 48        -1.7802746926e-04
 49         5.0680061263e-03
 50        -2.3790570593e-03
 51        -1.0150300752e-03
 52        -1.6326274688e-03
 53        -5.0822731597e-04
 54         3.7113264411e-05
 55        -3.1147073617e-04
 56        -1.9422829666e-05
 57         7.2197677101e-04
 58         1.3030715143e-03
 59        -4.9413768191e-03
 60         2.6471694221e-04
 61        -2.0819139756e-04
 62        -3.4595443843e-05
 63         3.2617447356e-03
 64        -2.6730222850e-04
 65        -6.9357335219e-04
 66         6.9643235010e-04
 67         4.3082166137e-04
 68        -1.7051112594e-05
 69        -7.6574393223e-04
 70         1.9984183439e-04
 71         5.2372536780e-04
 72        -4.3768326096e-04
 73        -6.2443247033e-04
 74        -2.6814354033e-05
 75         1.1865040610e-04
 76        -5.4228159520e-05
 77         1.7060579166e-04
 78        -2.5868572896e-05
 79        -5.4788365002e-05
 80         3.0772378333e-05
 81         5.8482129361e-06
 82         9.3755110172e-04
 83         1.0689553020e-05
 84         6.3675006152e-05
 85        -2.9378528911e-05
 86        -2.1600172739e-03
 87         2.3254096256e-03
 88        -1.5356081522e-03
 89        -1.5916228688e-03
 90         2.6358870264e-04
 91        -1.4286430570e-04
 92        -2.6834287381e-04
 93         3.0145951999e-04
 94         2.9281825094e-04
 95        -7.4227077376e-05
 96        -5.5010906564e-05
 97         5.5019144194e-04
 98         1.7165798954e-04
 99         1.3087199631e-04
100        -3.2035781668e-05
 Sym= A
 Ene=        -1.0206019669e+01
 Spin= Alpha
 Occup=         2.0000000000e+00
  1         2.1888884195e-02
  2        -1.1337062827e-03
  3         4.7943265323e-03
  4         1.3308316904e-03
  5         3.3883708254e-04
  6         1.6626221479e-04
  7        -2.0816131468e-03
  8        -1.8118136424e-03
  9         3.8379088048e-04
 10         7.6116303507e-04
 11        -5.4657679439e-04
 12        -2.9271515712e-05
 13        -1.0651268121e-03
 14        -4.0173535236e-04
 15         1.0061954900e+00
 16         1.6276338874e-02
 17        -1.9224972219e-02
 18        -1.2487604670e-04
 19         2.1248115729e-04
 20        -2.4354435380e-04
 21        -1.7133457842e-03
 22         3.1971407581e-03
 23        -1.7617887656e-03
 24        -7.6289745444e-04
 25         6.9677698006e-04
 26        -6.4643688700e-04
 27         2.2787412514e-04
 28        -3.2709768677e-05
 29         5.6550342544e-03
 30        -4.3886134812e-04
 31         1.0715531184e-03
 32        -4.6440271291e-04
 33        -6.2844339526e-04
 34         1.4514042046e-04
 35         7.5086921567e-04
 36         3.8878000752e-03
 37         2.8134200486e-04
 38         7.9908736740e-04
 39         4.1284384951e-05
 40         5.8659600769e-04
 41         1.0965469913e-03
 42        -9.5676378329e-04
 43        -3.5874353188e-04
 44        -7.0427089904e-04
 45         4.1533784167e-03
 46        -1.0551859831e-04
 47        -1.6177981929e-04
 48         1.2920915055e-04
 49        -6.2008654714e-04
 50         2.8067790865e-03
 51        -2.6824260244e-04
 52        -4.3070834387e-04
 53        -3.1775832642e-04
 54         6.1237737639e-05
 55         4.0747868179e-04
 56        -3.1051481114e-04
 57         9.0342507043e-05
 58         1.3277514306e-04
 59        -1.2321535002e-03
 60         1.6379311668e-04
 61        -3.9916910024e-05
 62        -2.6493584752e-05
 63         1.3385208870e-04
 64        -6.9616872012e-04
 65         8.9761167129e-05
 66         8.3707616397e-05
 67         2.4662879225e-05
 68         1.9461663525e-05
 69        -1.4501135402e-05
 70         1.7884176748e-05
 71         2.9342068120e-04
 72         6.1021059861e-04
 73        -2.7706253219e-04
 74        -8.1086938544e-05
 75        -1.7870955883e-05
 76        -4.9728015448e-05
 77         9.0069072883e-04
 78         1.4435055426e-04
 79        -1.1537565181e-04
 80         7.6954543464e-05
 81        -2.5930202478e-04
 82        -2.1270273091e-04
 83         3.8361651411e-05
 84         2.4594824540e-04
 85        -1.1457101452e-04
 86         9.8510517103e-05
 87         8.0328876709e-04
 88         1.7993007622e-04
 89        -5.7110968625e-05
 90         2.0658683333e-06
 91        -2.9550125521e-04
 92         4.0409136720e-04
 93        -6.9990265245e-05
 94        -3.8474607946e-04
 95        -5.7952271168e-05
 96        -2.2963747154e-03
 97         1.1967627586e-03
 98        -1.1576278823e-03
 99         1.5160896420e-03
100        -9.3187431906e-04
 Sym= A
 Ene=        -1.0190354797e+01
 Spin= Alpha
 Occup=         2.0000000000e+00
  1         1.0061933784e+00
  2         1.6374027387e-02
  3        -1.5225679641e-02
  4         2.8001859593e-04
  5        -4.5802110074e-05
  6         3.4758951041e-05
  7         2.1873529329e-03
  8         7.1984138431e-04
  9         7.3697163548e-04
 10        -1.0434974859e-03
 11         7.4362349348e-04
 12        -1.1797322085e-03
 13         6.2185311738e-05
 14         3.3472345673e-04
 15        -2.3117882795e-02
 16        -1.4515935090e-03
 17         9.5145784626e-04
 18        -1.3447823007e-03
 19        -3.3450609383e-04
 20        -2.7650200460e-04
 21         2.8953220572e-03
 22         2.5051916239e-03
 23        -4.9981541237e-05
 24         1.0050615658e-03
 25        -5.8576452590e-04
 26         1.8517901484e-04
 27        -9.9751323959e-04
 28        -7.7607772916e-04
 29        -1.0935216345e-03
 30        -5.2105356712e-04
 31         3.5333766663e-03
 32        -8.4368608642e-05
 33         5.4229570704e-05
 34        -6.7083594955e-05
 35         1.9502296654e-03
 36         2.4735060690e-03
 37        -5.0686040430e-04
 38        -3.7487384124e-04
 39         7.5263798489e-05
 40        -2.4686873241e-04
 41        -3.3747212615e-04
 42         3.2703116695e-05
 43         1.0999526896e-05
 44        -2.0599749708e-04
 45        -6.4743650977e-04
 46         3.9545538845e-07
 47        -1.3432004195e-04
 48        -5.2133910854e-05
 49        -1.3173118134e-03
 50        -1.6155149854e-04
 51         3.0291257641e-04
 52         5.9535081686e-05
 53         9.8792285818e-05
 54        -9.0005999742e-05
 55        -4.6289704016e-05
 56         1.0576284595e-04
 57         1.0465102402e-05
 58         3.4203390137e-05
 59         4.1004504865e-04
 60         1.1966652999e-04
 61         6.6849071749e-05
 62        -3.8582638371e-05
 63        -6.6474691560e-04
 64        -1.6933581768e-04
 65         1.0381886217e-04
 66        -3.0779794766e-05
 67        -3.3891999976e-05
 68        -2.7855726098e-05
 69         7.8870103048e-05
 70         5.4633547209e-05
 71         1.6579247635e-04
 72         1.2820515513e-03
 73        -1.2048842252e-04
 74         4.2258306087e-04
 75         8.8989211818e-05
 76        -2.3148369932e-03
 77         1.8985643291e-03
 78         7.4563442428e-04
 79         2.0223559608e-03
 80        -6.9780824107e-04
 81        -2.1391391995e-03
 82         1.4927499903e-03
 83         1.2197118128e-03
 84        -1.4858690672e-03
 85         1.2251153923e-03
 86        -8.1286593395e-05
 87        -3.5093636284e-05
 88         3.9779912871e-05
 89         2.0253174968e-05
 90        -1.9706890976e-05
 91         1.0940008061e-04
 92         5.8176203739e-04
 93         1.1427674708e-05
 94        -1.3166597387e-04
 95         4.4621315650e-05
 96         7.8962798689e-05
 97         2.4482537393e-04
 98         1.8747438238e-05
 99        -3.1700831437e-04
100         1.0594609434e-04
 Sym= A
 Ene=        -1.0182656280e+01
 Spin= Alpha
 Occup=         2.0000000000e+00
  1         3.7261769321e-04
  2        -4.5272913780e-04
  3         2.8401108338e-03
  4         7.3052091421e-05
  5         1.0512482138e-04
  6        -8.6078101748e-05
  7        -2.1109831248e-03
  8        -4.3380854609e-04
  9        -4.7986874704e-05
 10        -2.5406316517e-04
 11         5.2433366416e-04
 12        -3.0635859648e-04
 13         2.7472481669e-04
 14        -4.8018655412e-04
 15        -6.0405207965e-03
 16        -6.9132596469e-04
 17         2.9979724140e-03
 18         2.1326486146e-04
 19         7.0203172386e-04
 20        -1.7847560674e-04
 21        -2.1173756912e-03
 22        -3.8681281538e-03
 23        -4.7875292550e-05
 24         9.0509105258e-04
 25         4.9589567112e-04
 26         3.6328211925e-04
 27         5.5902161763e-04
 28        -1.3118939308e-03
 29         1.0066432871e+00
 30         1.6740879078e-02
 31        -2.1881023199e-02
 32        -2.1954427861e-04
 33        -1.5664001503e-04
 34        -1.2076558201e-04
 35        -5.1452710416e-03
 36        -2.5746315941e-04
 37         1.5896944284e-03
 38        -1.0779673608e-03
 39        -3.8118177440e-04
 40        -6.6088842515e-06
 41         2.8292335418e-04
 42        -2.1067630301e-04
 43        -5.8748376888e-03
 44        -1.5967172216e-03
 45         6.7494874224e-03
 46         6.3929200125e-04
 47        -1.2357193017e-03
 48        -9.2942098026e-05
 49         3.0908356578e-04
 50         4.2039547114e-03
 51        -3.4624078613e-04
 52         8.4151386076e-04
 53         1.6128751206e-04
 54        -2.0810057729e-04
 55         6.9984852157e-04
 56         1.0175360491e-03
 57         3.4754075066e-05
 58         4.9389578421e-05
 59        -9.6353338647e-04
 60         2.7839177657e-05
 61        -5.8398195271e-05
 62        -2.6380504573e-06
 63        -1.0585357986e-04
 64        -7.0851577082e-04
 65         7.1653860882e-05
 66        -5.7501555852e-05
 67        -4.1545166138e-05
 68        -1.0047955596e-05
 69         9.7166554940e-05
 70         8.1823667706e-05
 71         2.7204822828e-04
 72         3.6255391540e-05
 73        -1.3709489228e-04
 74        -1.6281837703e-04
 75         2.4293468105e-05
 76         1.1118611866e-04
 77         5.1422302400e-04
 78         1.4134795876e-04
 79        -1.4571731628e-04
 80         5.0974331492e-05
 81        -7.0611908161e-04
 82         5.0769960027e-04
 83         1.9265738757e-04
 84        -1.2127980382e-04
 85         1.2132485491e-04
 86         1.4538510598e-04
 87         1.2138943166e-03
 88         2.8499371636e-04
 89        -2.2106472428e-05
 90        -1.7448540344e-05
 91        -2.3713118158e-03
 92         8.3182029398e-04
 93        -2.1152563733e-03
 94        -5.6319626316e-05
 95         2.6439918138e-04
 96        -3.3309280322e-04
 97         6.9572073449e-04
 98         2.0602015660e-04
 99         2.8817711697e-04
100         7.3243699397e-05
 Sym= A
 Ene=        -1.0651756125e+00
 Spin= Alpha
 Occup=         2.0000000000e+00
  1         1.4107624515e-04
  2         8.3960728156e-03
  3        -4.3719224059e-03
  4        -1.8902667717e-03
  5        -5.0720723804e-03
  6        -6.7151789574e-04
  7         2.6066246793e-03
  8         5.1778256444e-03
  9        -1.9189997837e-03
 10        -2.5661733523e-04
 11        -5.6432725689e-04
 12         7.0254089481e-04
 13        -8.1459530100e-04
 14         9.7620920121e-04
 15        -8.8745915219e-05
 16         1.3108367827e-02
 17         1.9489500097e-03
 18         1.5329064064e-03
 19        -8.6292553080e-03
 20         9.7283527334e-04
 21         5.9250261074e-03
 22         3.2293652720e-03
 23         1.4111144578e-04
 24        -1.3811414105e-03
 25        -1.5929083093e-04
 26        -4.2890477315e-04
 27        -1.3206304546e-03
 28         4.2994876999e-04
 29        -1.3200864672e-03
 30         3.5086169090e-02
 31        -4.3459875392e-03
 32         2.1168003693e-02
 33        -1.8058621416e-02
 34        -4.3004541260e-03
 35         5.4020857579e-03
 36         1.5056313655e-02
 37        -2.0477227266e-03
 38        -2.2252099458e-03
 39        -1.1107869025e-03
 40         1.5433554817e-03
 41         2.2023042423e-03
 42        -8.0583461207e-03
 43        -1.2698953692e-02
 44         1.5403564632e-01
 45         8.5167369088e-02
 46         1.2592444259e-01
 47        -5.8185045673e-03
 48        -2.7105502666e-02
 49         5.0015508145e-03
 50         2.3975757204e-02
 51        -1.2609116859e-03
 52        -1.1083083913e-02
 53        -1.0774831352e-02
 54         9.3294888885e-04
 55         2.8344520213e-02
 56        -4.9465000042e-03
 57        -6.6837754164e-03
 58         4.2402396008e-01
 59         3.7285051325e-01
 60        -7.3089838396e-02
 61         9.0421178438e-02
 62         8.8992728806e-03
 63        -3.1096586468e-02
 64        -1.6201343145e-03
 65         6.7575894094e-03
 66        -6.3465906746e-03
 67        -3.3485974827e-03
 68        -3.7982288548e-04
 69         3.9451902573e-03
 70        -1.8445580900e-03
 71         1.7138657378e-01
 72         4.9270625404e-03
 73        -1.8771845679e-02
 74        -2.9782426527e-02
 75         6.9985029518e-03
 76         1.4561980772e-05
 77        -3.9290812038e-03
 78         5.7208178843e-05
 79         1.1059516908e-04
 80        -1.6210350411e-04
 81         7.4488132756e-03
 82         4.6253210003e-03
 83        -1.1416222161e-03
 84        -6.5066627909e-04
 85        -9.2233475962e-04
 86         3.4329410705e-02
 87         5.3400226814e-03
 88         8.2797588899e-03
 89         4.4956796736e-03
 90        -1.5188993478e-03
 91         5.0540976968e-03
 92         1.9972436820e-03
 93         4.1916221340e-04
 94        -2.2876505174e-03
 95         8.3423082870e-06
 96         1.6279514145e-03
 97        -1.1703697159e-03
 98        -3.0202636481e-04
 99        -4.4710498329e-04
100        -8.5951069965e-05
 Sym= A
 Ene=        -8.0200893608e-01
 Spin= Alpha
 Occup=         2.0000000000e+00
  1         1.4799400384e-02
  2        -1.9222694147e-01
  3        -1.0407684633e-01
  4         8.3080193874e-02
  5         2.9164190700e-02
  6         1.3907487579e-02
  7         8.6521069069e-03
  8        -2.9129437917e-03
  9         8.2687052526e-03
 10         4.8143192142e-03
 11        -2.2988782642e-03
 12        -3.3335972465e-03
 13        -7.8145107079e-03
 14        -5.9995034068e-03
 15         1.9429184957e-02
 16        -2.7800477073e-01
 17        -1.7822291683e-01
 18        -3.8000867151e-02
 19         4.0161569969e-02
 20        -1.9196266181e-02
 21        -1.8835810439e-02
 22         2.0865877521e-02
 23        -1.3792733790e-02
 24         1.0446724888e-02
 25        -8.6491434728e-04
 26         1.3103050091e-03
 27        -1.5305325206e-03
 28        -1.0994114249e-02
 29         1.8153087585e-02
 30        -2.4100026844e-01
 31        -1.4216114922e-01
 32        -5.4651225756e-02
 33        -1.5719313344e-02
 34         1.5487953004e-02
 35        -1.9028501358e-02
 36        -1.1829354233e-02
 37         9.5241084154e-03
 38         8.6532175417e-03
 39         1.7445244434e-03
 40         2.6146365250e-03
 41         9.4893724314e-03
 42        -5.3153786016e-03
 43         5.4861825770e-03
 44        -1.2417523350e-01
 45        -6.6747029885e-02
 46         6.0731975366e-02
 47        -8.5512878981e-02
 48        -1.0037521581e-02
 49         2.3216044816e-02
 50        -1.2695492615e-02
 51        -6.6495651406e-03
 52         3.3635727151e-03
 53        -1.6584030729e-03
 54        -5.0986779824e-04
 55         1.2096268833e-02
 56         4.0814603513e-03
 57         1.0993193317e-03
 58         8.7999640047e-02
 59         8.1165180213e-02
 60         2.6548304951e-02
 61         2.2779348651e-03
 62        -7.3607475874e-03
 63         1.6236553436e-02
 64        -7.8558307383e-03
 65        -3.3057270895e-03
 66         7.9271960971e-04
 67         3.9571145094e-04
 68        -6.9762544022e-04
 69        -1.0533831985e-03
 70         2.9054988159e-03
 71         3.3625844048e-02
 72         3.7229412250e-03
 73        -1.9460674017e-03
 74        -9.1190997120e-03
 75         2.9848569446e-04
 76        -5.9871508288e-02
 77        -5.6062012919e-04
 78         5.8639741938e-03
 79         8.8473763154e-03
 80        -2.1440340101e-03
 81        -6.9321300966e-02
 82        -4.6803955203e-03
 83         8.1773777849e-03
 84        -5.5413506763e-03
 85         5.8452616011e-03
 86        -3.3084933508e-02
 87         1.0178955251e-03
 88        -5.0846834397e-04
 89        -5.8405261496e-03
 90         2.2367193890e-04
 91        -8.1056193832e-02
 92        -8.4453794541e-03
 93        -1.3045342809e-02
 94        -9.3138359114e-04
 95         2.0169366646e-03
 96        -9.5504361436e-02
 97        -1.2288963259e-02
 98        -8.5178370061e-03
 99         1.0819579864e-02
100        -6.3220550130e-03
 Sym= A
 Ene=        -7.3147646206e-01
 Spin= Alpha
 Occup=         2.0000000000e+00
  1         1.6345338140e-02
  2        -2.2710147207e-01
  3        -1.2669155888e-01
  4         5.4322265787e-02
  5         8.9170718711e-03
  6         1.3813024193e-02
  7         2.7771541834e-03
  8         1.1423266859e-03
  9         2.8363628625e-03
 10         3.0927440040e-03
 11        -2.5858062329e-03
 12        -2.2488542644e-03
 13        -5.4759460069e-03
 14         5.1201609761e-05
 15         8.8683529172e-03
 16        -1.3433379455e-01
 17        -1.0087050052e-01
 18        -1.0956647641e-01
 19        -7.6923834113e-02
 20        -6.7987267519e-03
 21        -4.7702636244e-02
 22        -1.2818236836e-02
 23        -6.5401100353e-03
 24         2.3481363043e-03
 25        -4.1738174388e-03
 26        -2.6085675654e-03
 27        -1.4520249803e-02
 28         3.3831567658e-04
 29        -1.3334471795e-02
 30         1.9882673708e-01
 31         1.2967479777e-01
 32         1.0100397128e-02
 33        -1.1983977098e-01
 34        -4.6514506075e-03
 35         1.8472820973e-02
 36        -3.3684841468e-02
 37        -1.3373994145e-04
 38        -3.3778894169e-03
 39         1.7972879577e-04
 40         1.9891076129e-03
 41        -6.8484270728e-03
 42        -1.2108545342e-02
 43        -1.0031944346e-02
 44         2.5168178963e-01
 45         1.4015357638e-01
 46        -7.3304320133e-02
 47         5.9483153986e-02
 48         1.1410883535e-02
 49        -2.2386420194e-02
 50         1.0072576693e-02
 51         2.5713108138e-03