[Molden Format]
[Atoms] (AU)
C    1    6           1.9660485315         2.6248404346        -0.2026488459
C    2    6          -0.8574238136         2.4004846279        -0.1423385200
C    3    6          -2.1034538140         0.1886863751         0.1417342385
C    4    6          -0.8625576137        -2.3076906294         0.0757478179
O    5    8           1.4091041014        -2.7036600622         0.1374593379
H    6    1           2.8011289376         1.0218541705        -1.2126311717
H    7    1           2.6267493193         4.4377077703        -0.9797693486
H    8    1           2.6899827680         2.4535744236         1.7574796311
H    9    1          -2.2170362374        -3.9181277246        -0.1554131005
H   10    1          -4.1678257824         0.1725677671         0.2733162466
H   11    1          -1.9809183028         4.1364068133        -0.3463778245
[GTO]
  1 0
 s    8  1.00
     6665.0000000000         0.0006920000
     1000.0000000000         0.0053290000
      228.0000000000         0.0270770000
       64.7100000000         0.1017180000
       21.0600000000         0.2747400000
        7.4950000000         0.4485640000
        2.7970000000         0.2850740000
        0.5215000000         0.0152040000
 s    8  1.00
     6665.0000000000        -0.0001460000
     1000.0000000000        -0.0011540000
      228.0000000000        -0.0057250000
       64.7100000000        -0.0233120000
       21.0600000000        -0.0639550000
        7.4950000000        -0.1499810000
        2.7970000000        -0.1272620000
        0.5215000000         0.5445290000
 s    1  1.00
        0.1596000000         1.0000000000
 p    3  1.00
        9.4390000000         0.0381090000
        2.0020000000         0.2094800000
        0.5456000000         0.5085570000
 p    1  1.00
        0.1517000000         1.0000000000
 d    1  1.00
        0.5500000000         1.0000000000

  2 0
 s    8  1.00
     6665.0000000000         0.0006920000
     1000.0000000000         0.0053290000
      228.0000000000         0.0270770000
       64.7100000000         0.1017180000
       21.0600000000         0.2747400000
        7.4950000000         0.4485640000
        2.7970000000         0.2850740000
        0.5215000000         0.0152040000
 s    8  1.00
     6665.0000000000        -0.0001460000
     1000.0000000000        -0.0011540000
      228.0000000000        -0.0057250000
       64.7100000000        -0.0233120000
       21.0600000000        -0.0639550000
        7.4950000000        -0.1499810000
        2.7970000000        -0.1272620000
        0.5215000000         0.5445290000
 s    1  1.00
        0.1596000000         1.0000000000
 p    3  1.00
        9.4390000000         0.0381090000
        2.0020000000         0.2094800000
        0.5456000000         0.5085570000
 p    1  1.00
        0.1517000000         1.0000000000
 d    1  1.00
        0.5500000000         1.0000000000

  3 0
 s    8  1.00
     6665.0000000000         0.0006920000
     1000.0000000000         0.0053290000
      228.0000000000         0.0270770000
       64.7100000000         0.1017180000
       21.0600000000         0.2747400000
        7.4950000000         0.4485640000
        2.7970000000         0.2850740000
        0.5215000000         0.0152040000
 s    8  1.00
     6665.0000000000        -0.0001460000
     1000.0000000000        -0.0011540000
      228.0000000000        -0.0057250000
       64.7100000000        -0.0233120000
       21.0600000000        -0.0639550000
        7.4950000000        -0.1499810000
        2.7970000000        -0.1272620000
        0.5215000000         0.5445290000
 s    1  1.00
        0.1596000000         1.0000000000
 p    3  1.00
        9.4390000000         0.0381090000
        2.0020000000         0.2094800000
        0.5456000000         0.5085570000
 p    1  1.00
        0.1517000000         1.0000000000
 d    1  1.00
        0.5500000000         1.0000000000

  4 0
 s    8  1.00
     6665.0000000000         0.0006920000
     1000.0000000000         0.0053290000
      228.0000000000         0.0270770000
       64.7100000000         0.1017180000
       21.0600000000         0.2747400000
        7.4950000000         0.4485640000
        2.7970000000         0.2850740000
        0.5215000000         0.0152040000
 s    8  1.00
     6665.0000000000        -0.0001460000
     1000.0000000000        -0.0011540000
      228.0000000000        -0.0057250000
       64.7100000000        -0.0233120000
       21.0600000000        -0.0639550000
        7.4950000000        -0.1499810000
        2.7970000000        -0.1272620000
        0.5215000000         0.5445290000
 s    1  1.00
        0.1596000000         1.0000000000
 p    3  1.00
        9.4390000000         0.0381090000
        2.0020000000         0.2094800000
        0.5456000000         0.5085570000
 p    1  1.00
        0.1517000000         1.0000000000
 d    1  1.00
        0.5500000000         1.0000000000

  5 0
 s    8  1.00
    11720.0000000000         0.0007100000
     1759.0000000000         0.0054700000
      400.8000000000         0.0278370000
      113.7000000000         0.1048000000
       37.0300000000         0.2830620000
       13.2700000000         0.4487190000
        5.0250000000         0.2709520000
        1.0130000000         0.0154580000
 s    8  1.00
    11720.0000000000        -0.0001600000
     1759.0000000000        -0.0012630000
      400.8000000000        -0.0062670000
      113.7000000000        -0.0257160000
       37.0300000000        -0.0709240000
       13.2700000000        -0.1654110000
        5.0250000000        -0.1169550000
        1.0130000000         0.5573680000
 s    1  1.00
        0.3023000000         1.0000000000
 p    3  1.00
       17.7000000000         0.0430180000
        3.8540000000         0.2289130000
        1.0460000000         0.5087280000
 p    1  1.00
        0.2753000000         1.0000000000
 d    1  1.00
        1.1850000000         1.0000000000

  6 0
 s    3  1.00
       13.0100000000         0.0196850000
        1.9620000000         0.1379770000
        0.4446000000         0.4781480000
 s    1  1.00
        0.1220000000         1.0000000000
 p    1  1.00
        0.7270000000         1.0000000000

  7 0
 s    3  1.00
       13.0100000000         0.0196850000
        1.9620000000         0.1379770000
        0.4446000000         0.4781480000
 s    1  1.00
        0.1220000000         1.0000000000
 p    1  1.00
        0.7270000000         1.0000000000

  8 0
 s    3  1.00
       13.0100000000         0.0196850000
        1.9620000000         0.1379770000
        0.4446000000         0.4781480000
 s    1  1.00
        0.1220000000         1.0000000000
 p    1  1.00
        0.7270000000         1.0000000000

  9 0
 s    3  1.00
       13.0100000000         0.0196850000
        1.9620000000         0.1379770000
        0.4446000000         0.4781480000
 s    1  1.00
        0.1220000000         1.0000000000
 p    1  1.00
        0.7270000000         1.0000000000

  10 0
 s    3  1.00
       13.0100000000         0.0196850000
        1.9620000000         0.1379770000
        0.4446000000         0.4781480000
 s    1  1.00
        0.1220000000         1.0000000000
 p    1  1.00
        0.7270000000         1.0000000000

  11 0
 s    3  1.00
       13.0100000000         0.0196850000
        1.9620000000         0.1379770000
        0.4446000000         0.4781480000
 s    1  1.00
        0.1220000000         1.0000000000
 p    1  1.00
        0.7270000000         1.0000000000

[5D7F]
[9G]

[MO]
 Sym= A
 Ene=        -1.9135633204e+01
 Spin= Alpha
 Occup=         2.0000000000e+00
  1        -6.8100026189e-05
  2        -1.4310347091e-04
  3         5.3592136568e-05
  4         6.4369951394e-05
  5         4.4024146972e-05
  6         1.0353804395e-05
  7        -2.5487608615e-05
  8        -1.3662651548e-04
  9         1.7436065444e-04
 10         7.1320702946e-05
 11         3.2685144002e-05
 12         3.9265453904e-05
 13         7.3557438681e-05
 14        -9.9434329838e-05
 15        -2.0572772873e-04
 16        -3.6683445650e-04
 17         5.3831584448e-03
 18        -2.2237049258e-05
 19        -1.7793336399e-05
 20        -5.2991524317e-05
 21        -9.4158487929e-04
 22        -2.2358161476e-03
 23         4.4362244124e-04
 24        -3.1386689102e-05
 25         2.4056278402e-05
 26        -1.7546908162e-05
 27        -5.2029451331e-05
 28        -5.1826796980e-05
 29         2.0975259061e-04
 30         3.2291601196e-04
 31        -3.9545210661e-03
 32         2.8951984513e-05
 33         2.7528266257e-04
 34        -1.4355124938e-05
 35        -4.5281447031e-03
 36        -3.5416776972e-03
 37         2.7077601018e-04
 38         1.3380151639e-04
 39         4.1618337070e-05
 40         8.1846933283e-05
 41        -3.8815756605e-04
 42         4.9703253708e-04
 43         4.5308039602e-04
 44         5.9480211350e-04
 45         5.3614840536e-03
 46        -9.6680050775e-05
 47        -1.7580694266e-04
 48        -2.9397992106e-05
 49         6.6420359062e-03
 50         6.1493173290e-04
 51         1.6039360841e-04
 52        -1.4274639281e-05
 53         1.7523973489e-06
 54         7.8777633360e-05
 55        -1.1527936794e-03
 56         5.0087412912e-04
 57         1.0041690612e+00
 58         9.4697763976e-03
 59        -1.5117681113e-02
 60        -1.8370258680e-03
 61         3.4929477597e-04
 62        -6.6745900224e-05
 63         3.5149393581e-03
 64        -8.3127423157e-04
 65         1.1290768245e-04
 66        -1.8825692511e-05
 67         2.7419813446e-06
 68        -3.0017421616e-06
 69         6.6230940591e-05
 70         1.0758473150e-05
 71        -1.1381895930e-04
 72        -1.1187722006e-04
 73         3.6497401661e-05
 74        -5.3103781577e-06
 75         2.1938986925e-05
 76         1.2184650491e-04
 77         3.5616743527e-04
 78        -7.3339556253e-05
 79        -7.1074218842e-05
 80         4.1055980970e-05
 81        -1.0010611366e-04
 82        -2.5437232188e-04
 83         6.7004911779e-05
 84         6.2519371632e-05
 85         5.7435928206e-05
 86        -1.2758330053e-04
 87         9.2877023899e-04
 88        -7.6476590028e-04
 89         1.1969065164e-04
 90        -6.8311517444e-06
 91        -2.7496606590e-04
 92        -1.3320220071e-03
 93         1.8635154798e-04
 94         2.5387270610e-04
 95         1.1210820336e-06
 96        -1.8016731977e-04
 97         2.3460728628e-04
 98         4.2890121219e-05
 99         8.3431073839e-05
100        -2.5942888338e-05
 Sym= A
 Ene=        -1.0273446638e+01
 Spin= Alpha
 Occup=         2.0000000000e+00
  1        -3.6744956438e-04
  2        -4.8626849744e-04
  3         9.1496993815e-04
  4         2.8706232617e-04
  5         6.9994427188e-05
  6        -9.6953356428e-07
  7        -6.3139999317e-04
  8         5.7875503679e-05
  9         3.2927193977e-05
 10        -1.5188246076e-05
 11        -5.8846559081e-05
 12         7.7615145304e-06
 13        -1.1912350513e-04
 14        -3.5531256201e-05
 15        -4.2505073330e-04
 16        -6.2199902356e-04
 17         6.4584890702e-03
 18        -2.7157883814e-04
 19        -2.7360292934e-05
 20         4.5158245003e-05
 21        -2.1583917343e-03
 22        -3.7837291664e-03
 23         5.5221843493e-04
 24        -3.9780605538e-04
 25        -1.7494500399e-04
 26        -8.8894531459e-05
 27         2.9845044202e-04
 28         3.6771162290e-04
 29         1.6066947052e-03
 30        -2.4588380721e-04
 31        -1.8789090936e-03
 32        -3.4465434664e-04
 33         7.4811696136e-04
 34         3.5768998714e-05
 35        -2.5391785279e-03
 36        -6.0153106148e-03
 37         3.8536581571e-04
 38         1.0362544574e-03
 39        -8.7421162034e-06
 40        -3.5932645719e-06
 41         1.1253068997e-03
 42         8.5844799659e-04
 43         1.0059312547e+00
 44         1.5259638050e-02
 45        -1.0769306656e-02
 46         7.2859981900e-04
 47        -4.8280392452e-04
 48        -8.0819607189e-05
 49         5.4478359766e-03
 50        -2.0713567081e-03
 51         5.3217309711e-05
 52        -1.6306023743e-03
 53         2.2856161607e-04
 54         1.6976470921e-04
 55         8.7284850115e-04
 56         2.3254048097e-05
 57         3.6745947160e-04
 58         9.0966415713e-04
 59        -5.9455708240e-03
 60         7.4562651403e-04
 61        -2.1119399089e-04
 62         7.3208194157e-06
 63         3.4041828185e-03
 64        -2.0559714907e-04
 65         1.1080107543e-04
 66         5.6827085831e-04
 67        -3.6950650176e-05
 68        -1.4349406880e-05
 69        -7.2632585922e-04
 70         2.5792514517e-04
 71        -1.1067430937e-04
 72        -5.4718935128e-05
 73         3.8485418170e-05
 74         1.3362945863e-05
 75        -1.4655840881e-05
 76        -5.1725212146e-05
 77         3.5841006533e-04
 78        -5.3860707100e-05
 79        -2.6927278356e-05
 80         6.1153380978e-06
 81        -6.3104005356e-05
 82        -1.8238144713e-05
 83         1.0106675478e-04
 84         4.9036226311e-05
 85        -4.1237954604e-05
 86        -1.6611163423e-03
 87         2.4773418840e-03
 88        -1.4316085249e-03
 89        -1.4565662738e-03
 90        -2.1633308416e-04
 91        -5.2111271287e-04
 92        -4.8299256555e-04
 93         4.4985331503e-05
 94         3.0301527929e-04
 95        -2.7950458755e-05
 96        -2.6616615538e-05
 97         6.0485238076e-04
 98         2.2864739278e-04
 99         1.0053966022e-04
100        -2.9683751658e-05
 Sym= A
 Ene=        -1.0223734505e+01
 Spin= Alpha
 Occup=         2.0000000000e+00
  1         3.0246481492e-03
  2        -3.9873188459e-04
  3         4.4175290434e-03
  4         6.9695629144e-04
  5         4.7399769167e-05
  6         6.0394955811e-05
  7        -2.4338032345e-03
  8        -8.6264901775e-04
  9        -3.7069549613e-04
 10         7.8214337809e-04
 11         8.5482244430e-05
 12         3.2026411243e-05
 13        -9.8030801304e-04
 14        -2.8566211363e-05
 15         1.0063208529e+00
 16         1.6111179810e-02
 17        -2.0214419787e-02
 18        -5.1769683885e-04
 19         1.9161845063e-04
 20        -1.2017219296e-05
 21        -2.2898833272e-03
 22         3.9204860431e-03
 23        -3.8929548325e-04
 24        -1.0329842331e-03
 25         9.6888496603e-05
 26        -2.8798252220e-04
 27        -5.7517928068e-04
 28        -4.0469766072e-04
 29         1.2463935740e-02
 30        -1.2505169614e-03
 31         4.9472668238e-03
 32        -7.2456008053e-04
 33        -1.0775677147e-03
 34         1.5090236150e-04
 35         2.7422162782e-03
 36         2.5922971464e-03
 37        -2.9243066077e-04
 38         8.6664688756e-04
 39         1.2694616578e-04
 40         2.7335587867e-04
 41         5.1134008572e-04
 42        -9.6755705880e-04
 43        -2.6958756787e-04
 44        -5.4290034774e-04
 45         1.0499061177e-03
 46        -1.9974978223e-05
 47        -2.1241792760e-04
 48         3.5389617973e-05
 49        -4.1647427565e-04
 50         9.9765276900e-04
 51        -4.8419090893e-05
 52        -3.2311427534e-04
 53        -8.4797812840e-05
 54        -1.0789680794e-05
 55         1.6877225381e-04
 56        -1.3943098224e-05
 57        -3.3970118680e-05
 58        -7.2049760672e-05
 59        -1.1889744837e-04
 60         1.2047959013e-04
 61         1.3003346699e-05
 62         1.7024662317e-05
 63        -1.1779088872e-04
 64        -3.2489862448e-04
 65         2.3326321205e-05
 66         1.1741724563e-05
 67        -2.3961674592e-05
 68         3.6480659735e-06
 69         3.0151416505e-06
 70         2.3410467418e-05
 71        -4.3917530667e-04
 72         3.6459673555e-04
 73        -9.2787493117e-05
 74         4.6754950043e-06
 75         6.3382911935e-05
 76        -2.9127275151e-04
 77         2.1423965543e-04
 78         1.3273923260e-04
 79         3.2442744540e-05
 80         6.8767406247e-05
 81        -4.7597681054e-04
 82         1.1640840737e-03
 83        -1.8050447406e-04
 84         5.7056229463e-06
 85         2.8298226793e-05
 86        -7.9722342785e-05
 87         3.3502621372e-04
 88         4.4133613533e-05
 89        -6.8696036106e-05
 90        -1.4415172598e-05
 91         1.4898936525e-04
 92         9.5110228280e-04
 93         1.5175772429e-04
 94        -2.5553963282e-04
 95        -1.2965831309e-06
 96        -2.4284497753e-03
 97         1.0876764518e-03
 98        -1.2366023172e-03
 99         1.7941860643e-03
100        -2.0797296129e-04
 Sym= A
 Ene=        -1.0197448674e+01
 Spin= Alpha
 Occup=         2.0000000000e+00
  1         1.2522828633e-03
  2         4.6795175094e-04
  3        -1.8810389219e-04
  4        -1.1208646799e-04
  5        -1.3178773036e-04
  6         1.0087273595e-04
  7         8.4179984407e-04
  8         4.9817184781e-05
  9        -2.6777769531e-04
 10         3.0168578938e-04
 11         3.0384704102e-05
 12         4.8604339545e-05
 13        -4.2838864755e-05
 14         1.2903409243e-04
 15         1.3928477951e-02
 16         1.7287465945e-03
 17        -6.2951634690e-03
 18        -5.8533075041e-04
 19        -1.2041802873e-03
 20         1.5836159594e-04
 21         6.3920384317e-04
 22         3.7910671090e-03
 23        -1.9165645215e-04
 24        -9.1281682127e-04
 25        -1.6863361419e-04
 26        -2.8417850830e-04
 27        -5.9332420402e-04
 28         9.3153684602e-04
 29        -1.0064874140e+00
 30        -1.6545025360e-02
 31         2.1164799628e-02
 32         3.3265658510e-04
 33        -2.6149612067e-04
 34         1.2990763617e-04
 35         5.3294349723e-03
 36         3.0419685606e-04
 37        -8.0713811846e-04
 38         1.0822057756e-03
 39         1.7957098300e-04
 40         1.0845534514e-04
 41        -4.3276963795e-04
 42        -4.5217677279e-04
 43         1.9195670767e-03
 44         7.7831798632e-04
 45        -5.7061486773e-03
 46        -2.6188700971e-04
 47         7.1337958252e-04
 48         4.5577538774e-05
 49        -3.9219300110e-04
 50        -3.4277777746e-03
 51         4.8282456365e-05
 52        -6.9572028452e-04
 53        -1.4375339573e-04
 54         4.6147826172e-05
 55        -5.7105727373e-04
 56        -1.2152692879e-03
 57        -4.0060911806e-05
 58        -6.9391063602e-05
 59         7.9404661750e-04
 60        -2.1230458212e-05
 61         6.5590198387e-05
 62         3.7683918199e-05
 63         1.1866384274e-04
 64         6.2773388176e-04
 65        -5.1111739310e-05
 66         1.2757888693e-04
 67        -3.9831695993e-05
 68        -1.2520976530e-05
 69        -7.6917222892e-05
 70        -2.2082796565e-04
 71         1.3591305423e-04
 72        -3.3462315909e-04
 73        -2.1010718926e-05
 74        -7.6006637615e-05
 75         5.4728931425e-05
 76        -3.7263882731e-05
 77        -3.3936066033e-04
 78        -4.2657124621e-05
 79         4.9516312789e-05
 80         2.8239759969e-05
 81         6.2463332098e-05
 82        -1.7557188659e-04
 83        -4.6468687376e-05
 84        -7.8783783923e-05
 85         1.3478147498e-04
 86         2.9247968543e-04
 87        -9.6225841576e-04
 88        -6.3784146123e-05
 89         1.9542585502e-04
 90        -3.2090786782e-05
 91         2.4851047633e-03
 92        -8.2537567233e-04
 93         2.1710757453e-03
 94        -1.0587907921e-04
 95        -8.4842940939e-05
 96        -1.0860602562e-04
 97        -8.7449462955e-04
 98        -2.8516524704e-04
 99         3.5434720124e-05
100        -3.4728191947e-05
 Sym= A
 Ene=        -1.0189906867e+01
 Spin= Alpha
 Occup=         2.0000000000e+00
  1         1.0069943323e+00
  2         1.7442025530e-02
  3        -1.9229915614e-02
  4         4.2918563750e-04
  5         1.4094765992e-05
  6         1.4740237261e-04
  7         2.8791539430e-03
  8         3.9373195624e-04
  9        -5.3133830000e-04
 10         1.8901869728e-04
 11        -2.5420920551e-05
 12        -9.6702278192e-05
 13        -6.5246365477e-04
 14         1.3593362100e-05
 15        -3.2109237431e-03
 16        -2.5277185884e-04
 17         1.6397168273e-03
 18        -4.7452994487e-04
 19         5.4270377515e-05
 20         2.7081095008e-06
 21         4.1486222375e-03
 22         2.3433603139e-03
 23        -2.8095054863e-04
 24         6.2651692294e-04
 25         1.0215598982e-04
 26        -1.5038757656e-05
 27        -1.3162772565e-03
 28        -4.0882447605e-04
 29         5.8493196878e-04
 30        -6.5321806481e-04
 31         3.6173552002e-03
 32        -2.3558010973e-04
 33         3.7934698029e-05
 34        -2.4692868691e-06
 35         1.1661939128e-03
 36         2.5639649524e-03
 37        -3.4311992708e-04
 38        -3.6767751712e-04
 39         2.3678159427e-05
 40        -9.7866962671e-05
 41        -4.2281468979e-04
 42        -2.1208078839e-04
 43        -1.2495593410e-04
 44        -5.0260670439e-04
 45         4.0509513340e-04
 46        -6.9472701515e-05
 47        -2.7165566399e-04
 48        -3.4748959886e-05
 49        -1.7475867185e-04
 50         4.8973078459e-04
 51         1.1743614123e-04
 52        -3.6995500905e-05
 53        -2.7812169792e-05
 54        -2.5070070772e-05
 55         3.2116808207e-05
 56         4.3221142904e-05
 57        -1.0121196294e-04
 58        -1.9725947595e-04
 59         3.1672497001e-04
 60         2.7427167633e-05
 61        -1.1671938442e-04
 62        -1.9982564110e-05
 63        -2.2203603017e-04
 64         2.5868190351e-04
 65         5.9060072551e-05
 66        -5.6273022793e-05
 67         7.6008846517e-07
 68         5.2194462992e-06
 69        -6.0760650549e-07
 70        -2.3199466871e-06
 71        -1.1836313692e-03
 72         2.0562969153e-03
 73         6.3008986986e-04
 74        -1.4952033025e-03
 75        -9.5159743376e-04
 76        -1.4594756816e-03
 77         1.7710350920e-03
 78         5.8036727329e-04
 79         1.7960323118e-03
 80        -7.6677370253e-04
 81        -1.0124612214e-03
 82         2.3560459479e-03
 83         4.7774919204e-04
 84        -1.8562834729e-04
 85         1.8049437037e-03
 86         2.2295820192e-05
 87         3.8900947209e-04
 88         9.7313703425e-06
 89         6.3604784793e-05
 90        -1.3745471981e-05
 91         2.8229224878e-05
 92         4.7556562375e-04
 93         6.1643770455e-05
 94        -1.9103213839e-04
 95         2.4725524657e-05
 96        -4.0267482241e-04
 97         1.3409117093e-04
 98        -3.8946878209e-04
 99        -1.5724118973e-04
100         2.5206045890e-05
 Sym= A
 Ene=        -1.0394968272e+00
 Spin= Alpha
 Occup=         2.0000000000e+00
  1        -5.0186431253e-04
  2         7.8614690534e-03
  3         5.1648577049e-03
  4        -3.2886507432e-03
  5        -3.8183594305e-03
  6        -4.7342901585e-05
  7        -2.8572977280e-03
  8        -1.5060017412e-03
  9         8.4584986617e-04
 10        -7.1245885848e-04
 11        -1.3362175956e-04
 12        -1.7198836871e-04
 13         9.9827230412e-05
 14         8.7484792835e-04
 15         5.0514336191e-04
 16         1.6836002056e-02
 17        -1.2128671363e-02
 18         3.5527710397e-04
 19        -1.0650537713e-02
 20         1.0315838416e-03
 21        -1.9486484802e-03
 22         9.3781075245e-03
 23        -1.1367119004e-03
 24        -4.9544956687e-04
 25        -1.9045326166e-04
 26        -4.3280008397e-04
 27        -1.5172953400e-03
 28         7.1742371085e-04
 29        -3.6742608340e-03
 30         3.6209245276e-02
 31         3.1783060221e-02
 32         2.1143794655e-02
 33        -1.9510938683e-02
 34        -7.6919884658e-04
 35         1.9923385219e-02
 36         1.9558410077e-03
 37        -1.6914765135e-03
 38        -3.7490463011e-03
 39        -3.4443782729e-04
 40        -1.4542722440e-04
 41        -2.9068563679e-04
 42        -9.0566144156e-03
 43        -1.4652882150e-02
 44         2.2416176292e-01
 45         9.4569278726e-02
 46         1.8433185762e-01
 47        -2.3686073406e-02
 48         4.9868142317e-03
 49         1.2187457529e-02
 50        -2.6469328917e-03
 51         9.5421239983e-04
 52        -1.3806359448e-02
 53         8.6786684648e-04
 54        -1.4073502717e-03
 55         3.1374257903e-02
 56        -1.3360760892e-02
 57        -9.1845995998e-03
 58         4.0227508128e-01
 59         3.6120806168e-01
 60        -1.5506428357e-01
 61         3.0512630597e-02
 62        -4.8010856840e-03
 63        -3.1802674447e-02
 64         7.4373369518e-03
 65        -1.6551984569e-03
 66        -5.3625074554e-03
 67         4.5689879993e-04
 68        -7.1573019139e-04
 69         1.2113531095e-02
 70        -4.8839846674e-03
 71         7.2505381620e-03
 72         3.8497263394e-03
 73        -6.8967612769e-04
 74        -3.9761334864e-04
 75         6.8390453391e-04
 76         1.0862303140e-03
 77        -4.0417086419e-04
 78         3.1884923079e-05
 79        -4.1199431564e-05
 80        -7.1328168289e-05
 81         2.6301719995e-03
 82         8.2125961894e-04
 83        -3.1818567730e-04
 84        -3.4189663560e-04
 85        -5.4499428377e-04
 86         3.9491572605e-02
 87        -3.4944855304e-03
 88         1.0110460081e-02
 89         5.9253544942e-03
 90         1.0029008297e-03
 91         7.1121694470e-03
 92         6.1141550455e-03
 93         9.6842632090e-04
 94        -1.9219481287e-03
 95        -7.4639151659e-05
 96         1.8421281156e-03
 97        -3.0640483460e-03
 98        -1.8196643158e-04
 99        -8.2991577211e-04
100         1.2649615134e-04
 Sym= A
 Ene=        -8.1048538425e-01
 Spin= Alpha
 Occup=         2.0000000000e+00
  1         1.1071608266e-02
  2        -1.7924702769e-01
  3        -7.4857082693e-02
  4         6.6638398343e-02
  5         1.3565050549e-02
  6        -4.5905797019e-03
  7         2.6341052946e-03
  8        -8.8548252502e-03
  9         2.1513349239e-03
 10         5.7227038125e-03
 11         6.2922976256e-04
 12        -5.7450153396e-05
 13        -1.0010776940e-02
 14        -3.1284461181e-03
 15         1.9823994814e-02
 16        -2.8933562005e-01
 17        -2.0373885195e-01
 18        -3.3161841509e-03
 19         7.1365447076e-02
 20        -7.9930523978e-03
 21        -3.1155789100e-02
 22         2.5151741297e-02
 23        -3.1944443212e-03
 24         1.0031250175e-02
 25         1.2645694475e-03
 26         1.7264221713e-03
 27        -2.1599581555e-03
 28        -1.0079702281e-02
 29         1.7276850601e-02
 30        -2.5546584117e-01
 31        -1.3913558517e-01
 32        -5.8863331370e-02
 33        -5.7247377467e-02
 34         1.3321483088e-02
 35        -2.5673542097e-03
 36        -2.0885991939e-02
 37         3.4271772099e-03
 38         6.8909292878e-03
 39         1.4252443719e-03
 40         1.9215039438e-03
 41         8.8887767486e-03
 42        -8.6240963433e-03
 43         2.5905732408e-03
 44        -6.5022605805e-02
 45        -5.1461777576e-02
 46         7.2809907676e-02
 47        -8.0745535143e-02
 48         1.8322119457e-03
 49         2.3892158035e-02
 50        -2.2817204064e-02
 51        -7.2154708968e-04
 52         2.7326567906e-03
 53         4.5380162598e-04
 54        -1.9840585902e-04
 55         1.3471203899e-02
 56         3.2562740588e-03
 57        -3.4800834363e-04
 58         7.7326472712e-02
 59         7.4553215979e-02
 60        -1.2105852911e-02
 61        -1.6809566500e-02
 62         9.0750940116e-05
 63         1.3077982404e-03
 64        -7.2632557763e-03
 65         5.9454704746e-04
 66         1.8203472214e-04
 67         1.4896223992e-05
 68         5.4847515470e-05
 69         1.6893594320e-03
 70         1.6267446953e-03
 71        -6.7531544380e-02
 72        -2.3965448598e-03
 73         4.7310131773e-03
 74        -7.6839206295e-03
 75        -5.1552569784e-03
 76        -5.9366185017e-02
 77        -8.8285129702e-04
 78         4.6586106053e-03
 79         8.1630011809e-03
 80        -3.4423465527e-03
 81        -6.7465417702e-02
 82        -3.3725492718e-03
 83         4.3068605243e-03
 84        -2.6271633678e-05
 85         9.0962148635e-03
 86        -1.9225773687e-02
 87         1.4491075759e-04
 88         9.9703204501e-06
 89        -3.5560495474e-03
 90        -1.2220733728e-04
 91        -8.3688906630e-02
 92        -2.5788056251e-03
 93        -1.4237245218e-02
 94        -1.8595483744e-03
 95         1.1367419983e-03
 96        -9.8302647816e-02
 97        -1.3329852046e-02
 98        -6.9193055694e-03
 99         1.3690789550e-02
100        -1.5404494899e-03
 Sym= A
 Ene=        -7.1610986403e-01
 Spin= Alpha
 Occup=         2.0000000000e+00
  1         1.4278946859e-02
  2        -2.8486482504e-01
  3        -1.2275335209e-01
  4         1.9134378002e-02
  5        -7.9499679102e-03
  6        -4.0882699082e-03
  7        -1.5709123531e-02
  8        -7.4925778739e-03
  9         1.7919959622e-04
 10         1.5383018699e-03
 11        -2.8581157624e-05
 12        -1.6070677572e-04
 13        -3.0495835573e-03
 14         2.2901497784e-03
 15         5.4819625399e-03
 16        -5.3478846621e-02
 17        -8.7714091980e-02
 18        -1.3628845791e-01
 19        -8.9167403922e-02
 20         9.8582789951e-03
 21        -8.9602748837e-02
 22        -5.8240064311e-03
 23         1.9866585833e-03
 24         3.8847982828e-03
 25        -2.2344825685e-04
 26        -1.0058735070e-03
 27        -1.7555020691e-02
 28         4.1001749267e-03
 29        -1.3701529097e-02
 30         2.2571128889e-01
 31         1.6706832295e-01
 32        -6.9239865906e-03
 33        -6.1361156666e-02
 34        -3.4601923320e-03
 35         3.5160989496e-02
 36        -3.7912623869e-02
 37        -1.4047400958e-03
 38        -4.4790594218e-03
 39        -1.7426864745e-05
 40         3.2326913548e-04
 41        -9.6944811588e-03
 42        -6.0440775971e-03
 43        -3.1331655542e-03
 44         1.5862663586e-01
 45         6.8731129778e-02
 46        -1.1062080541e-01
 47         7.4359174332e-02
 48        -7.5031106298e-04
 49        -3.8679692169e-02
 50         8.0737737688e-03
 51        -1.3404945947e-03