[Molden Format]
[Atoms] (AU)
C    1    6           1.6647880161         2.8285460119         0.2183709345
C    2    6          -0.8331490707         2.3365595568        -0.0894721410
C    3    6          -2.1267594269        -0.0533206846         0.3910233620
C    4    6          -0.8603126554        -2.2562228816         0.0375358983
O    5    8           1.6344007853        -2.4467665747        -0.3719804520
H    6    1           2.2046640807        -0.6996897328        -0.6285186915
H    7    1           2.6258547244         4.3248195174        -0.8462564316
H    8    1           2.8493873476         1.6459531539         1.4381848021
H    9    1          -1.7719556179        -4.0953257197        -0.1551482686
H   10    1          -4.1934022791        -0.1220445814         0.4840851549
H   11    1          -1.9893016745         3.7775609164        -1.0263043968
[GTO]
  1 0
 s    8  1.00
     6665.0000000000         0.0006920000
     1000.0000000000         0.0053290000
      228.0000000000         0.0270770000
       64.7100000000         0.1017180000
       21.0600000000         0.2747400000
        7.4950000000         0.4485640000
        2.7970000000         0.2850740000
        0.5215000000         0.0152040000
 s    8  1.00
     6665.0000000000        -0.0001460000
     1000.0000000000        -0.0011540000
      228.0000000000        -0.0057250000
       64.7100000000        -0.0233120000
       21.0600000000        -0.0639550000
        7.4950000000        -0.1499810000
        2.7970000000        -0.1272620000
        0.5215000000         0.5445290000
 s    1  1.00
        0.1596000000         1.0000000000
 p    3  1.00
        9.4390000000         0.0381090000
        2.0020000000         0.2094800000
        0.5456000000         0.5085570000
 p    1  1.00
        0.1517000000         1.0000000000
 d    1  1.00
        0.5500000000         1.0000000000

  2 0
 s    8  1.00
     6665.0000000000         0.0006920000
     1000.0000000000         0.0053290000
      228.0000000000         0.0270770000
       64.7100000000         0.1017180000
       21.0600000000         0.2747400000
        7.4950000000         0.4485640000
        2.7970000000         0.2850740000
        0.5215000000         0.0152040000
 s    8  1.00
     6665.0000000000        -0.0001460000
     1000.0000000000        -0.0011540000
      228.0000000000        -0.0057250000
       64.7100000000        -0.0233120000
       21.0600000000        -0.0639550000
        7.4950000000        -0.1499810000
        2.7970000000        -0.1272620000
        0.5215000000         0.5445290000
 s    1  1.00
        0.1596000000         1.0000000000
 p    3  1.00
        9.4390000000         0.0381090000
        2.0020000000         0.2094800000
        0.5456000000         0.5085570000
 p    1  1.00
        0.1517000000         1.0000000000
 d    1  1.00
        0.5500000000         1.0000000000

  3 0
 s    8  1.00
     6665.0000000000         0.0006920000
     1000.0000000000         0.0053290000
      228.0000000000         0.0270770000
       64.7100000000         0.1017180000
       21.0600000000         0.2747400000
        7.4950000000         0.4485640000
        2.7970000000         0.2850740000
        0.5215000000         0.0152040000
 s    8  1.00
     6665.0000000000        -0.0001460000
     1000.0000000000        -0.0011540000
      228.0000000000        -0.0057250000
       64.7100000000        -0.0233120000
       21.0600000000        -0.0639550000
        7.4950000000        -0.1499810000
        2.7970000000        -0.1272620000
        0.5215000000         0.5445290000
 s    1  1.00
        0.1596000000         1.0000000000
 p    3  1.00
        9.4390000000         0.0381090000
        2.0020000000         0.2094800000
        0.5456000000         0.5085570000
 p    1  1.00
        0.1517000000         1.0000000000
 d    1  1.00
        0.5500000000         1.0000000000

  4 0
 s    8  1.00
     6665.0000000000         0.0006920000
     1000.0000000000         0.0053290000
      228.0000000000         0.0270770000
       64.7100000000         0.1017180000
       21.0600000000         0.2747400000
        7.4950000000         0.4485640000
        2.7970000000         0.2850740000
        0.5215000000         0.0152040000
 s    8  1.00
     6665.0000000000        -0.0001460000
     1000.0000000000        -0.0011540000
      228.0000000000        -0.0057250000
       64.7100000000        -0.0233120000
       21.0600000000        -0.0639550000
        7.4950000000        -0.1499810000
        2.7970000000        -0.1272620000
        0.5215000000         0.5445290000
 s    1  1.00
        0.1596000000         1.0000000000
 p    3  1.00
        9.4390000000         0.0381090000
        2.0020000000         0.2094800000
        0.5456000000         0.5085570000
 p    1  1.00
        0.1517000000         1.0000000000
 d    1  1.00
        0.5500000000         1.0000000000

  5 0
 s    8  1.00
    11720.0000000000         0.0007100000
     1759.0000000000         0.0054700000
      400.8000000000         0.0278370000
      113.7000000000         0.1048000000
       37.0300000000         0.2830620000
       13.2700000000         0.4487190000
        5.0250000000         0.2709520000
        1.0130000000         0.0154580000
 s    8  1.00
    11720.0000000000        -0.0001600000
     1759.0000000000        -0.0012630000
      400.8000000000        -0.0062670000
      113.7000000000        -0.0257160000
       37.0300000000        -0.0709240000
       13.2700000000        -0.1654110000
        5.0250000000        -0.1169550000
        1.0130000000         0.5573680000
 s    1  1.00
        0.3023000000         1.0000000000
 p    3  1.00
       17.7000000000         0.0430180000
        3.8540000000         0.2289130000
        1.0460000000         0.5087280000
 p    1  1.00
        0.2753000000         1.0000000000
 d    1  1.00
        1.1850000000         1.0000000000

  6 0
 s    3  1.00
       13.0100000000         0.0196850000
        1.9620000000         0.1379770000
        0.4446000000         0.4781480000
 s    1  1.00
        0.1220000000         1.0000000000
 p    1  1.00
        0.7270000000         1.0000000000

  7 0
 s    3  1.00
       13.0100000000         0.0196850000
        1.9620000000         0.1379770000
        0.4446000000         0.4781480000
 s    1  1.00
        0.1220000000         1.0000000000
 p    1  1.00
        0.7270000000         1.0000000000

  8 0
 s    3  1.00
       13.0100000000         0.0196850000
        1.9620000000         0.1379770000
        0.4446000000         0.4781480000
 s    1  1.00
        0.1220000000         1.0000000000
 p    1  1.00
        0.7270000000         1.0000000000

  9 0
 s    3  1.00
       13.0100000000         0.0196850000
        1.9620000000         0.1379770000
        0.4446000000         0.4781480000
 s    1  1.00
        0.1220000000         1.0000000000
 p    1  1.00
        0.7270000000         1.0000000000

  10 0
 s    3  1.00
       13.0100000000         0.0196850000
        1.9620000000         0.1379770000
        0.4446000000         0.4781480000
 s    1  1.00
        0.1220000000         1.0000000000
 p    1  1.00
        0.7270000000         1.0000000000

  11 0
 s    3  1.00
       13.0100000000         0.0196850000
        1.9620000000         0.1379770000
        0.4446000000         0.4781480000
 s    1  1.00
        0.1220000000         1.0000000000
 p    1  1.00
        0.7270000000         1.0000000000

[5D7F]
[9G]

[MO]
 Sym= A
 Ene=        -1.9170435808e+01
 Spin= Alpha
 Occup=         2.0000000000e+00
  1        -1.5915303287e-04
  2        -2.7556350613e-04
  3         1.6896112498e-03
  4        -8.9652332902e-05
  5         2.8117206083e-05
  6         2.2425794387e-05
  7        -1.7222071422e-04
  8        -1.1790169575e-03
  9         9.0664182359e-05
 10        -7.7998928807e-05
 11        -4.0986705701e-05
 12         5.6686232070e-05
 13        -1.3207260667e-04
 14         6.0796733283e-05
 15         1.7182440736e-04
 16         3.0133016113e-04
 17        -4.7345843074e-03
 18         2.9254034369e-05
 19         1.0095049933e-05
 20         8.6718407991e-05
 21         8.2964071614e-05
 22         2.4321192234e-03
 23        -9.2634473604e-04
 24         5.1090900878e-05
 25        -1.0935680371e-04
 26         1.0586676937e-04
 27        -2.1307245686e-06
 28         2.8623226344e-05
 29        -1.5808659574e-04
 30        -2.1994083386e-04
 31         4.4701333561e-03
 32         8.8645913948e-05
 33        -2.5666335857e-04
 34        -3.9598272836e-05
 35         4.2612824853e-03
 36         2.5266710246e-03
 37        -6.4383998604e-04
 38        -1.3653222012e-04
 39        -1.4586174007e-04
 40        -2.5687306178e-05
 41         4.3006653731e-04
 42        -3.5702723356e-04
 43        -2.0621582926e-04
 44        -3.6157440364e-04
 45        -5.9514133618e-03
 46        -3.3637616794e-04
 47         1.6958564947e-04
 48         1.2221564400e-04
 49        -5.1963836267e-03
 50        -1.7988129240e-03
 51         6.4690390023e-04
 52         3.6610307305e-04
 53        -3.8295372014e-05
 54        -1.5105260894e-04
 55         7.8395330520e-04
 56        -3.3943107617e-04
 57        -1.0040850210e+00
 58        -9.3699766636e-03
 59         1.3998013063e-02
 60         1.0688691197e-03
 61        -1.3192534956e-03
 62        -2.9513681829e-05
 63        -3.1770835680e-03
 64         1.2077533557e-03
 65         4.5066544429e-04
 66         1.3883329225e-05
 67        -2.2807522161e-06
 68         7.6428478247e-05
 69         1.7954724955e-04
 70        -2.0829886122e-04
 71        -3.7487313975e-04
 72        -7.7060902107e-04
 73        -1.1154138038e-04
 74        -9.8182679455e-04
 75         2.6106355641e-06
 76        -5.7749435194e-05
 77         1.1171703643e-04
 78         3.0298082355e-05
 79         8.1656941185e-05
 80         6.6276062041e-06
 81        -1.8017546194e-04
 82        -1.8989268925e-04
 83        -2.4896817244e-06
 84        -2.6321316535e-05
 85        -1.6444854169e-05
 86         5.1338625315e-04
 87        -7.6549767646e-04
 88         5.9900514986e-04
 89         2.0964950492e-04
 90        -5.9565440641e-05
 91         1.4118657445e-04
 92         1.1266817254e-03
 93        -2.1646203600e-04
 94        -1.8961962003e-04
 95         4.7978048413e-05
 96         5.1944059038e-05
 97        -5.5490694959e-04
 98        -2.5116469856e-05
 99        -7.4948742453e-05
100         4.1100804197e-05
 Sym= A
 Ene=        -1.0253329000e+01
 Spin= Alpha
 Occup=         2.0000000000e+00
  1        -2.8959061113e-04
  2        -3.5365678065e-04
  3         1.0801411141e-03
  4         1.3381453038e-04
  5         8.9681148364e-05
  6         5.0063398156e-05
  7        -1.0978626188e-03
  8         4.2499476878e-04
  9        -4.3493492576e-04
 10        -9.6504860552e-05
 11        -1.4320570977e-05
 12        -3.9722900114e-05
 13         4.4999073670e-05
 14        -4.7296722934e-05
 15        -4.8948241204e-04
 16        -7.1085735956e-04
 17         4.4679511031e-03
 18        -9.0318194394e-05
 19         2.5422551427e-05
 20        -1.0198329056e-05
 21        -2.0962443971e-03
 22        -3.6887965237e-03
 23         7.5923935993e-04
 24        -3.2358541332e-04
 25        -1.0059371598e-04
 26        -9.1396414821e-05
 27        -3.5066292430e-05
 28         8.9998639412e-05
 29         4.4344594513e-03
 30        -9.4916192188e-04
 31        -2.0386987224e-04
 32        -6.3096784157e-04
 33         1.3038887557e-03
 34         1.9827056418e-04
 35        -1.9254652743e-03
 36        -5.4323270699e-03
 37         4.4504668000e-04
 38         1.0756590635e-03
 39         2.9240284709e-04
 40        -1.5013257512e-04
 41         3.6800790275e-04
 42         9.8677378179e-04
 43         1.0059202414e+00
 44         1.5321556207e-02
 45        -1.1601854363e-02
 46         6.5376798952e-04
 47        -3.9000607601e-04
 48        -2.9095240177e-04
 49         4.5443319115e-03
 50        -1.7898596414e-03
 51        -8.2503264058e-04
 52        -1.6332423796e-03
 53        -3.2079619123e-04
 54         4.9605598968e-04
 55        -3.6015865013e-04
 56         5.9529727384e-05
 57         7.0092851302e-04
 58         1.2740020104e-03
 59        -4.8233328439e-03
 60         3.0801020044e-04
 61        -1.6655091498e-04
 62        -4.2437033716e-05
 63         3.1706735344e-03
 64        -1.2511918219e-04
 65        -4.6391693603e-04
 66         7.3046008101e-04
 67         3.3967305728e-04
 68        -1.9183600315e-06
 69        -7.8016171017e-04
 70         6.0493003367e-05
 71         6.1968193125e-04
 72        -2.5327302569e-04
 73        -5.7362529011e-04
 74        -1.4149489880e-04
 75         8.5526915650e-05
 76        -5.7061692834e-05
 77         1.4690345402e-04
 78        -1.1378436255e-05
 79        -4.3596048449e-05
 80         1.9037814943e-05
 81        -1.3659879724e-05
 82         6.8139952400e-04
 83         2.1644745269e-05
 84         4.5847288943e-05
 85        -3.0885889023e-05
 86        -2.3525595011e-03
 87         2.2646673966e-03
 88        -1.4562267257e-03
 89        -1.7343889603e-03
 90        -1.2363750394e-04
 91        -9.5226336042e-05
 92        -2.9808898322e-04
 93         3.2244426755e-04
 94         2.8443801402e-04
 95        -3.5066623237e-05
 96        -8.5578260532e-05
 97         5.0465240605e-04
 98         1.4797094756e-04
 99         1.2939429100e-04
100        -4.1973850866e-05
 Sym= A
 Ene=        -1.0210315297e+01
 Spin= Alpha
 Occup=         2.0000000000e+00
  1         1.5969411380e-02
  2        -1.0851341293e-03
  3         4.8748521876e-03
  4         1.3161595804e-03
  5         2.4360116434e-04
  6         4.2607970120e-05
  7        -2.4415659832e-03
  8        -1.5323688064e-03
  9         5.3119542579e-04
 10         8.7527610436e-04
 11        -3.0233631918e-04
 12         1.5276601530e-05
 13        -1.0907059614e-03
 14        -3.2094499304e-04
 15         1.0063214673e+00
 16         1.6280036158e-02
 17        -1.9154031971e-02
 18        -9.6982576925e-05
 19         1.8068916018e-04
 20        -3.4280211337e-04
 21        -2.1845476483e-03
 22         3.0877505305e-03
 23        -1.4510837141e-03
 24        -7.1472191319e-04
 25         6.5265587826e-04
 26        -7.3217935428e-04
 27         2.4896543882e-04
 28        -1.2585299062e-04
 29         5.5630817545e-03
 30        -3.9462383207e-04
 31         1.0422436879e-03
 32        -4.3828579080e-04
 33        -6.4318610960e-04
 34         1.3762095742e-04
 35         6.8358270279e-04
 36         3.2089206453e-03
 37         3.6503977829e-04
 38         7.9290988101e-04
 39         1.0150643607e-04
 40         5.1096839466e-04
 41         9.3016303013e-04
 42        -9.4817109109e-04
 43        -4.0110414382e-04
 44        -7.7445603786e-04
 45         3.7806277241e-03
 46        -3.6835034617e-05
 47        -2.1195999967e-04
 48         9.8601765759e-05
 49        -6.4141085654e-04
 50         2.6661711294e-03
 51        -4.9927826384e-05
 52        -4.1252646228e-04
 53        -3.0827703440e-04
 54        -8.1718986076e-06
 55         2.7628215545e-04
 56        -9.2241173146e-05
 57         7.7070517607e-05
 58         1.1263097413e-04
 59        -1.1299468280e-03
 60         1.6025016580e-04
 61        -3.3994626088e-05
 62        -2.7692466128e-06
 63         1.0236959139e-04
 64        -6.4897692031e-04
 65         5.6394056081e-05
 66         6.3693167145e-05
 67        -6.8914201968e-06
 68         2.1031086608e-05
 69         1.3958248291e-05
 70         4.0977991006e-05
 71         3.0685081098e-04
 72         6.4146033710e-04
 73        -3.4106394128e-04
 74        -6.4056816887e-05
 75        -3.7920793180e-05
 76        -2.4979289021e-05
 77         9.5690956898e-04
 78         1.3877985999e-04
 79        -9.7881154203e-05
 80         1.6614115277e-04
 81        -2.9079005189e-04
 82         1.4643448849e-05
 83         4.1243498878e-05
 84         1.8228397126e-04
 85        -1.6637016626e-04
 86         2.2859063822e-05
 87         7.3671467673e-04
 88         1.4002258083e-04
 89        -8.8695867042e-05
 90        -9.4051143278e-06
 91        -1.6739418956e-04
 92         3.1019459856e-04
 93        -1.3993497040e-05
 94        -3.6241700103e-04
 95        -4.0945960735e-05
 96        -2.3482232184e-03
 97         1.1993900559e-03
 98        -1.1210856884e-03
 99         1.5147017511e-03
100        -1.0159320843e-03
 Sym= A
 Ene=        -1.0190301452e+01
 Spin= Alpha
 Occup=         2.0000000000e+00
  1         1.0065227703e+00
  2         1.6768966044e-02
  3        -1.6780549288e-02
  4         3.1926906168e-04
  5        -3.3412568723e-04
  6        -2.0133471379e-04
  7         2.3960024836e-03
  8         1.7043716863e-03
  9         8.0509500361e-04
 10        -4.3302182632e-04
 11         2.7918915951e-04
 12        -1.5584837568e-03
 13         5.4156246200e-04
 14         3.7330421316e-04
 15        -1.7101319675e-02
 16        -1.3308216300e-03
 17         1.9395135834e-03
 18        -1.2995090965e-03
 19        -2.6162105704e-04
 20        -2.2203185095e-04
 21         3.2110061266e-03
 22         1.9928025399e-03
 23        -1.7146174197e-04
 24         9.0739077692e-04
 25        -4.5149026656e-04
 26         2.0827736552e-04
 27        -1.1546970574e-03
 28        -7.7862387562e-04
 29        -1.5448718197e-03
 30        -5.3897854673e-04
 31         3.3058278564e-03
 32        -1.1668356877e-04
 33         1.6588381838e-05
 34        -6.8668017809e-05
 35         1.9019372107e-03
 36         2.1921348237e-03
 37        -3.8559516327e-04
 38        -3.7207818672e-04
 39         6.9980332401e-05
 40        -2.1422778543e-04
 41        -3.4874125906e-04
 42        -1.7623807944e-05
 43         2.1753829668e-05
 44        -2.0160592324e-04
 45        -1.2701459706e-03
 46        -6.8009604039e-05
 47        -1.2998868072e-04
 48        -5.9180270166e-05
 49        -1.4250175071e-03
 50        -3.5411437460e-04
 51         2.9130324323e-04
 52         5.7318397257e-05
 53         1.1171339222e-04
 54        -8.5456845861e-05
 55        -1.0911472465e-04
 56         1.1476785415e-04
 57         1.4447054243e-05
 58         4.7123544020e-05
 59         4.5295743761e-04
 60         1.6726759177e-04
 61         1.0331239700e-04
 62        -5.9776636431e-05
 63        -9.7387184128e-04
 64        -1.5372395523e-04
 65         1.5070396128e-04
 66        -7.0611409798e-05
 67        -3.2473088552e-05
 68        -3.3759558859e-05
 69         4.2962818553e-05
 70         6.8060850093e-05
 71         4.2503418467e-04
 72         2.1659663582e-03
 73        -8.0807079086e-05
 74         6.5824832163e-04
 75         1.0645215839e-04
 76        -2.2309681611e-03
 77         1.7915586471e-03
 78         9.3572115437e-04
 79         1.5717054008e-03
 80        -1.3128221996e-03
 81        -1.7916190958e-03
 82         1.5123873598e-03
 83         1.0941006413e-03
 84        -1.3717127749e-03
 85         1.3653682624e-03
 86        -6.8702899351e-05
 87        -4.8169644570e-05
 88         5.3918941259e-05
 89         8.4143702336e-06
 90        -3.3211673569e-05
 91         1.1470659163e-04
 92         6.0793862958e-04
 93         1.1378155342e-05
 94        -1.2056428629e-04
 95         5.1028056577e-05
 96        -1.5964754782e-05
 97         3.1953643723e-04
 98        -4.4256216399e-05
 99        -2.8373008396e-04
100         6.5351234473e-05
 Sym= A
 Ene=        -1.0185629984e+01
 Spin= Alpha
 Occup=         2.0000000000e+00
  1         8.7003384368e-04
  2        -4.3460346177e-04
  3         2.4903751222e-03
  4         6.3069961116e-05
  5         1.0929271281e-04
  6        -6.1372272535e-05
  7        -1.9876087468e-03
  8        -3.4996139643e-04
  9         3.0474024112e-04
 10        -2.8049615069e-04
 11         4.5852763601e-04
 12        -2.5072461102e-04
 13         1.9827751883e-04
 14        -4.3614149855e-04
 15        -5.9104635936e-03
 16        -6.4557695231e-04
 17         3.2886062065e-03
 18         2.2850960591e-04
 19         6.6787032250e-04
 20        -1.5297536808e-04
 21        -2.2578646345e-03
 22        -3.5086468970e-03
 23        -9.5513822166e-05
 24         8.6187309873e-04
 25         5.0421813162e-04
 26         4.3407598479e-04
 27         5.6840635830e-04
 28        -1.1761733463e-03
 29         1.0066761923e+00
 30         1.6784133358e-02
 31        -2.2139439975e-02
 32        -1.8132598587e-04
 33        -1.7847944208e-04
 34        -4.2775854634e-04
 35        -5.0467125035e-03
 36        -1.6558493575e-04
 37         1.9784712682e-03
 38        -1.0886667621e-03
 39        -1.4031836064e-04
 40         5.8096044243e-05
 41         5.5678284608e-04
 42        -1.5101071564e-04
 43        -5.5836688898e-03
 44        -1.4852995965e-03
 45         6.8822628346e-03
 46         6.5695012128e-04
 47        -1.0928007570e-03
 48        -1.9836977413e-04
 49        -3.3567084358e-04
 50         4.1130058562e-03
 51         4.3822558898e-06
 52         8.1407441948e-04
 53         2.7220338122e-04
 54        -4.1055059900e-04
 55         6.8070670756e-04
 56         1.0095496510e-03
 57         2.1734038591e-05
 58         2.3471156198e-05
 59        -8.9171253462e-04
 60         5.5542217394e-05
 61        -4.9150146686e-05
 62        -2.5761208836e-05
 63        -1.1549021662e-04
 64        -7.5856848671e-04
 65         8.1753075576e-05
 66        -5.6148389296e-05
 67        -1.3753267864e-05
 68         9.7416909072e-06
 69         8.0941969460e-05
 70         9.4373305300e-05
 71         2.6684718183e-04
 72         2.3751080347e-04
 73        -1.4176647695e-04
 74        -1.9276171447e-04
 75         4.6843294485e-05
 76         1.9215687482e-04
 77         5.4829069283e-04
 78         1.0987264643e-04
 79        -1.6365258154e-04
 80         5.7836471359e-05
 81        -6.4889978355e-04
 82         4.1039514308e-04
 83         1.4158672706e-04
 84        -7.4053883654e-05
 85         1.2296847155e-04
 86         1.4891596434e-04
 87         1.0869619667e-03
 88         3.5447610740e-04
 89        -1.4216863664e-06
 90         3.4501686279e-05
 91        -2.3518500682e-03
 92         9.4627748490e-04
 93        -2.1664161545e-03
 94        -1.2602968045e-04
 95        -8.1650901663e-05
 96        -3.4386571209e-04
 97         5.7964698875e-04
 98         2.2737364513e-04
 99         2.4427557257e-04
100         8.3469347640e-05
 Sym= A
 Ene=        -1.0680911877e+00
 Spin= Alpha
 Occup=         2.0000000000e+00
  1         2.6229611730e-04
  2         1.3588494887e-02
  3        -4.3957877142e-03
  4        -2.7764417933e-03
  5        -8.1093820879e-03
  6        -6.7300015600e-04
  7         2.4526738768e-03
  8         6.0060406504e-03
  9        -4.3652418611e-03
 10        -2.2689882173e-04
 11        -7.5078798913e-04
 12         7.2528606725e-04
 13        -6.1936857993e-04
 14         9.1356978426e-04
 15        -3.6635188432e-04
 16         1.6935400161e-02
 17         4.7652888611e-03
 18         3.2398594945e-03
 19        -1.0534993561e-02
 20         8.8631739355e-04
 21         4.6943542967e-03
 22         2.2685310726e-03
 23         4.5619022751e-04
 24        -1.5112918866e-03
 25        -2.6685217564e-04
 26        -6.0824653325e-04
 27        -1.0339526195e-03
 28         8.5844917694e-05
 29        -1.6829090592e-03
 30         3.7393105702e-02
 31         1.3142274769e-03
 32         2.3840534643e-02
 33        -1.7100022063e-02
 34        -5.9812715584e-03
 35         7.5509170813e-03
 36         1.1183105035e-02
 37        -1.4415028615e-03
 38        -2.4580109921e-03
 39        -1.9773657769e-03
 40         1.1346867566e-03
 41         2.8540370034e-03
 42        -7.7445230514e-03
 43        -1.2485916375e-02
 44         1.6007230195e-01
 45         8.0839371315e-02
 46         1.3099326269e-01
 47         5.9769500231e-03
 48        -2.2293672542e-02
 49         5.7197487036e-03
 50         2.1351299078e-02
 51         7.7380812760e-04
 52        -1.1760694616e-02
 53        -9.1986983933e-03
 54        -1.1349341918e-03
 55         2.9164578350e-02
 56        -5.0460464494e-04
 57        -6.7330730861e-03
 58         4.2025860274e-01
 59         3.6795886362e-01
 60        -8.7036400806e-02
 61         8.2168836341e-02
 62         7.6554691986e-03
 63        -3.0819321898e-02
 64        -3.5393421088e-03
 65         4.9284189011e-03
 66        -6.5446390966e-03
 67        -2.7325358781e-03
 68        -7.2477292665e-04
 69         4.5422091232e-03
 70        -1.5412539156e-03
 71         1.6777518644e-01
 72         4.5136964633e-03
 73        -1.5260921061e-02
 74        -3.0398741063e-02
 75         6.3033225923e-03
 76         7.7735164245e-04
 77        -4.1495303650e-03
 78        -2.5716419044e-05
 79        -2.5377254758e-04
 80        -1.5578967269e-05
 81         1.0681266807e-02
 82         6.8158093672e-03
 83        -1.4173274977e-03
 84        -5.8869505122e-04
 85        -1.1583000939e-03
 86         3.5899647697e-02
 87         4.7293621091e-03
 88         7.8418461938e-03
 89         5.6211786368e-03
 90        -2.6132455719e-05
 91         5.1916590114e-03
 92         2.7238961081e-03
 93         5.1135885662e-04
 94        -2.0527289030e-03
 95        -1.8184344464e-04
 96         1.9661111951e-03
 97        -1.5189095530e-03
 98        -2.1758242124e-04
 99        -4.5264802792e-04
100        -1.0519533001e-04
 Sym= A
 Ene=        -8.0471262891e-01
 Spin= Alpha
 Occup=         2.0000000000e+00
  1         1.4747502318e-02
  2        -1.9043286950e-01
  3        -1.0449734593e-01
  4         8.4109010890e-02
  5         2.8685208738e-02
  6         9.9219779465e-03
  7         7.2272543183e-03
  8        -2.9535862779e-03
  9         8.3860091014e-03
 10         6.0793732580e-03
 11        -1.4936317160e-03
 12        -3.3376002105e-03
 13        -7.4922336562e-03
 14        -5.3001137591e-03
 15         1.9468707224e-02
 16        -2.7982519486e-01
 17        -1.8320585367e-01
 18        -3.7567959581e-02
 19         4.6014195749e-02
 20        -1.2840758452e-02
 21        -2.1409109587e-02
 22         2.4093800134e-02
 23        -1.2239618312e-02
 24         1.0997670946e-02
 25         2.2186102517e-04
 26         1.6464993178e-03
 27        -2.0988221308e-03
 28        -9.8618214452e-03
 29         1.7907231437e-02
 30        -2.3949874640e-01
 31        -1.3975636230e-01
 32        -5.9577651738e-02
 33        -1.8987083733e-02
 34         2.3992449274e-02
 35        -1.6702994118e-02
 36        -1.2598415197e-02
 37         9.1736472764e-03
 38         8.2094118192e-03
 39         2.8778813525e-03
 40         2.2061732208e-03
 41         8.4538947820e-03
 42        -5.5697312133e-03
 43         4.9681695217e-03
 44        -1.1396579244e-01
 45        -6.2207870896e-02
 46         7.1117804892e-02
 47        -8.6190245417e-02
 48        -1.4078328082e-02
 49         2.3997039028e-02
 50        -1.3269916980e-02
 51        -6.3490242559e-03
 52         3.0703599831e-03
 53        -1.3255407571e-03
 54        -1.6236118020e-03
 55         1.3026953083e-02
 56         4.7167984695e-03
 57         8.3177407554e-04
 58         9.8373508419e-02
 59         9.4874221985e-02
 60         1.7404499686e-02
 61        -2.4231421503e-03
 62        -5.7425433621e-03
 63         1.3283272685e-02
 64        -8.3810946438e-03
 65        -2.6092267011e-03
 66         7.5978072919e-04
 67         3.6108208100e-04
 68        -5.6389155450e-04
 69        -7.9926978065e-04
 70         2.4205251165e-03
 71         2.1782745945e-02
 72         3.6173403339e-03
 73         1.5894889079e-04
 74        -1.0944196325e-02
 75        -5.6196965983e-04
 76        -5.7954116191e-02
 77         9.2503164252e-04
 78         6.4207050112e-03
 79         7.2470935194e-03
 80        -4.2184995541e-03
 81        -6.9318318629e-02
 82        -2.8127558956e-03
 83         7.7268029508e-03
 84        -5.1358126744e-03
 85         6.5763240651e-03
 86        -2.7303207844e-02
 87         8.5238604775e-04
 88         2.9243443564e-04
 89        -4.9659494499e-03
 90        -3.9807230586e-04
 91        -7.7628018667e-02
 92        -6.8788013330e-03
 93        -1.2768797903e-02
 94        -1.4407486262e-03
 95         9.2036396235e-04
 96        -9.5857187701e-02
 97        -1.2954485065e-02
 98        -8.2815993510e-03
 99         1.0816576557e-02
100        -6.3513922449e-03
 Sym= A
 Ene=        -7.3296011240e-01
 Spin= Alpha
 Occup=         2.0000000000e+00
  1         1.5874110670e-02
  2        -2.2929020726e-01
  3        -1.2582812924e-01
  4         4.9159873419e-02
  5         1.4596727432e-02
  6         1.1876514517e-02
  7        -8.1554379436e-07
  8        -2.3360187665e-04
  9         3.8983936557e-03
 10         4.0343945028e-03
 11        -1.8062102717e-03
 12        -2.9604624814e-03
 13        -3.9817878787e-03
 14         9.5556333356e-04
 15         8.3033874976e-03
 16        -1.2296090601e-01
 17        -9.9456082912e-02
 18        -1.1564108025e-01
 19        -7.3894202665e-02
 20         6.0452461274e-04
 21        -5.0774827937e-02
 22        -9.6323826804e-03
 23        -5.3629344672e-03
 24         2.5421463431e-03
 25        -2.7257689972e-03
 26        -1.8610205598e-03
 27        -1.5635625903e-02
 28         2.1722194167e-03
 29        -1.3288977923e-02
 30         2.0222975050e-01
 31         1.3250750386e-01
 32         1.5015383513e-02
 33        -1.1158300444e-01
 34        -1.5903269633e-02
 35         1.9489551457e-02
 36        -3.0035322731e-02
 37        -2.0463051049e-03
 38        -3.2205612479e-03
 39        -6.5998290175e-04
 40         3.4766918533e-03
 41        -6.6582707779e-03
 42        -1.2424428945e-02
 43        -1.0072089793e-02
 44         2.5033048013e-01
 45         1.4284024122e-01
 46        -7.4172964455e-02
 47         5.2489793873e-02
 48         1.2150191642e-02
 49        -2.2825107549e-02
 50         1.0365380408e-02
 51         2.3025144468e-03