[Molden Format]
[Atoms] (AU)
C    1    6           1.9320146570         2.5970666438        -0.1467719806
C    2    6          -0.8988578934         2.4341859901        -0.1465142786
C    3    6          -2.1131630015         0.1950400176         0.2050171106
C    4    6          -0.8211620683        -2.2931461013         0.0693248159
O    5    8           1.4451933715        -2.7148894710         0.0691731087
H    6    1           2.7360899109         1.0312179011        -1.2821550959
H    7    1           2.7004306844         4.2992906849        -1.0282038725
H    8    1           2.6296448130         2.4196989716         1.8186536633
H    9    1          -2.1732191969        -3.8918292322        -0.2214381967
H   10    1          -4.1760752698         0.1386475664         0.3272490750
H   11    1          -2.0162531781         4.1657666809        -0.4863660832
[GTO]
  1 0
 s    8  1.00
     6665.0000000000         0.0006920000
     1000.0000000000         0.0053290000
      228.0000000000         0.0270770000
       64.7100000000         0.1017180000
       21.0600000000         0.2747400000
        7.4950000000         0.4485640000
        2.7970000000         0.2850740000
        0.5215000000         0.0152040000
 s    8  1.00
     6665.0000000000        -0.0001460000
     1000.0000000000        -0.0011540000
      228.0000000000        -0.0057250000
       64.7100000000        -0.0233120000
       21.0600000000        -0.0639550000
        7.4950000000        -0.1499810000
        2.7970000000        -0.1272620000
        0.5215000000         0.5445290000
 s    1  1.00
        0.1596000000         1.0000000000
 p    3  1.00
        9.4390000000         0.0381090000
        2.0020000000         0.2094800000
        0.5456000000         0.5085570000
 p    1  1.00
        0.1517000000         1.0000000000
 d    1  1.00
        0.5500000000         1.0000000000

  2 0
 s    8  1.00
     6665.0000000000         0.0006920000
     1000.0000000000         0.0053290000
      228.0000000000         0.0270770000
       64.7100000000         0.1017180000
       21.0600000000         0.2747400000
        7.4950000000         0.4485640000
        2.7970000000         0.2850740000
        0.5215000000         0.0152040000
 s    8  1.00
     6665.0000000000        -0.0001460000
     1000.0000000000        -0.0011540000
      228.0000000000        -0.0057250000
       64.7100000000        -0.0233120000
       21.0600000000        -0.0639550000
        7.4950000000        -0.1499810000
        2.7970000000        -0.1272620000
        0.5215000000         0.5445290000
 s    1  1.00
        0.1596000000         1.0000000000
 p    3  1.00
        9.4390000000         0.0381090000
        2.0020000000         0.2094800000
        0.5456000000         0.5085570000
 p    1  1.00
        0.1517000000         1.0000000000
 d    1  1.00
        0.5500000000         1.0000000000

  3 0
 s    8  1.00
     6665.0000000000         0.0006920000
     1000.0000000000         0.0053290000
      228.0000000000         0.0270770000
       64.7100000000         0.1017180000
       21.0600000000         0.2747400000
        7.4950000000         0.4485640000
        2.7970000000         0.2850740000
        0.5215000000         0.0152040000
 s    8  1.00
     6665.0000000000        -0.0001460000
     1000.0000000000        -0.0011540000
      228.0000000000        -0.0057250000
       64.7100000000        -0.0233120000
       21.0600000000        -0.0639550000
        7.4950000000        -0.1499810000
        2.7970000000        -0.1272620000
        0.5215000000         0.5445290000
 s    1  1.00
        0.1596000000         1.0000000000
 p    3  1.00
        9.4390000000         0.0381090000
        2.0020000000         0.2094800000
        0.5456000000         0.5085570000
 p    1  1.00
        0.1517000000         1.0000000000
 d    1  1.00
        0.5500000000         1.0000000000

  4 0
 s    8  1.00
     6665.0000000000         0.0006920000
     1000.0000000000         0.0053290000
      228.0000000000         0.0270770000
       64.7100000000         0.1017180000
       21.0600000000         0.2747400000
        7.4950000000         0.4485640000
        2.7970000000         0.2850740000
        0.5215000000         0.0152040000
 s    8  1.00
     6665.0000000000        -0.0001460000
     1000.0000000000        -0.0011540000
      228.0000000000        -0.0057250000
       64.7100000000        -0.0233120000
       21.0600000000        -0.0639550000
        7.4950000000        -0.1499810000
        2.7970000000        -0.1272620000
        0.5215000000         0.5445290000
 s    1  1.00
        0.1596000000         1.0000000000
 p    3  1.00
        9.4390000000         0.0381090000
        2.0020000000         0.2094800000
        0.5456000000         0.5085570000
 p    1  1.00
        0.1517000000         1.0000000000
 d    1  1.00
        0.5500000000         1.0000000000

  5 0
 s    8  1.00
    11720.0000000000         0.0007100000
     1759.0000000000         0.0054700000
      400.8000000000         0.0278370000
      113.7000000000         0.1048000000
       37.0300000000         0.2830620000
       13.2700000000         0.4487190000
        5.0250000000         0.2709520000
        1.0130000000         0.0154580000
 s    8  1.00
    11720.0000000000        -0.0001600000
     1759.0000000000        -0.0012630000
      400.8000000000        -0.0062670000
      113.7000000000        -0.0257160000
       37.0300000000        -0.0709240000
       13.2700000000        -0.1654110000
        5.0250000000        -0.1169550000
        1.0130000000         0.5573680000
 s    1  1.00
        0.3023000000         1.0000000000
 p    3  1.00
       17.7000000000         0.0430180000
        3.8540000000         0.2289130000
        1.0460000000         0.5087280000
 p    1  1.00
        0.2753000000         1.0000000000
 d    1  1.00
        1.1850000000         1.0000000000

  6 0
 s    3  1.00
       13.0100000000         0.0196850000
        1.9620000000         0.1379770000
        0.4446000000         0.4781480000
 s    1  1.00
        0.1220000000         1.0000000000
 p    1  1.00
        0.7270000000         1.0000000000

  7 0
 s    3  1.00
       13.0100000000         0.0196850000
        1.9620000000         0.1379770000
        0.4446000000         0.4781480000
 s    1  1.00
        0.1220000000         1.0000000000
 p    1  1.00
        0.7270000000         1.0000000000

  8 0
 s    3  1.00
       13.0100000000         0.0196850000
        1.9620000000         0.1379770000
        0.4446000000         0.4781480000
 s    1  1.00
        0.1220000000         1.0000000000
 p    1  1.00
        0.7270000000         1.0000000000

  9 0
 s    3  1.00
       13.0100000000         0.0196850000
        1.9620000000         0.1379770000
        0.4446000000         0.4781480000
 s    1  1.00
        0.1220000000         1.0000000000
 p    1  1.00
        0.7270000000         1.0000000000

  10 0
 s    3  1.00
       13.0100000000         0.0196850000
        1.9620000000         0.1379770000
        0.4446000000         0.4781480000
 s    1  1.00
        0.1220000000         1.0000000000
 p    1  1.00
        0.7270000000         1.0000000000

  11 0
 s    3  1.00
       13.0100000000         0.0196850000
        1.9620000000         0.1379770000
        0.4446000000         0.4781480000
 s    1  1.00
        0.1220000000         1.0000000000
 p    1  1.00
        0.7270000000         1.0000000000

[5D7F]
[9G]

[MO]
 Sym= A
 Ene=        -1.9135882913e+01
 Spin= Alpha
 Occup=         2.0000000000e+00
  1        -7.6395009581e-05
  2        -1.5785893884e-04
  3         5.5016452991e-05
  4         6.0728715001e-05
  5         5.2358779775e-05
  6         1.4207226347e-05
  7        -2.1082216812e-05
  8        -1.6631497007e-04
  9         1.4038450318e-04
 10         7.0234535770e-05
 11         4.3267544791e-05
 12         3.4751374914e-05
 13         6.3600856963e-05
 14        -9.1008096872e-05
 15        -1.9404786698e-04
 16        -3.4552060237e-04
 17         5.0704635651e-03
 18        -1.9099629296e-05
 19        -1.9445105308e-05
 20        -6.5097132835e-05
 21        -7.9605954760e-04
 22        -2.0855133846e-03
 23         5.3537354086e-04
 24        -2.9122123244e-05
 25         4.7693153535e-05
 26        -2.7596437199e-05
 27        -5.8214961539e-05
 28        -6.6627567055e-05
 29         2.0871034999e-04
 30         3.2651230191e-04
 31        -3.3737135080e-03
 32         5.7636499464e-05
 33         2.4338601982e-04
 34        -8.2395828462e-06
 35        -4.3032172959e-03
 36        -3.5411622956e-03
 37         3.2230808276e-04
 38         1.3100733488e-04
 39         6.5385318438e-05
 40         9.0643054666e-05
 41        -4.3848894123e-04
 42         4.7575573435e-04
 43         4.6847421567e-04
 44         6.1682532270e-04
 45         5.1897480756e-03
 46        -9.9326758754e-05
 47        -1.8249850209e-04
 48        -3.8688331601e-05
 49         6.6034013502e-03
 50         3.3571646401e-04
 51         9.0631870394e-06
 52         1.7570972489e-05
 53         3.8193013258e-05
 54         1.0162189163e-04
 55        -1.1347712016e-03
 56         5.2262073037e-04
 57         1.0041699840e+00
 58         9.4719403282e-03
 59        -1.5087628699e-02
 60        -1.8434772118e-03
 61         3.7119975759e-04
 62        -1.2498404759e-05
 63         3.5100584684e-03
 64        -8.4432816431e-04
 65         9.0378554271e-06
 66        -1.8579725231e-05
 67        -1.3029702998e-06
 68        -5.1240470832e-06
 69         6.7144953864e-05
 70         5.5141058098e-06
 71        -1.1624488352e-04
 72        -1.6448667236e-04
 73         4.6490437075e-05
 74        -5.9111384330e-06
 75         2.1446990417e-05
 76         1.1114808398e-04
 77         3.4699256668e-04
 78        -6.9916631511e-05
 79        -5.6397552324e-05
 80         4.7718531240e-05
 81        -1.0284798736e-04
 82        -2.3641240127e-04
 83         6.2527688099e-05
 84         6.3056308915e-05
 85         5.9806207629e-05
 86        -1.5597361108e-04
 87         8.3234500415e-04
 88        -7.5912387593e-04
 89         1.1949515638e-04
 90         1.3601877510e-05
 91        -2.7687761008e-04
 92        -1.3094659750e-03
 93         1.8728090921e-04
 94         2.5462421195e-04
 95        -6.4813732619e-06
 96        -1.7739358010e-04
 97         2.4311616674e-04
 98         3.3420552415e-05
 99         8.4229174589e-05
100        -3.2650712431e-05
 Sym= A
 Ene=        -1.0274249782e+01
 Spin= Alpha
 Occup=         2.0000000000e+00
  1        -3.7840651593e-04
  2        -5.0763624934e-04
  3         9.4601480640e-04
  4         2.7201948078e-04
  5         7.4321604374e-05
  6        -6.7541177646e-07
  7        -7.0336519037e-04
  8        -3.7790203555e-05
  9        -3.2823878293e-06
 10        -3.5055569887e-05
 11        -8.4325776744e-05
 12         3.4588197584e-06
 13        -1.0902103654e-04
 14        -2.3453072758e-06
 15        -4.2395039199e-04
 16        -6.0543712383e-04
 17         5.8336670672e-03
 18        -2.6231413341e-04
 19        -2.1939174372e-05
 20         5.5444839915e-05
 21        -1.9965998698e-03
 22        -3.4981844164e-03
 23         6.4158182067e-04
 24        -3.5808084652e-04
 25        -2.1046341778e-04
 26        -9.4456628832e-05
 27         2.7681372570e-04
 28         3.6396019631e-04
 29         1.5255645579e-03
 30        -2.3701854602e-04
 31        -1.2794540944e-03
 32        -3.3890804237e-04
 33         7.2825010253e-04
 34         6.0957306987e-05
 35        -2.2627513201e-03
 36        -5.7673490877e-03
 37         3.8614378696e-04
 38         9.9902819913e-04
 39         1.8635022600e-05
 40        -4.3158216939e-05
 41         1.1108486497e-03
 42         8.9041350045e-04
 43         1.0059197442e+00
 44         1.5226446865e-02
 45        -1.0740423905e-02
 46         7.3807391063e-04
 47        -5.1365003432e-04
 48        -1.5617245643e-04
 49         5.4023814539e-03
 50        -2.1700559307e-03
 51        -6.5735682389e-05
 52        -1.6017077969e-03
 53         1.7587298927e-04
 54         2.4515116794e-04
 55         9.1582090472e-04
 56        -3.8374492922e-05
 57         3.6041667519e-04
 58         8.9904603254e-04
 59        -5.9475106688e-03
 60         7.5343472993e-04
 61        -2.1620980532e-04
 62        -1.2949148492e-05
 63         3.3959164994e-03
 64        -2.3456032287e-04
 65         6.9456997195e-06
 66         5.6447496829e-04
 67         1.1991630453e-05
 68        -3.0701977689e-05
 69        -7.2388884129e-04
 70         2.6471849394e-04
 71        -1.2248008951e-04
 72        -6.6173160071e-05
 73         2.4178863041e-05
 74         2.9470969908e-06
 75        -6.0492635495e-06
 76        -5.4683367863e-05
 77         3.8303220910e-04
 78        -4.4015688665e-05
 79        -1.6190335583e-05
 80         9.9280663985e-06
 81        -6.2987554637e-05
 82         2.8203705410e-05
 83         1.0646369038e-04
 84         5.4006712930e-05
 85        -5.6674524397e-05
 86        -1.6517216588e-03
 87         2.4396902516e-03
 88        -1.4137538288e-03
 89        -1.4297422970e-03
 90        -2.6999437553e-04
 91        -5.6260433754e-04
 92        -4.7480288513e-04
 93         1.5788346592e-05
 94         2.8996367031e-04
 95        -2.9220506893e-05
 96         2.0544454654e-06
 97         5.6626638681e-04
 98         2.2589250280e-04
 99         8.6742503495e-05
100        -3.2014617140e-05
 Sym= A
 Ene=        -1.0226080777e+01
 Spin= Alpha
 Occup=         2.0000000000e+00
  1         2.7792951430e-03
  2        -3.5848351540e-04
  3         4.4861934518e-03
  4         6.6653408162e-04
  5         2.0319735202e-05
  6         5.9960913982e-05
  7        -2.5777305638e-03
  8        -6.7471460389e-04
  9        -3.3616516146e-04
 10         8.2210580915e-04
 11         2.2936006316e-05
 12         3.9325611018e-05
 13        -9.3404615702e-04
 14        -4.0444191355e-05
 15         1.0063091335e+00
 16         1.6044663045e-02
 17        -2.0350597847e-02
 18        -4.5202897105e-04
 19         1.7258374191e-04
 20        -6.0334073722e-05
 21        -2.4397519632e-03
 22         4.0300033474e-03
 23        -6.2396616930e-04
 24        -9.5842298487e-04
 25         1.7753336606e-04
 26        -4.3408337372e-04
 27        -6.1782313800e-04
 28        -5.0493952583e-04
 29         1.1762668204e-02
 30        -1.1637737697e-03
 31         4.9413524021e-03
 32        -6.7614370475e-04
 33        -1.0368702059e-03
 34         1.6422465748e-04
 35         2.6953140631e-03
 36         2.7350365739e-03
 37        -2.9089289648e-04
 38         8.4727472650e-04
 39         1.3304824695e-04
 40         3.2575863018e-04
 41         4.9080051064e-04
 42        -9.8061149113e-04
 43        -2.5989730569e-04
 44        -5.5556836510e-04
 45         1.0769010007e-03
 46         3.7079365232e-06
 47        -2.2170593502e-04
 48         4.0609817036e-05
 49        -5.8549457184e-04
 50         9.7576509283e-04
 51        -8.1816457855e-05
 52        -3.0139033783e-04
 53        -1.1450273572e-04
 54        -1.4082438381e-05
 55         1.6458396736e-04
 56         3.5307063309e-05
 57        -3.3366509943e-05
 58        -6.9078617309e-05
 59        -3.4444493244e-05
 60         1.1780245806e-04
 61         2.4378033235e-05
 62         1.0772963178e-05
 63        -1.5364403289e-04
 64        -3.7855249070e-04
 65         5.0650821676e-05
 66         1.5657376743e-05
 67        -2.6816339803e-05
 68         4.3227622913e-06
 69         1.2126695454e-05
 70         3.3694066916e-05
 71        -4.5769848539e-04
 72         5.7790842815e-04
 73        -1.2176057165e-04
 74        -3.0289046522e-05
 75         7.2333642822e-05
 76        -2.7633351579e-04
 77         1.7186531447e-04
 78         1.6595361069e-04
 79         1.3994147290e-05
 80         1.0367704407e-04
 81        -4.8929737944e-04
 82         1.1345803761e-03
 83        -1.5057819997e-04
 84         1.4553119606e-06
 85         2.6401804082e-05
 86        -1.1672312516e-04
 87         2.7234148831e-04
 88         4.2974928171e-05
 89        -8.0630451192e-05
 90        -1.8406505408e-05
 91         1.6247496112e-04
 92         9.4133055934e-04
 93         1.6023853714e-04
 94        -2.7643837327e-04
 95        -5.0849954214e-07
 96        -2.4439961276e-03
 97         1.0062924948e-03
 98        -1.2320708437e-03
 99         1.7896956951e-03
100        -3.6325824358e-04
 Sym= A
 Ene=        -1.0200040936e+01
 Spin= Alpha
 Occup=         2.0000000000e+00
  1         1.0185053404e-03
  2         5.1472597292e-04
  3        -3.1669001998e-04
  4        -1.2437109299e-04
  5        -1.4533928310e-04
  6         1.0236403893e-04
  7         9.9566526930e-04
  8         1.7277517467e-04
  9        -4.1870438656e-04
 10         2.8638734174e-04
 11        -4.7806589362e-06
 12         9.0312708578e-05
 13        -2.6748451128e-05
 14         6.2147155332e-05
 15         1.3099640775e-02
 16         1.6007148205e-03
 17        -5.8062164982e-03
 18        -5.4082350145e-04
 19        -1.1575855491e-03
 20         1.8608967816e-04
 21         7.3244128051e-04
 22         3.4980763689e-03
 23        -1.3756620843e-04
 24        -8.8282366659e-04
 25        -2.0606749560e-04
 26        -3.8030673622e-04
 27        -6.4667474983e-04
 28         8.7167582534e-04
 29        -1.0064608569e+00
 30        -1.6448203868e-02
 31         2.0833550241e-02
 32         3.7658181956e-04
 33        -2.2708347931e-04
 34         1.9949930765e-04
 35         5.0864190931e-03
 36         2.3151766350e-04
 37        -1.0849928715e-03
 38         1.0530076876e-03
 39         1.6617505025e-04
 40         1.0860648105e-04
 41        -4.9308414244e-04
 42        -4.8056960037e-04
 43         1.8131706589e-03
 44         7.3269294973e-04
 45        -5.6374140513e-03
 46        -2.4265919346e-04
 47         6.6010655769e-04
 48         6.4026926417e-05
 49        -1.7151391427e-04
 50        -3.4006858355e-03
 51         4.1539650034e-05
 52        -6.7407595088e-04
 53        -1.9255922199e-04
 54         1.0769741626e-04
 55        -5.3293461550e-04
 56        -1.2245972792e-03
 57        -4.4147122109e-05
 58        -7.7425940206e-05
 59         6.9198093917e-04
 60        -7.1771994001e-06
 61         5.7400626125e-05
 62         4.1434252452e-05
 63         1.3507434316e-04
 64         6.8813663497e-04
 65        -4.7273580238e-05
 66         1.2214127579e-04
 67        -3.8786166778e-05
 68        -6.7758408436e-06
 69        -9.5190256747e-05
 70        -2.3090468840e-04
 71         7.3022420909e-05
 72        -3.4555559670e-04
 73        -2.1636916842e-05
 74        -1.2027925955e-04
 75         3.3924845810e-05
 76        -5.3043396331e-05
 77        -4.2935561154e-04
 78        -5.0617908635e-05
 79         5.0010062021e-05
 80         3.7319095729e-05
 81         1.2401078449e-04
 82        -1.8411675078e-04
 83        -4.3443416238e-05
 84        -8.0563271190e-05
 85         1.3159029692e-04
 86         3.3562360201e-04
 87        -9.3225278915e-04
 88        -5.4634304270e-05
 89         1.9919527444e-04
 90        -2.9593087155e-05
 91         2.4896409538e-03
 92        -8.9186296579e-04
 93         2.1859538300e-03
 94        -5.8763533510e-05
 95        -4.2807683330e-05
 96        -9.5205486750e-05
 97        -7.5864068438e-04
 98        -3.0365407747e-04
 99         1.8062768599e-05
100        -6.5922043607e-05
 Sym= A
 Ene=        -1.0189186288e+01
 Spin= Alpha
 Occup=         2.0000000000e+00
  1         1.0069756156e+00
  2         1.7405259751e-02
  3        -1.8838935567e-02
  4         4.4529310100e-04
  5         7.5591111140e-05
  6         6.9610067471e-06
  7         2.7480844142e-03
  8         3.7280441472e-04
  9        -1.4806643236e-04
 10         4.4367308846e-04
 11        -1.3930773183e-04
 12        -1.7281379320e-04
 13        -4.5576158077e-04
 14         1.8864032876e-04
 15        -2.9097465617e-03
 16        -1.9061890791e-04
 17         1.3246768945e-03
 18        -4.7699873057e-04
 19         3.9752514230e-05
 20        -2.0024053077e-05
 21         3.7557247083e-03
 22         2.5331836061e-03
 23        -4.0427602317e-04
 24         6.2063119591e-04
 25         1.0611912966e-05
 26        -2.7811332136e-05
 27        -1.3050455580e-03
 28        -2.9247375353e-04
 29         2.8130675338e-04
 30        -7.4709301674e-04
 31         3.8046585288e-03
 32        -2.6600323803e-04
 33         2.1439398813e-06
 34        -4.2071840318e-06
 35         1.4012295906e-03
 36         2.5315076579e-03
 37        -3.8914066138e-04
 38        -3.7299234092e-04
 39         2.9340974307e-05
 40        -1.1885992509e-04
 41        -3.0353155209e-04
 42        -1.9131187533e-04
 43        -1.3364676853e-04
 44        -5.1104703269e-04
 45         2.9695295860e-04
 46        -8.2810465450e-05
 47        -2.7017859034e-04
 48        -4.4968787401e-05
 49        -1.2949146896e-04
 50         5.0832929966e-04
 51         1.5035528285e-04
 52        -6.4958043446e-05
 53        -3.1795101012e-05
 54        -3.8659326766e-05
 55         3.7276188323e-05
 56         3.3379861005e-05
 57        -1.0566569661e-04
 58        -2.0601894919e-04
 59         3.1547610686e-04
 60         3.3032693745e-05
 61        -1.1721424973e-04
 62        -2.4357252538e-05
 63        -2.2437610629e-04
 64         2.5905840012e-04
 65         7.0277829594e-05
 66        -5.6258626700e-05
 67        -7.5693184660e-07
 68         8.5732415672e-06
 69        -2.7539557190e-06
 70        -2.8293594134e-06
 71        -9.7278808700e-04
 72         2.0687192872e-03
 73         5.3386554593e-04
 74        -1.4320238253e-03
 75        -9.5214854802e-04
 76        -1.5218019438e-03
 77         1.7922909045e-03
 78         6.4350325854e-04
 79         1.7568509326e-03
 80        -8.5078971528e-04
 81        -1.1715115201e-03
 82         2.2671876713e-03
 83         5.1236376229e-04
 84        -2.1640132231e-04
 85         1.8411787656e-03
 86         3.7848573511e-05
 87         4.2738564282e-04
 88         1.3011207982e-05
 89         6.3100709789e-05
 90        -1.5980871151e-05
 91        -1.4596752065e-06
 92         5.6636256607e-04
 93         3.0257561458e-05
 94        -1.8542239670e-04
 95         3.2275719336e-05
 96        -4.1715458150e-04
 97        -2.6888919949e-05
 98        -3.9839087883e-04
 99        -1.7575408509e-04
100         2.3441730790e-05
 Sym= A
 Ene=        -1.0396678607e+00
 Spin= Alpha
 Occup=         2.0000000000e+00
  1        -4.3224343736e-04
  2         8.1138678978e-03
  3         4.7572947960e-03
  4        -3.2586361462e-03
  5        -3.8972067650e-03
  6        -1.9989974356e-04
  7        -2.2417966692e-03
  8        -1.1223652616e-03
  9         8.0336208170e-04
 10        -7.0075045979e-04
 11        -8.2940660122e-05
 12        -1.3941607304e-04
 13         4.3037300902e-05
 14         7.9924209150e-04
 15         5.5247650781e-04
 16         1.6008144732e-02
 17        -1.1548645663e-02
 18         5.8468565739e-04
 19        -1.0070871603e-02
 20         1.1489152705e-03
 21        -1.6898461281e-03
 22         9.3809206324e-03
 23        -1.4562532985e-03
 24        -4.5043901071e-04
 25        -2.3493107918e-04
 26        -4.7178500951e-04
 27        -1.3289692597e-03
 28         7.4907285719e-04
 29        -3.6245204924e-03
 30         3.3952479895e-02
 31         3.0039720389e-02
 32         2.0121217355e-02
 33        -1.8164544720e-02
 34        -1.6010905245e-03
 35         1.9308809197e-02
 36         2.6633185130e-03
 37        -2.2333117749e-03
 38        -3.6472696729e-03
 39        -6.8659113446e-04
 40         1.0388086165e-04
 41         3.2183247298e-04
 42        -8.9335893731e-03
 43        -1.4627116704e-02
 44         2.2395801500e-01
 45         9.5253284952e-02
 46         1.8462959852e-01
 47        -2.6688200193e-02
 48        -2.8328676595e-05
 49         1.2342529680e-02
 50        -1.9450732888e-03
 51         7.9973707685e-04
 52        -1.3997260368e-02
 53        -8.7159826377e-04
 54        -1.5088178326e-03
 55         3.1207952473e-02
 56        -1.4125698877e-02
 57        -9.1620393726e-03
 58         4.0274166027e-01
 59         3.6104321921e-01
 60        -1.5513267925e-01
 61         3.2045792216e-02
 62        -5.8449178588e-04
 63        -3.1693201851e-02
 64         7.4397897650e-03
 65        -8.5153935005e-04
 66        -5.4095540593e-03
 67        -1.9319301250e-04
 68        -7.6779201909e-04
 69         1.2006877203e-02
 70        -5.1859234375e-03
 71         7.4282610557e-03
 72         3.9718772342e-03
 73        -6.8901405977e-04
 74        -4.3250875724e-04
 75         7.2174172363e-04
 76         1.1386766583e-03
 77        -7.0176782849e-04
 78         5.8878584690e-06
 79        -4.1748317876e-05
 80        -8.5607675590e-05
 81         2.7101136458e-03
 82         6.3327927666e-04
 83        -3.2140041895e-04
 84        -3.5435795652e-04
 85        -5.4348041143e-04
 86         4.0195712956e-02
 87        -3.1820647325e-03
 88         1.0087554414e-02
 89         5.9757212705e-03
 90         1.1496532628e-03
 91         6.7326000720e-03
 92         6.0543766343e-03
 93         8.6744673415e-04
 94        -1.9432565187e-03
 95        -7.6824920152e-05
 96         1.6833099985e-03
 97        -3.0757036361e-03
 98        -1.6382145064e-04
 99        -7.9798727668e-04
100         1.4943821024e-04
 Sym= A
 Ene=        -8.0960732059e-01
 Spin= Alpha
 Occup=         2.0000000000e+00
  1         1.1226936328e-02
  2        -1.8109483949e-01
  3        -7.7390810522e-02
  4         6.7508763009e-02
  5         1.2242700480e-02
  6        -1.2542451617e-03
  7         3.2178227462e-03
  8        -7.2914757071e-03
  9         1.4313847583e-03
 10         6.0847435152e-03
 11         1.0093565823e-04
 12        -1.5709576043e-04
 13        -9.9402566267e-03
 14        -2.6601826838e-03
 15         1.9388421719e-02
 16        -2.8821243543e-01
 17        -2.0522268531e-01
 18        -7.2969069405e-03
 19         7.2917912477e-02
 20        -1.0133991943e-02
 21        -2.9506164570e-02
 22         2.5691765157e-02
 23        -4.4573822184e-03
 24         9.9780631482e-03
 25         1.2843464281e-03
 26         2.0312331239e-03
 27        -2.1149062493e-03
 28        -9.2120826910e-03
 29         1.6810147824e-02
 30        -2.5472124023e-01
 31        -1.3938117416e-01
 32        -5.7905488127e-02
 33        -5.6574548546e-02
 34         1.7278299731e-02
 35        -3.7187238889e-03
 36        -1.8534499170e-02
 37         4.2118366158e-03
 38         6.8654339748e-03
 39         1.7865269677e-03
 40         2.2843504831e-03
 41         8.8826738611e-03
 42        -8.1377011908e-03
 43         2.6035005818e-03
 44        -6.6050374476e-02
 45        -5.0404938447e-02
 46         7.2744954033e-02
 47        -7.9686026694e-02
 48        -5.2384722430e-04
 49         2.3069740301e-02
 50        -2.2168328589e-02
 51        -1.7014342433e-03
 52         2.7264469127e-03
 53         2.7135014356e-04
 54        -4.6025722574e-04
 55         1.2864125125e-02
 56         3.5026437735e-03
 57        -3.0126715087e-04
 58         7.5564451420e-02
 59         7.2784541688e-02
 60        -1.1832011597e-02
 61        -1.6123894848e-02
 62         2.9432535053e-04
 63         1.3022191772e-03
 64        -7.2299663222e-03
 65         5.6427529261e-04
 66         1.6393964550e-04
 67        -2.7589015625e-05
 68        -2.9904703084e-05
 69         1.6989245885e-03
 70         1.5769959848e-03
 71        -6.7242387227e-02
 72        -2.1554357563e-03
 73         4.4921898630e-03
 74        -7.5904862272e-03
 75        -5.3021961682e-03
 76        -6.0553078013e-02
 77        -2.1251660565e-03
 78         5.0659087022e-03
 79         7.8604103129e-03
 80        -3.5754430060e-03
 81        -6.7327991001e-02
 82        -2.6179047467e-03
 83         4.3164381116e-03
 84        -1.7899381077e-04
 85         9.2452214171e-03
 86        -2.0201374009e-02
 87        -9.3968207260e-05
 88        -1.2750870111e-04
 89        -3.6604064016e-03
 90        -2.4541826379e-04
 91        -8.3391928036e-02
 92        -3.1666591111e-03
 93        -1.4016069503e-02
 94        -2.0844443673e-03
 95         1.1585397482e-03
 96        -9.5321793946e-02
 97        -1.2765926247e-02
 98        -6.7316423319e-03
 99         1.3184911767e-02
100        -2.4353696486e-03
 Sym= A
 Ene=        -7.1409562424e-01
 Spin= Alpha
 Occup=         2.0000000000e+00
  1         1.4388032301e-02
  2        -2.8289949766e-01
  3        -1.2560382190e-01
  4         1.6931501200e-02
  5        -1.0546349226e-02
  6         2.9396834856e-03
  7        -1.3407304787e-02
  8        -4.4112301074e-03
  9        -3.0878283505e-03
 10         1.7935453958e-03
 11        -3.2257668604e-04
 12        -8.4417526066e-05
 13        -2.7438236846e-03
 14         2.2695786182e-03
 15         5.3624452688e-03
 16        -5.3813350364e-02
 17        -8.5123399993e-02
 18        -1.3430093996e-01
 19        -8.6501014862e-02
 20         1.0298382363e-02
 21        -8.6110135651e-02
 22        -6.5350933817e-03
 23         2.1202584443e-03
 24         3.6825105990e-03
 25        -4.8789498537e-04
 26        -1.2624471553e-03
 27        -1.7790420441e-02
 28         4.4679719864e-03
 29        -1.3365642898e-02
 30         2.2654140828e-01
 31         1.6836456532e-01
 32        -7.8804484851e-03
 33        -6.3133747608e-02
 34        -6.4071680458e-03
 35         3.4167868406e-02
 36        -3.6657753818e-02
 37        -2.2612050037e-03
 38        -4.3612384161e-03
 39        -1.6732792828e-04
 40         7.5030225953e-04
 41        -9.3965326093e-03
 42        -6.5764365218e-03
 43        -3.0966308309e-03
 44         1.6069298815e-01
 45         7.2227570060e-02
 46        -1.1241546910e-01
 47         7.2008632867e-02
 48         1.8368980736e-03
 49        -3.8814663853e-02
 50         8.5037134344e-03
 51        -8.9483841321e-04