Generated by Psi4
        SP                           RHF                       CC-PVDZ
Number of atoms                            I               11
Charge                                     I                0
Multiplicity                               I                1
Number of electrons                        I               38
Number of alpha electrons                  I               19
Number of beta electrons                   I               19
Number of basis functions                  I              100
Number of independent functions            I              100
Atomic numbers                             I   N=          11
           6           6           6           6           8           1
           1           1           1           1           1
Nuclear charges                            R   N=          11
  6.00000000e+00  6.00000000e+00  6.00000000e+00  6.00000000e+00  8.00000000e+00
  1.00000000e+00  1.00000000e+00  1.00000000e+00  1.00000000e+00  1.00000000e+00
  1.00000000e+00
Current cartesian coordinates              R   N=          33
  1.86987985e+00  2.55195795e+00 -9.50573690e-02 -9.32132139e-01  2.42977200e+00
 -1.31402679e-01 -2.12274628e+00  1.95003221e-01  2.55403887e-01 -7.76160797e-01
 -2.26872697e+00  6.94657590e-02  1.48903346e+00 -2.67416559e+00 -1.38693490e-02
  2.64578749e+00  9.17779793e-01 -1.23378192e+00  2.71571807e+00  4.20383141e+00
 -1.04371725e+00  2.65935799e+00  2.32703462e+00  1.82368758e+00 -2.08926413e+00
 -3.89499284e+00 -2.48527791e-01 -4.19733441e+00  1.21126741e-01  3.50943394e-01
 -2.01511806e+00  4.14103712e+00 -6.00233602e-01
Integer atomic weights                     I   N=          11
          12          12          12          12          16           1
           1           1           1           1           1
Real atomic weights                        R   N=          11
  1.20000000e+01  1.20000000e+01  1.20000000e+01  1.20000000e+01  1.59949146e+01
  1.00782503e+00  1.00782503e+00  1.00782503e+00  1.00782503e+00  1.00782503e+00
  1.00782503e+00
Number of primitive shells                 I              140
Number of contracted shells                I               48
Pure/Cartesian d shells                    I                0
Pure/Cartesian f shells                    I                0
Highest angular momentum                   I                2
Largest degree of contraction              I                8
Shell types                                I   N=          48
           0           0           0           1           1          -2
           0           0           0           1           1          -2
           0           0           0           1           1          -2
           0           0           0           1           1          -2
           0           0           0           1           1          -2
           0           0           1           0           0           1
           0           0           1           0           0           1
           0           0           1           0           0           1
Number of primitives per shell             I   N=          48
           8           8           1           3           1           1
           8           8           1           3           1           1
           8           8           1           3           1           1
           8           8           1           3           1           1
           8           8           1           3           1           1
           3           1           1           3           1           1
           3           1           1           3           1           1
           3           1           1           3           1           1
Shell to atom map                          I   N=          48
           1           1           1           1           1           1
           2           2           2           2           2           2
           3           3           3           3           3           3
           4           4           4           4           4           4
           5           5           5           5           5           5
           6           6           6           7           7           7
           8           8           8           9           9           9
          10          10          10          11          11          11
Primitive exponents                        R   N=         140
  6.66500000e+03  1.00000000e+03  2.28000000e+02  6.47100000e+01  2.10600000e+01
  7.49500000e+00  2.79700000e+00  5.21500000e-01  6.66500000e+03  1.00000000e+03
  2.28000000e+02  6.47100000e+01  2.10600000e+01  7.49500000e+00  2.79700000e+00
  5.21500000e-01  1.59600000e-01  9.43900000e+00  2.00200000e+00  5.45600000e-01
  1.51700000e-01  5.50000000e-01  6.66500000e+03  1.00000000e+03  2.28000000e+02
  6.47100000e+01  2.10600000e+01  7.49500000e+00  2.79700000e+00  5.21500000e-01
  6.66500000e+03  1.00000000e+03  2.28000000e+02  6.47100000e+01  2.10600000e+01
  7.49500000e+00  2.79700000e+00  5.21500000e-01  1.59600000e-01  9.43900000e+00
  2.00200000e+00  5.45600000e-01  1.51700000e-01  5.50000000e-01  6.66500000e+03
  1.00000000e+03  2.28000000e+02  6.47100000e+01  2.10600000e+01  7.49500000e+00
  2.79700000e+00  5.21500000e-01  6.66500000e+03  1.00000000e+03  2.28000000e+02
  6.47100000e+01  2.10600000e+01  7.49500000e+00  2.79700000e+00  5.21500000e-01
  1.59600000e-01  9.43900000e+00  2.00200000e+00  5.45600000e-01  1.51700000e-01
  5.50000000e-01  6.66500000e+03  1.00000000e+03  2.28000000e+02  6.47100000e+01
  2.10600000e+01  7.49500000e+00  2.79700000e+00  5.21500000e-01  6.66500000e+03
  1.00000000e+03  2.28000000e+02  6.47100000e+01  2.10600000e+01  7.49500000e+00
  2.79700000e+00  5.21500000e-01  1.59600000e-01  9.43900000e+00  2.00200000e+00
  5.45600000e-01  1.51700000e-01  5.50000000e-01  1.17200000e+04  1.75900000e+03
  4.00800000e+02  1.13700000e+02  3.70300000e+01  1.32700000e+01  5.02500000e+00
  1.01300000e+00  1.17200000e+04  1.75900000e+03  4.00800000e+02  1.13700000e+02
  3.70300000e+01  1.32700000e+01  5.02500000e+00  1.01300000e+00  3.02300000e-01
  1.77000000e+01  3.85400000e+00  1.04600000e+00  2.75300000e-01  1.18500000e+00
  1.30100000e+01  1.96200000e+00  4.44600000e-01  1.22000000e-01  7.27000000e-01
  1.30100000e+01  1.96200000e+00  4.44600000e-01  1.22000000e-01  7.27000000e-01
  1.30100000e+01  1.96200000e+00  4.44600000e-01  1.22000000e-01  7.27000000e-01
  1.30100000e+01  1.96200000e+00  4.44600000e-01  1.22000000e-01  7.27000000e-01
  1.30100000e+01  1.96200000e+00  4.44600000e-01  1.22000000e-01  7.27000000e-01
  1.30100000e+01  1.96200000e+00  4.44600000e-01  1.22000000e-01  7.27000000e-01
Contraction coefficients                   R   N=         140
  6.91583963e-04  5.32579615e-03  2.70607210e-02  1.01656846e-01  2.74574824e-01
  4.48294319e-01  2.84902611e-01  1.51948592e-02 -2.93269653e-04 -2.31803547e-03
 -1.14997860e-02 -4.68267270e-02 -1.28466169e-01 -3.01266272e-01 -2.55630702e-01
  1.09379336e+00  1.00000000e+00  5.69792516e-02  3.13207212e-01  7.60376742e-01
  1.00000000e+00  1.00000000e+00  6.91583963e-04  5.32579615e-03  2.70607210e-02
  1.01656846e-01  2.74574824e-01  4.48294319e-01  2.84902611e-01  1.51948592e-02
 -2.93269653e-04 -2.31803547e-03 -1.14997860e-02 -4.68267270e-02 -1.28466169e-01
 -3.01266272e-01 -2.55630702e-01  1.09379336e+00  1.00000000e+00  5.69792516e-02
  3.13207212e-01  7.60376742e-01  1.00000000e+00  1.00000000e+00  6.91583963e-04
  5.32579615e-03  2.70607210e-02  1.01656846e-01  2.74574824e-01  4.48294319e-01
  2.84902611e-01  1.51948592e-02 -2.93269653e-04 -2.31803547e-03 -1.14997860e-02
 -4.68267270e-02 -1.28466169e-01 -3.01266272e-01 -2.55630702e-01  1.09379336e+00
  1.00000000e+00  5.69792516e-02  3.13207212e-01  7.60376742e-01  1.00000000e+00
  1.00000000e+00  6.91583963e-04  5.32579615e-03  2.70607210e-02  1.01656846e-01
  2.74574824e-01  4.48294319e-01  2.84902611e-01  1.51948592e-02 -2.93269653e-04
 -2.31803547e-03 -1.14997860e-02 -4.68267270e-02 -1.28466169e-01 -3.01266272e-01
 -2.55630702e-01  1.09379336e+00  1.00000000e+00  5.69792516e-02  3.13207212e-01
  7.60376742e-01  1.00000000e+00  1.00000000e+00  7.09645947e-04  5.46727229e-03
  2.78231186e-02  1.04747740e-01  2.82920846e-01  4.48495239e-01  2.70816885e-01
  1.54502916e-02 -3.14443412e-04 -2.48213768e-03 -1.23163554e-02 -5.05389173e-02
 -1.39384903e-01 -3.25077495e-01 -2.29848308e-01  1.09537935e+00  1.00000000e+00
  6.26791663e-02  3.33536566e-01  7.41239642e-01  1.00000000e+00  1.00000000e+00
  3.34987264e-02  2.34800801e-01  8.13682958e-01  1.00000000e+00  1.00000000e+00
  3.34987264e-02  2.34800801e-01  8.13682958e-01  1.00000000e+00  1.00000000e+00
  3.34987264e-02  2.34800801e-01  8.13682958e-01  1.00000000e+00  1.00000000e+00
  3.34987264e-02  2.34800801e-01  8.13682958e-01  1.00000000e+00  1.00000000e+00
  3.34987264e-02  2.34800801e-01  8.13682958e-01  1.00000000e+00  1.00000000e+00
  3.34987264e-02  2.34800801e-01  8.13682958e-01  1.00000000e+00  1.00000000e+00
Coordinates of each shell                  R   N=         144
  1.86987985e+00  2.55195795e+00 -9.50573690e-02  1.86987985e+00  2.55195795e+00
 -9.50573690e-02  1.86987985e+00  2.55195795e+00 -9.50573690e-02  1.86987985e+00
  2.55195795e+00 -9.50573690e-02  1.86987985e+00  2.55195795e+00 -9.50573690e-02
  1.86987985e+00  2.55195795e+00 -9.50573690e-02 -9.32132139e-01  2.42977200e+00
 -1.31402679e-01 -9.32132139e-01  2.42977200e+00 -1.31402679e-01 -9.32132139e-01
  2.42977200e+00 -1.31402679e-01 -9.32132139e-01  2.42977200e+00 -1.31402679e-01
 -9.32132139e-01  2.42977200e+00 -1.31402679e-01 -9.32132139e-01  2.42977200e+00
 -1.31402679e-01 -2.12274628e+00  1.95003221e-01  2.55403887e-01 -2.12274628e+00
  1.95003221e-01  2.55403887e-01 -2.12274628e+00  1.95003221e-01  2.55403887e-01
 -2.12274628e+00  1.95003221e-01  2.55403887e-01 -2.12274628e+00  1.95003221e-01
  2.55403887e-01 -2.12274628e+00  1.95003221e-01  2.55403887e-01 -7.76160797e-01
 -2.26872697e+00  6.94657590e-02 -7.76160797e-01 -2.26872697e+00  6.94657590e-02
 -7.76160797e-01 -2.26872697e+00  6.94657590e-02 -7.76160797e-01 -2.26872697e+00
  6.94657590e-02 -7.76160797e-01 -2.26872697e+00  6.94657590e-02 -7.76160797e-01
 -2.26872697e+00  6.94657590e-02  1.48903346e+00 -2.67416559e+00 -1.38693490e-02
  1.48903346e+00 -2.67416559e+00 -1.38693490e-02  1.48903346e+00 -2.67416559e+00
 -1.38693490e-02  1.48903346e+00 -2.67416559e+00 -1.38693490e-02  1.48903346e+00
 -2.67416559e+00 -1.38693490e-02  1.48903346e+00 -2.67416559e+00 -1.38693490e-02
  2.64578749e+00  9.17779793e-01 -1.23378192e+00  2.64578749e+00  9.17779793e-01
 -1.23378192e+00  2.64578749e+00  9.17779793e-01 -1.23378192e+00  2.71571807e+00
  4.20383141e+00 -1.04371725e+00  2.71571807e+00  4.20383141e+00 -1.04371725e+00
  2.71571807e+00  4.20383141e+00 -1.04371725e+00  2.65935799e+00  2.32703462e+00
  1.82368758e+00  2.65935799e+00  2.32703462e+00  1.82368758e+00  2.65935799e+00
  2.32703462e+00  1.82368758e+00 -2.08926413e+00 -3.89499284e+00 -2.48527791e-01
 -2.08926413e+00 -3.89499284e+00 -2.48527791e-01 -2.08926413e+00 -3.89499284e+00
 -2.48527791e-01 -4.19733441e+00  1.21126741e-01  3.50943394e-01 -4.19733441e+00
  1.21126741e-01  3.50943394e-01 -4.19733441e+00  1.21126741e-01  3.50943394e-01
 -2.01511806e+00  4.14103712e+00 -6.00233602e-01 -2.01511806e+00  4.14103712e+00
 -6.00233602e-01 -2.01511806e+00  4.14103712e+00 -6.00233602e-01
Total Energy                               R     -2.312319321614459e+02
Alpha Orbital Energies                     R   N=         100
 -1.91365538e+01 -1.02750135e+01 -1.02247831e+01 -1.02008041e+01 -1.01879506e+01
 -1.04183553e+00 -8.12961246e-01 -7.12208299e-01 -6.25052814e-01 -5.36179137e-01
 -4.98312532e-01 -4.40858422e-01 -4.32771816e-01 -4.23668273e-01 -3.86805472e-01
 -3.77576233e-01 -3.65937607e-01 -2.74831154e-01 -2.46683313e-01 -6.50816909e-02
  4.28846409e-02  6.46742754e-02  9.04737761e-02  1.04726834e-01  1.28367143e-01
  1.43998128e-01  1.58914379e-01  2.15455273e-01  2.63113799e-01  3.20402008e-01
  3.38253730e-01  4.34017605e-01  4.40825694e-01  4.48050809e-01  4.74620706e-01
  4.85310735e-01  5.07204560e-01  5.25030221e-01  5.70167785e-01  5.90893815e-01
  6.12216392e-01  6.20776823e-01  6.46705381e-01  6.49066603e-01  6.67313009e-01
  6.85376135e-01  7.05174568e-01  7.65211072e-01  7.89996677e-01  8.52602389e-01
  8.89499227e-01  9.11228309e-01  9.61944558e-01  1.02749882e+00  1.03068496e+00
  1.06999558e+00  1.07591285e+00  1.13492902e+00  1.18123177e+00  1.20144529e+00
  1.27682304e+00  1.34493234e+00  1.40406959e+00  1.47177796e+00  1.48245519e+00
  1.52563224e+00  1.54230866e+00  1.55585828e+00  1.61475693e+00  1.62283969e+00
  1.64531058e+00  1.67023626e+00  1.68120475e+00  1.70908150e+00  1.71852037e+00
  1.75138614e+00  1.78160561e+00  1.78869678e+00  1.84971933e+00  1.92163120e+00
  1.96172499e+00  1.99698170e+00  2.02006182e+00  2.05233558e+00  2.06718746e+00
  2.24479617e+00  2.31432987e+00  2.33578537e+00  2.37875008e+00  2.38802877e+00
  2.40443897e+00  2.46568539e+00  2.54927329e+00  2.63985811e+00  2.70265517e+00
  2.78453456e+00  2.98989348e+00  3.06856045e+00  3.40725361e+00  3.46627318e+00
Alpha MO coefficients                      R   N=       10000
 -8.49644439e-05 -1.70877127e-04  1.44502466e-04  6.53187524e-05  5.90922309e-05
  1.62969088e-06 -2.98875413e-05 -1.72529630e-04  1.29087465e-04  7.14774389e-05
  3.48461614e-05  3.02819235e-05  7.32791948e-05 -9.42558987e-05 -1.78766272e-04
 -3.17102131e-04  4.91684885e-03 -1.67875979e-05 -2.02297923e-05 -7.37881617e-05
 -7.84945902e-04 -2.02519530e-03  5.77992599e-04 -2.49657336e-05  6.21047301e-05
 -3.85830738e-05 -6.92802759e-05 -7.94799537e-05  2.14634302e-04  3.39087120e-04
 -3.23501802e-03  6.71156014e-05  2.24610603e-04 -2.17009577e-06 -4.14933754e-03
 -3.54604745e-03  3.82917989e-04  1.32418941e-04  8.38832697e-05  8.33262114e-05
 -4.79733929e-04  4.44324912e-04  4.69920786e-04  6.16831192e-04  5.21513978e-03
 -9.91524992e-05 -1.81748271e-04 -4.68009224e-05  6.47491105e-03  2.50082120e-04
 -2.09245830e-04  2.71654187e-05  7.85422353e-05  1.11144654e-04 -1.13978855e-03
  5.20887689e-04  1.00417082e+00  9.47755434e-03 -1.50417773e-02 -1.84634979e-03
  3.71344296e-04  5.27756629e-05  3.50472581e-03 -8.17305352e-04 -1.17750255e-04
 -1.74008879e-05 -7.48055857e-06 -6.17262389e-06  6.91118680e-05  6.00409017e-06
 -1.18397447e-04 -1.67472319e-04  2.33775170e-05 -8.59881331e-05  4.84724712e-05
  9.41593069e-05  3.21912271e-04 -7.05037056e-05 -4.08253863e-05  5.19659044e-05
 -1.11444079e-04 -2.40717264e-04  6.36605382e-05  6.66870956e-05  6.09962350e-05
 -2.26160896e-04  7.14789501e-04 -7.51498248e-04  8.24269049e-05  3.36460847e-05
 -2.60221608e-04 -1.27677200e-03  1.88256123e-04  2.57465758e-04 -1.62175705e-05
 -1.79424234e-04  2.57147206e-04  3.19324752e-05  8.55035731e-05 -3.73266635e-05
 -4.03588111e-04 -5.51814985e-04  1.06995394e-03  2.67677804e-04  8.25885460e-05
 -6.66727158e-06 -7.50063831e-04 -1.00914445e-04 -6.39630367e-05 -6.64041843e-05
 -1.13412837e-04 -9.78611399e-06 -1.06299013e-04  1.95220004e-05 -4.17929616e-04
 -6.06113871e-04  5.61370878e-03 -2.51564379e-04 -1.61637274e-05  5.59611753e-05
 -1.96169731e-03 -3.39620632e-03  7.06158707e-04 -3.44047340e-04 -2.30969360e-04
 -8.41724744e-05  2.72725905e-04  3.48534632e-04  1.48362909e-03 -2.34517333e-04
 -1.15746470e-03 -3.45537543e-04  7.25762251e-04  7.67436194e-05 -2.14505153e-03
 -5.64665882e-03  3.78359683e-04  9.88333589e-04  4.87603943e-05 -6.56725024e-05
  1.07202750e-03  9.49632849e-04  1.00591702e+00  1.52184874e-02 -1.06532663e-02
  7.88552139e-04 -4.97553522e-04 -2.33703157e-04  5.34026113e-03 -2.17152033e-03
 -1.92330712e-04 -1.57855647e-03  6.96517103e-05  3.06701789e-04  8.88719909e-04
 -7.08343289e-05  3.54572977e-04  8.92910743e-04 -5.92401091e-03  7.53815530e-04
 -2.03270063e-04 -3.59152909e-05  3.40202899e-03 -1.87134861e-04 -1.45319394e-04
  5.58216378e-04  7.62428176e-05 -4.60801837e-05 -7.27726908e-04  2.36584772e-04
 -1.19411669e-04 -1.37258486e-04 -2.07173229e-05 -3.19005661e-05 -1.83026596e-06
 -7.71885174e-05  3.85554797e-04 -3.64648042e-05  6.63705796e-07  9.08253998e-06
 -3.90698143e-05  7.62197071e-05  9.70052365e-05  6.34130152e-05 -7.70841441e-05
 -1.64048990e-03  2.37162022e-03 -1.37766917e-03 -1.41884571e-03 -2.91134499e-04
 -5.66643123e-04 -4.85941732e-04  1.91004307e-06  3.04358369e-04 -2.79790559e-05
  2.10881217e-05  5.51344173e-04  2.26194119e-04  7.91878074e-05 -3.22386584e-05
  3.12193090e-03 -3.98106621e-04  4.67802173e-03  7.17746020e-04  4.21134079e-06
  6.21842409e-05 -2.71250207e-03 -6.06045479e-04 -1.79912478e-04  8.84675093e-04
 -1.30828560e-05  3.92006524e-05 -9.32107963e-04 -5.85689947e-05  1.00636198e+00
  1.62221573e-02 -2.05092586e-02 -4.05741546e-04  1.57584814e-04 -1.47684115e-04
 -2.56527156e-03  4.07590394e-03 -7.63658133e-04 -9.41936326e-04  2.43684193e-04
 -5.98662291e-04 -6.58660092e-04 -5.34659597e-04  1.34346292e-02 -1.12413308e-03
  4.84004151e-03 -6.68876693e-04 -1.06863178e-03  1.71058597e-04  2.51046990e-03
  2.76060707e-03 -2.57638283e-04  8.64443474e-04  1.28305570e-04  3.47282453e-04
  4.54447741e-04 -9.92527998e-04 -2.76637319e-04 -5.72358419e-04  1.15555420e-03
  2.03871182e-05 -2.17991543e-04  3.97897996e-05 -6.75159057e-04  1.03903337e-03
 -1.02933885e-04 -2.89748556e-04 -1.24913733e-04 -2.38618691e-05  1.25137119e-04
  9.64398987e-05 -2.65002003e-05 -5.46499877e-05 -1.15608072e-05  1.13382054e-04
  3.35269980e-05  3.81407419e-06 -1.94372484e-04 -4.34530021e-04  7.09801423e-05
  1.60793458e-05 -2.48730241e-05  1.73967631e-06  2.20386776e-05  4.05010209e-05
 -4.37071996e-04  7.31540865e-04 -1.66283244e-04 -4.85812317e-05  6.49349533e-05
 -2.35252247e-04  2.09129259e-04  1.76465148e-04 -3.81667681e-06  1.23435716e-04
 -5.26109615e-04  9.97235608e-04 -4.50427938e-05  1.23261947e-05  5.59262598e-06
 -1.46270802e-04  2.56273863e-04  3.75626836e-05 -9.63735376e-05 -2.16124664e-05
  1.71927143e-04  8.64001146e-04  1.75984619e-04 -2.72849411e-04 -9.51731209e-07
 -2.55772764e-03  9.89225551e-04 -1.23225413e-03  1.80770407e-03 -5.36651955e-04
  9.09022033e-04  5.37615666e-04 -5.28327941e-04 -1.19229996e-04 -1.44063337e-04
  1.09042670e-04  1.12546024e-03  2.20943963e-04 -5.19994773e-04  2.84602603e-04
 -1.32704935e-05  1.25790387e-04 -3.25134181e-05  1.80519287e-05  1.47670283e-02
  1.61879983e-03 -5.70086585e-03 -5.43758728e-04 -1.14947395e-03  2.04440880e-04
  8.91117614e-04  3.42479125e-03 -1.02852157e-04 -8.81812143e-04 -2.21241948e-04
 -4.51614989e-04 -6.74403258e-04  8.19179039e-04 -1.00645025e+00 -1.64668873e-02
  2.09658055e-02  3.07285748e-04 -2.54621754e-04  2.70177724e-04  5.07280195e-03
  2.75494017e-04 -1.28990551e-03  1.04316196e-03  1.31700725e-04  1.06194127e-04
 -5.13423115e-04 -4.94454067e-04  1.75601247e-03  7.05333298e-04 -5.63538081e-03
 -2.44148586e-04  6.23822609e-04  7.48006982e-05  5.49089673e-05 -3.40513767e-03
  3.79516643e-05 -6.74762958e-04 -2.19756184e-04  1.56779964e-04 -4.95052706e-04
 -1.23486648e-03 -4.43283977e-05 -7.85359553e-05  6.04839687e-04  1.09673504e-06
  4.88901967e-05  3.99604207e-05  1.49016569e-04  7.33628053e-04 -4.84251884e-05
  1.21525273e-04 -2.76810063e-05  2.88553340e-06 -9.94944646e-05 -2.37798836e-04
  5.98386657e-05 -3.82910336e-04 -9.57111349e-06 -1.16276253e-04  2.10732231e-05
 -4.95801928e-05 -4.68875995e-04 -5.40997856e-05  4.27173651e-05  4.37215620e-05
  1.56662214e-04 -1.59902624e-04 -3.67207542e-05 -9.15873728e-05  1.18088146e-04
  3.47506210e-04 -9.00790038e-04 -7.40071144e-05  2.05814627e-04 -2.73782384e-05
  2.42550551e-03 -8.79830369e-04  2.17717303e-03 -3.44628945e-05  1.32678545e-05
 -1.16950140e-04 -7.05751214e-04 -3.29608068e-04  2.77426117e-05 -1.04401314e-04
  1.00689203e+00  1.72473514e-02 -1.84858374e-02  3.80477441e-04  2.47965772e-05
  5.52175105e-05  2.48330905e-03  5.66078560e-04  5.84667669e-05  3.99649776e-04
 -1.44791156e-05 -2.93819181e-04 -2.38521867e-04  2.49705105e-04 -3.28473344e-03
 -2.31430251e-04  9.57665010e-04 -5.67576027e-04  3.17103503e-05 -2.66319663e-05
  3.35874104e-03  2.58364345e-03 -4.54324336e-04  6.77814959e-04 -4.50018951e-07
 -2.02983609e-05 -1.34860214e-03 -2.42478257e-04  1.17885586e-04 -7.89139088e-04
  3.99483892e-03 -2.75066865e-04 -1.49147343e-06 -9.48595027e-06  1.62573972e-03
  2.46337373e-03 -3.96076985e-04 -3.97879075e-04  2.94452711e-05 -1.23742411e-04
 -2.55398426e-04 -1.72604924e-04 -1.52008564e-04 -5.41201431e-04  7.67393084e-05
 -1.03540296e-04 -2.71366952e-04 -5.49969449e-05 -1.97688533e-04  5.12819756e-04
  1.51848369e-04 -7.82372344e-05 -3.98114271e-05 -4.41708169e-05  1.74669255e-05
  8.25879343e-05 -1.18937275e-04 -2.28221508e-04  4.38393112e-04  4.50604069e-05
 -1.06038202e-04 -4.24765124e-05 -3.36361668e-04  2.31421163e-04  1.33928490e-04
 -6.38364592e-05 -5.67880660e-06  1.48659498e-05  4.14464036e-06  2.35756367e-06
 -6.64221276e-04  2.17475276e-03  4.29475321e-04 -1.32810334e-03 -8.70863058e-04
 -1.46279294e-03  1.71271517e-03  6.99424617e-04  1.65484196e-03 -9.17708162e-04
 -1.26302150e-03  2.21710107e-03  5.66552314e-04 -2.69717798e-04  1.82995883e-03
  2.12060175e-05  4.39524607e-04  9.76504210e-06  4.69511798e-05 -2.12935966e-05
 -1.17139371e-05  6.19795843e-04  4.97756478e-06 -1.77522001e-04  3.35363502e-05
 -4.16794461e-04 -1.09116874e-04 -3.68856319e-04 -1.83938180e-04  2.08410787e-05
 -4.34288153e-04  9.31347594e-03  4.34785109e-03 -3.48622755e-03 -4.49945354e-03
 -2.70365532e-04 -1.94075237e-03 -6.77258392e-04  6.12708355e-04 -7.42099217e-04
 -2.11089916e-05 -1.40379904e-04 -2.38412984e-05  8.35441247e-04  4.54341862e-04
  1.63992129e-02 -1.08737021e-02  9.29151757e-04 -1.02330589e-02  1.21431459e-03
 -1.31282505e-03  9.22402653e-03 -1.59108512e-03 -4.91366810e-04 -2.70367760e-04
 -4.63530457e-04 -1.17805358e-03  7.78927488e-04 -3.71812162e-03  3.29945566e-02
  2.99355979e-02  2.00870078e-02 -1.69858746e-02 -2.37687846e-03  1.90105978e-02
  2.83696036e-03 -2.68887461e-03 -3.64332617e-03 -9.92791841e-04  3.62839814e-04
  9.11754385e-04 -8.77496768e-03 -1.46866997e-02  2.23739809e-01  9.46548232e-02
  1.85001866e-01 -2.56377813e-02 -6.94881488e-03  1.29298676e-02 -1.25516600e-03
  5.12674068e-04 -1.40940452e-02 -3.05667049e-03 -1.38991201e-03  3.14032651e-02
 -1.36121204e-02 -9.28479237e-03  4.02486504e-01  3.60608366e-01 -1.55263800e-01
  3.14152656e-02  4.88611027e-03 -3.15770067e-02  7.65039695e-03  8.80025849e-05
 -5.49770814e-03 -1.02825473e-03 -7.72386404e-04  1.19673583e-02 -5.05009008e-03
  9.51300856e-03  4.30756846e-03 -7.69281710e-04 -3.08915767e-04  8.04695830e-04
  1.28243938e-03 -9.00937453e-04 -6.09909756e-06 -9.96356148e-05 -9.11768791e-05
  3.16803427e-03  6.87648186e-04 -3.63460704e-04 -4.17554719e-04 -5.87257112e-04
  4.09637124e-02 -2.72493742e-03  9.82951076e-03  6.36308743e-03  1.14194219e-03
  6.26656689e-03  5.94615229e-03  7.62194423e-04 -1.92617304e-03 -6.20472167e-05
  1.78668539e-03 -3.05618862e-03 -1.38928900e-04 -8.14232052e-04  1.63697515e-04
  1.12020067e-02 -1.81170303e-01 -7.94394563e-02  7.10815393e-02  1.31317655e-02
 -9.10929020e-05  4.96749057e-03 -7.10885353e-03  2.66678297e-03  6.42186693e-03
 -1.24988677e-04 -2.58255486e-04 -1.01782696e-02 -2.65824057e-03  1.99615358e-02
 -2.90182466e-01 -2.03818050e-01 -1.05233579e-02  7.54029248e-02 -1.07275338e-02
 -2.71860619e-02  2.72244871e-02 -5.98904198e-03  9.92975184e-03  1.38269546e-03
  2.10904888e-03 -1.92619089e-03 -8.62223303e-03  1.68345408e-02 -2.53272939e-01
 -1.37506354e-01 -6.02312696e-02 -5.91719614e-02  2.03117828e-02 -4.71692627e-03
 -1.66374618e-02  4.97901665e-03  6.96604327e-03  2.14168239e-03  2.60973185e-03
  8.71588696e-03 -8.16758555e-03  2.54308671e-03 -6.39985717e-02 -4.76313672e-02
  7.30026270e-02 -7.88724127e-02 -2.92060947e-03  2.17764697e-02 -2.15744650e-02
 -2.50355376e-03  2.78884103e-03 -3.44102665e-06 -5.74216799e-04  1.27230329e-02
  3.62090342e-03 -3.54830452e-04  7.55414813e-02  7.30595459e-02 -1.25650749e-02
 -1.64570018e-02  7.93673379e-04  9.86169658e-04 -7.40504224e-03  4.22618614e-04
  1.30619396e-04 -1.03254890e-04 -1.26784110e-04  1.75926600e-03  1.57396195e-03
 -6.47519553e-02 -1.41462127e-03  4.12527264e-03 -7.64380832e-03 -5.14859387e-03
 -5.74916657e-02 -1.77552490e-03  5.18656034e-03  7.33940273e-03 -3.59619562e-03
 -6.52650680e-02 -2.97345269e-03  4.70163486e-03 -2.58034490e-04  8.79947052e-03
 -1.87032298e-02 -3.39889014e-04  4.77233176e-05 -3.44580092e-03 -2.57558639e-04
 -8.05065279e-02 -3.17812061e-03 -1.36664764e-02 -2.29717425e-03  1.03011692e-03
 -9.52931955e-02 -1.26131097e-02 -6.73384282e-03  1.31692476e-02 -3.28765032e-03
  1.41246643e-02 -2.80350312e-01 -1.28497285e-01  1.79921058e-02 -9.39924581e-03
  4.04736720e-03 -1.06740698e-02 -4.40960790e-03 -2.99033048e-03  1.89259573e-03
 -5.05642723e-04 -4.48082502e-05 -2.80112921e-03  2.39059622e-03  5.39351503e-03
 -5.63439620e-02 -8.44442096e-02 -1.36946377e-01 -8.77688295e-02  1.11231077e-02
 -8.26855476e-02 -5.76864602e-03  9.66590061e-04  3.54113218e-03 -6.55615542e-04
 -1.35508303e-03 -1.81122113e-02  4.92428595e-03 -1.32778608e-02  2.28320805e-01
  1.70659960e-01 -6.66572503e-03 -6.39034174e-02 -8.90685739e-03  3.25536144e-02
 -3.46763569e-02 -2.46472970e-03 -4.17493341e-03 -2.29216001e-04  1.11208078e-03
 -9.22341543e-03 -7.22248004e-03 -3.13177965e-03  1.64461652e-01  7.74727593e-02
 -1.13755217e-01  6.90743858e-02  4.56694381e-03 -3.89040256e-02  9.45052416e-03
 -1.97420535e-04 -1.75488266e-03  3.82242974e-05  4.98770273e-04 -8.71833690e-03
 -7.01482647e-03 -2.86059720e-04 -8.27713077e-02 -8.39576880e-02 -2.48872354e-02
  3.69508389e-03  2.04299460e-03 -2.24845094e-02  6.32074731e-04  1.03081636e-03
 -9.51741905e-04 -2.26907548e-06  4.49370524e-04  1.49800092e-03 -1.87296231e-03
 -1.17439870e-01 -1.82074446e-02  5.55008133e-03 -1.26093320e-02 -7.97250015e-03
 -1.31056667e-01 -1.82713036e-02  6.90866327e-03  1.41433242e-02 -7.51390730e-03
 -1.23750583e-01 -1.46116069e-02  5.99772569e-03 -2.23186016e-03  1.56525109e-02
  7.99649717e-02  4.48736786e-03  3.79208659e-03  9.45307855e-03  1.69698422e-03
  1.16904234e-01  2.21393162e-02  1.47930571e-02 -8.44793119e-04 -7.62618812e-04
 -3.24306898e-02 -1.53665271e-02 -4.32541696e-03  1.18673756e-03 -8.08394518e-04
  5.66636694e-03 -1.84027230e-01 -1.02149680e-01 -7.93907915e-02 -9.21904976e-04
 -5.59260531e-04 -3.86694513e-02 -3.88803162e-03  2.90339712e-03 -5.12800207e-03
 -7.27093749e-05 -1.54474148e-04  7.53804035e-03  2.90411126e-04 -5.11754031e-03
  2.11513978e-01  1.06795241e-01 -1.42143351e-01 -1.17690606e-02  2.42763555e-03
 -4.82558190e-02  9.55651761e-04 -7.09548825e-04  3.05440501e-03 -1.82908076e-03
 -1.20836221e-03 -6.18176426e-03  4.70061516e-03 -1.54803175e-03  7.70108258e-03
  1.52258599e-02 -5.10371040e-03  2.41355346e-01 -1.29875249e-02  1.41336637e-03
  7.13653020e-02 -3.82173106e-03  1.10369747e-03 -4.41141106e-04 -5.35468045e-03
  6.21223091e-04  1.14013327e-02  2.42209488e-03 -2.27476841e-01 -1.52565494e-01
  1.52678526e-01 -2.17857562e-02  1.73385179e-04  4.74938760e-02 -2.05111338e-02
 -2.11380786e-03 -1.15125302e-03  4.22251223e-04 -8.45492651e-04  5.56868569e-03
  3.73668066e-04  1.05545332e-03  1.21875884e-01  1.42375895e-01  5.15541769e-02
 -1.20522250e-02  1.13523810e-03  3.98303822e-02 -6.87927152e-03  3.78718439e-04
  2.54605266e-03 -1.48418881e-05 -1.56239568e-04 -2.19471753e-03  4.37891715e-04
 -9.99232403e-02 -8.58479507e-03  2.64964053e-03 -1.04825907e-02 -5.66988129e-03
 -1.11124172e-01 -1.90101033e-02  3.03438151e-03  1.07118631e-02 -5.83734676e-03
 -1.11201117e-01 -1.96944373e-02  3.38827238e-03 -1.30823683e-03  1.17597737e-02
 -1.55358503e-01 -2.92194265e-02 -7.29454737e-03 -1.35619703e-02 -2.55680295e-03
  1.18685300e-03  3.90431006e-05  8.72383563e-05  4.84125359e-03 -2.55753569e-04
  1.49544468e-01  2.55244816e-02  6.62416436e-03 -1.48467825e-02  4.13542985e-03
  1.39410501e-03 -3.90868553e-02 -3.45831841e-02 -1.10702426e-01  8.67784302e-02
 -1.66904410e-02 -2.86009239e-02  3.88689350e-02 -1.22051674e-02 -4.78579340e-03
  2.06760238e-03 -1.72977922e-03  9.07956527e-03 -7.26584203e-03 -3.10093860e-03
  1.45844597e-01  1.16218244e-01  7.35690263e-03  2.20577166e-01 -5.03467598e-02
  2.86183664e-02  5.85054428e-02 -1.08037732e-02  3.65165912e-03  2.22200611e-03
  1.12654271e-03  1.48015905e-03 -6.27003343e-03  3.21167461e-03 -1.56752288e-01
 -1.24510366e-01 -6.32818480e-03 -9.50525631e-03 -1.03680484e-02 -2.42818763e-02
  2.36847314e-02 -9.45071394e-03 -3.03017350e-03  1.84983267e-04 -1.03464539e-03
 -1.31572199e-02  4.39766617e-04  1.15067276e-03  1.63476939e-01  1.24781087e-01
 -5.37265391e-02 -2.26818284e-01 -3.09139844e-02 -4.54612804e-02 -4.73804016e-02
 -3.30203502e-03  5.01528565e-03  1.23113438e-03  1.59853386e-04 -1.18454350e-03
  7.46094945e-04  6.31166740e-04 -9.16434901e-02 -1.31149856e-01 -1.51043838e-01
 -1.07293312e-01 -6.96612385e-03 -8.72131053e-02 -5.93789144e-02 -4.24715696e-03
 -3.76243059e-03  8.30504549e-04  1.28034380e-04  9.35841042e-03  6.28688740e-03
 -9.78164099e-02 -3.60661910e-02  1.26785380e-03 -3.51399399e-03 -5.63501519e-03
 -3.09041875e-03 -6.80626466e-03 -2.83280117e-03  2.33989704e-03 -1.93864884e-04
 -6.72855729e-02 -1.80609676e-02 -3.77920928e-04  2.02847062e-03  6.18936703e-03
  2.23642552e-01  5.83706622e-02  1.11478692e-02  1.25909831e-02  2.86889561e-03
 -9.24916485e-02 -3.37828773e-02 -8.96433767e-03 -1.27283940e-03  3.09283922e-04
  2.19894124e-01  6.82213531e-02  1.08098228e-02 -1.22329220e-02  3.63703587e-03
  1.80014483e-03 -5.32831203e-02 -4.21618289e-02 -1.56975531e-01 -9.28363807e-02
  1.45476527e-02 -4.01769907e-02 -4.42242054e-02  5.79176187e-04 -5.63117434e-03
 -2.81405444e-04  2.55676853e-03  6.92653528e-03  4.67870599e-03  1.33915314e-03
  7.59250233e-02  4.52558784e-02  1.40194495e-01 -1.23332995e-01  1.79066591e-02
  7.38570454e-02 -3.35806125e-02  3.20786311e-03  1.21786754e-03  2.08911095e-03
  7.25342513e-04 -9.59733013e-03 -1.09066933e-02  5.49981472e-03 -6.97797294e-02