[Molden Format]
[Atoms] (AU)
C    1    6           1.9730695952         2.6388145613        -0.1979231976
C    2    6          -0.8437981760         2.3979930040        -0.1394118721
C    3    6          -2.1037176067         0.1913613379         0.1162846266
C    4    6          -0.8706831584        -2.3119261304         0.0722237723
O    5    8           1.3971734609        -2.7155382771         0.1535568855
H    6    1           2.8367769522         1.0515693946        -1.2296427218
H    7    1           2.6068174272         4.4470753872        -0.9862811646
H    8    1           2.7111856405         2.4795825530         1.7494111343
H    9    1          -2.2237480213        -3.9286279890        -0.1347340630
H   10    1          -4.1682419058         0.1880798852         0.2405979732
H   11    1          -1.9673078019         4.1366807468        -0.3043566926
[GTO]
  1 0
 s    8  1.00
     6665.0000000000         0.0006920000
     1000.0000000000         0.0053290000
      228.0000000000         0.0270770000
       64.7100000000         0.1017180000
       21.0600000000         0.2747400000
        7.4950000000         0.4485640000
        2.7970000000         0.2850740000
        0.5215000000         0.0152040000
 s    8  1.00
     6665.0000000000        -0.0001460000
     1000.0000000000        -0.0011540000
      228.0000000000        -0.0057250000
       64.7100000000        -0.0233120000
       21.0600000000        -0.0639550000
        7.4950000000        -0.1499810000
        2.7970000000        -0.1272620000
        0.5215000000         0.5445290000
 s    1  1.00
        0.1596000000         1.0000000000
 p    3  1.00
        9.4390000000         0.0381090000
        2.0020000000         0.2094800000
        0.5456000000         0.5085570000
 p    1  1.00
        0.1517000000         1.0000000000
 d    1  1.00
        0.5500000000         1.0000000000

  2 0
 s    8  1.00
     6665.0000000000         0.0006920000
     1000.0000000000         0.0053290000
      228.0000000000         0.0270770000
       64.7100000000         0.1017180000
       21.0600000000         0.2747400000
        7.4950000000         0.4485640000
        2.7970000000         0.2850740000
        0.5215000000         0.0152040000
 s    8  1.00
     6665.0000000000        -0.0001460000
     1000.0000000000        -0.0011540000
      228.0000000000        -0.0057250000
       64.7100000000        -0.0233120000
       21.0600000000        -0.0639550000
        7.4950000000        -0.1499810000
        2.7970000000        -0.1272620000
        0.5215000000         0.5445290000
 s    1  1.00
        0.1596000000         1.0000000000
 p    3  1.00
        9.4390000000         0.0381090000
        2.0020000000         0.2094800000
        0.5456000000         0.5085570000
 p    1  1.00
        0.1517000000         1.0000000000
 d    1  1.00
        0.5500000000         1.0000000000

  3 0
 s    8  1.00
     6665.0000000000         0.0006920000
     1000.0000000000         0.0053290000
      228.0000000000         0.0270770000
       64.7100000000         0.1017180000
       21.0600000000         0.2747400000
        7.4950000000         0.4485640000
        2.7970000000         0.2850740000
        0.5215000000         0.0152040000
 s    8  1.00
     6665.0000000000        -0.0001460000
     1000.0000000000        -0.0011540000
      228.0000000000        -0.0057250000
       64.7100000000        -0.0233120000
       21.0600000000        -0.0639550000
        7.4950000000        -0.1499810000
        2.7970000000        -0.1272620000
        0.5215000000         0.5445290000
 s    1  1.00
        0.1596000000         1.0000000000
 p    3  1.00
        9.4390000000         0.0381090000
        2.0020000000         0.2094800000
        0.5456000000         0.5085570000
 p    1  1.00
        0.1517000000         1.0000000000
 d    1  1.00
        0.5500000000         1.0000000000

  4 0
 s    8  1.00
     6665.0000000000         0.0006920000
     1000.0000000000         0.0053290000
      228.0000000000         0.0270770000
       64.7100000000         0.1017180000
       21.0600000000         0.2747400000
        7.4950000000         0.4485640000
        2.7970000000         0.2850740000
        0.5215000000         0.0152040000
 s    8  1.00
     6665.0000000000        -0.0001460000
     1000.0000000000        -0.0011540000
      228.0000000000        -0.0057250000
       64.7100000000        -0.0233120000
       21.0600000000        -0.0639550000
        7.4950000000        -0.1499810000
        2.7970000000        -0.1272620000
        0.5215000000         0.5445290000
 s    1  1.00
        0.1596000000         1.0000000000
 p    3  1.00
        9.4390000000         0.0381090000
        2.0020000000         0.2094800000
        0.5456000000         0.5085570000
 p    1  1.00
        0.1517000000         1.0000000000
 d    1  1.00
        0.5500000000         1.0000000000

  5 0
 s    8  1.00
    11720.0000000000         0.0007100000
     1759.0000000000         0.0054700000
      400.8000000000         0.0278370000
      113.7000000000         0.1048000000
       37.0300000000         0.2830620000
       13.2700000000         0.4487190000
        5.0250000000         0.2709520000
        1.0130000000         0.0154580000
 s    8  1.00
    11720.0000000000        -0.0001600000
     1759.0000000000        -0.0012630000
      400.8000000000        -0.0062670000
      113.7000000000        -0.0257160000
       37.0300000000        -0.0709240000
       13.2700000000        -0.1654110000
        5.0250000000        -0.1169550000
        1.0130000000         0.5573680000
 s    1  1.00
        0.3023000000         1.0000000000
 p    3  1.00
       17.7000000000         0.0430180000
        3.8540000000         0.2289130000
        1.0460000000         0.5087280000
 p    1  1.00
        0.2753000000         1.0000000000
 d    1  1.00
        1.1850000000         1.0000000000

  6 0
 s    3  1.00
       13.0100000000         0.0196850000
        1.9620000000         0.1379770000
        0.4446000000         0.4781480000
 s    1  1.00
        0.1220000000         1.0000000000
 p    1  1.00
        0.7270000000         1.0000000000

  7 0
 s    3  1.00
       13.0100000000         0.0196850000
        1.9620000000         0.1379770000
        0.4446000000         0.4781480000
 s    1  1.00
        0.1220000000         1.0000000000
 p    1  1.00
        0.7270000000         1.0000000000

  8 0
 s    3  1.00
       13.0100000000         0.0196850000
        1.9620000000         0.1379770000
        0.4446000000         0.4781480000
 s    1  1.00
        0.1220000000         1.0000000000
 p    1  1.00
        0.7270000000         1.0000000000

  9 0
 s    3  1.00
       13.0100000000         0.0196850000
        1.9620000000         0.1379770000
        0.4446000000         0.4781480000
 s    1  1.00
        0.1220000000         1.0000000000
 p    1  1.00
        0.7270000000         1.0000000000

  10 0
 s    3  1.00
       13.0100000000         0.0196850000
        1.9620000000         0.1379770000
        0.4446000000         0.4781480000
 s    1  1.00
        0.1220000000         1.0000000000
 p    1  1.00
        0.7270000000         1.0000000000

  11 0
 s    3  1.00
       13.0100000000         0.0196850000
        1.9620000000         0.1379770000
        0.4446000000         0.4781480000
 s    1  1.00
        0.1220000000         1.0000000000
 p    1  1.00
        0.7270000000         1.0000000000

[5D7F]
[9G]

[MO]
 Sym= A
 Ene=        -1.9135403714e+01
 Spin= Alpha
 Occup=         2.0000000000e+00
  1        -6.4581349192e-05
  2        -1.3671978880e-04
  3         4.6256027429e-05
  4         6.2145506897e-05
  5         4.0759150063e-05
  6         1.3672700704e-05
  7        -2.3308308683e-05
  8        -1.0307119286e-04
  9         1.7511798338e-04
 10         6.6266656461e-05
 11         3.4746407854e-05
 12         4.2500176016e-05
 13         7.1469454974e-05
 14        -1.0046484433e-04
 15        -2.0988631049e-04
 16        -3.7381832692e-04
 17         5.4796070805e-03
 18        -1.9976090959e-05
 19        -1.7565195484e-05
 20        -4.7643627997e-05
 21        -9.9280639373e-04
 22        -2.2918225693e-03
 23         4.0541023073e-04
 24        -3.3634885995e-05
 25         1.9553087196e-05
 26        -1.4802441598e-05
 27        -5.3886865265e-05
 28        -5.1909064495e-05
 29         2.1473212613e-04
 30         3.3109538580e-04
 31        -4.0636001794e-03
 32         3.0651761201e-05
 33         2.7615138514e-04
 34        -1.5338981832e-05
 35        -4.5753759768e-03
 36        -3.5653955855e-03
 37         2.3577251497e-04
 38         1.3881737708e-04
 39         3.3577524115e-05
 40         7.8368091444e-05
 41        -3.8254168996e-04
 42         4.9877098485e-04
 43         4.5129339947e-04
 44         5.9090890008e-04
 45         5.3957141167e-03
 46        -1.0241747739e-04
 47        -1.7577428710e-04
 48        -2.4883196470e-05
 49         6.6395826543e-03
 50         5.9509207063e-04
 51         2.0297210499e-04
 52        -1.8890127871e-05
 53        -8.9066994918e-06
 54         7.0505256203e-05
 55        -1.1549216026e-03
 56         5.0927082284e-04
 57         1.0041711151e+00
 58         9.4740259214e-03
 59        -1.5128630680e-02
 60        -1.8376275771e-03
 61         3.5519255441e-04
 62        -8.2942310253e-05
 63         3.5118117728e-03
 64        -8.3998716305e-04
 65         1.4501509330e-04
 66        -1.9378629593e-05
 67         4.1879586777e-06
 68        -2.4922053599e-06
 69         6.7224982885e-05
 70         9.2121629242e-06
 71        -1.0911211886e-04
 72        -1.0058399609e-04
 73         4.2358527714e-05
 74         9.0586166355e-06
 75         1.4258554026e-05
 76         1.2110707828e-04
 77         3.4789710298e-04
 78        -7.1989567950e-05
 79        -7.2806294902e-05
 80         3.9595405909e-05
 81        -9.2914889783e-05
 82        -2.5143182000e-04
 83         6.4768172170e-05
 84         5.8752730859e-05
 85         5.5089703129e-05
 86        -1.3878412057e-04
 87         9.1810272887e-04
 88        -7.6385057706e-04
 89         1.1505311095e-04
 90        -1.4843233977e-05
 91        -2.7054801161e-04
 92        -1.3384885453e-03
 93         1.8897080373e-04
 94         2.5744357996e-04
 95         3.3326939407e-06
 96        -1.8424002118e-04
 97         2.3729988477e-04
 98         4.4377148912e-05
 99         8.4840918806e-05
100        -2.3337192144e-05
 Sym= A
 Ene=        -1.0273255327e+01
 Spin= Alpha
 Occup=         2.0000000000e+00
  1        -3.6470711815e-04
  2        -4.8172133362e-04
  3         9.1459229539e-04
  4         2.8985270771e-04
  5         6.7567692733e-05
  6        -1.4926120649e-06
  7        -6.3073140644e-04
  8         9.4742832781e-05
  9         4.4603150279e-05
 10        -9.9624061114e-06
 11        -5.2834364737e-05
 12         1.2823131245e-05
 13        -1.2145866166e-04
 14        -4.2679016632e-05
 15        -4.2603272153e-04
 16        -6.2614246476e-04
 17         6.5536783682e-03
 18        -2.6871652782e-04
 19        -2.4262277758e-05
 20         3.9676154492e-05
 21        -2.2219395269e-03
 22        -3.8421860964e-03
 23         4.9799604334e-04
 24        -4.0850237900e-04
 25        -1.5853286271e-04
 26        -8.2180253147e-05
 27         3.0971817461e-04
 28         3.6953622005e-04
 29         1.5996879267e-03
 30        -2.4006108838e-04
 31        -1.9898216224e-03
 32        -3.4428914528e-04
 33         7.4606336280e-04
 34         2.7380378221e-05
 35        -2.5891244713e-03
 36        -6.0600856509e-03
 37         3.6487482564e-04
 38         1.0399146496e-03
 39        -1.6237352343e-05
 40         7.2502006272e-06
 41         1.1335216466e-03
 42         8.5508942271e-04
 43         1.0059276892e+00
 44         1.5252293153e-02
 45        -1.0754483969e-02
 46         7.4067293354e-04
 47        -4.8864348194e-04
 48        -5.2390739127e-05
 49         5.4444953843e-03
 50        -2.0841369669e-03
 51         8.7616183527e-05
 52        -1.6318671018e-03
 53         2.3884363589e-04
 54         1.3970765860e-04
 55         8.5314868687e-04
 56         1.1310301437e-05
 57         3.6542141707e-04
 58         9.0933127237e-04
 59        -5.9541680516e-03
 60         7.4428268182e-04
 61        -2.1341315841e-04
 62         1.3867363193e-05
 63         3.4017352739e-03
 64        -2.1293038956e-04
 65         1.4740930341e-04
 66         5.6552108857e-04
 67        -5.3769207306e-05
 68        -8.3885080654e-06
 69        -7.2022897187e-04
 70         2.5860190523e-04
 71        -1.0615152008e-04
 72        -3.3680031975e-05
 73         4.9214572191e-05
 74         1.8419075601e-05
 75        -1.5402235007e-05
 76        -4.8664462686e-05
 77         3.4748715276e-04
 78        -5.5352440752e-05
 79        -3.1199279210e-05
 80         4.9170796828e-06
 81        -5.8569569093e-05
 82        -2.6043202608e-05
 83         9.8876232814e-05
 84         4.4900288374e-05
 85        -3.9975532147e-05
 86        -1.6515540746e-03
 87         2.4676044880e-03
 88        -1.4312441260e-03
 89        -1.4518548736e-03
 90        -1.9230843263e-04
 91        -5.1665813824e-04
 92        -4.8191972447e-04
 93         4.7869738445e-05
 94         3.1201018516e-04
 95        -2.6255705550e-05
 96        -3.1778394063e-05
 97         6.1005051041e-04
 98         2.3147367741e-04
 99         1.0333994340e-04
100        -2.6740530673e-05
 Sym= A
 Ene=        -1.0223256442e+01
 Spin= Alpha
 Occup=         2.0000000000e+00
  1         3.1132135048e-03
  2        -4.2159282663e-04
  3         4.4442021169e-03
  4         7.1981186341e-04
  5         5.5969158202e-05
  6         6.1880042957e-05
  7        -2.4351057055e-03
  8        -9.0830875907e-04
  9        -3.9092965991e-04
 10         7.9604257181e-04
 11         7.8723230515e-05
 12         2.1580402755e-05
 13        -9.9441347004e-04
 14        -2.1177250863e-05
 15         1.0063162346e+00
 16         1.6115760602e-02
 17        -2.0159796964e-02
 18        -5.1530666837e-04
 19         2.0357361569e-04
 20         2.3528470279e-07
 21        -2.2950742848e-03
 22         3.8523837946e-03
 23        -3.2523473814e-04
 24        -1.0502039924e-03
 25         7.5260331461e-05
 26        -2.3865461206e-04
 27        -5.5032340303e-04
 28        -3.6864696455e-04
 29         1.2776135780e-02
 30        -1.2553029930e-03
 31         4.8920258165e-03
 32        -7.3502771606e-04
 33        -1.0810618805e-03
 34         1.3970662073e-04
 35         2.7439204621e-03
 36         2.5097084749e-03
 37        -2.7128456429e-04
 38         8.7121917992e-04
 39         1.1912782786e-04
 40         2.4977938322e-04
 41         5.2242644376e-04
 42        -9.6524240851e-04
 43        -2.6751246401e-04
 44        -5.3424070627e-04
 45         1.0124927485e-03
 46        -2.3550868677e-05
 47        -2.1164494795e-04
 48         3.2210471857e-05
 49        -3.6563035848e-04
 50         1.0014571526e-03
 51        -4.1383253785e-05
 52        -3.2567013771e-04
 53        -7.2589374613e-05
 54        -1.0045897821e-05
 55         1.7206321392e-04
 56        -2.5573877990e-05
 57        -3.3941454973e-05
 58        -7.2276493615e-05
 59        -1.3619822075e-04
 60         1.2087250106e-04
 61         1.0648846535e-05
 62         1.7388213307e-05
 63        -1.0949483782e-04
 64        -3.1501400312e-04
 65         1.9613327024e-05
 66         1.1358141218e-05
 67        -2.2728144864e-05
 68         3.9958258729e-06
 69         1.6485894699e-06
 70         2.2231434882e-05
 71        -4.3785781391e-04
 72         3.2728098991e-04
 73        -7.7380310528e-05
 74         9.8757882601e-06
 75         6.6625838596e-05
 76        -3.0620736748e-04
 77         2.3629204385e-04
 78         1.2132939564e-04
 79         4.1546643080e-05
 80         7.1942809884e-05
 81        -4.8037339860e-04
 82         1.1700902175e-03
 83        -1.6163898136e-04
 84         8.9706577638e-06
 85         2.2096805328e-05
 86        -6.7384637574e-05
 87         3.5368583409e-04
 88         4.5810340146e-05
 89        -6.6367513896e-05
 90        -1.2473477938e-05
 91         1.4035126067e-04
 92         9.5007276539e-04
 93         1.4511334674e-04
 94        -2.4950568354e-04
 95        -6.2451355858e-07
 96        -2.4089572122e-03
 97         1.1069684933e-03
 98        -1.2277641100e-03
 99         1.7931943601e-03
100        -1.6375879531e-04
 Sym= A
 Ene=        -1.0197526053e+01
 Spin= Alpha
 Occup=         2.0000000000e+00
  1         1.2396447188e-03
  2         4.5378458309e-04
  3        -1.3088575498e-04
  4        -1.0560042230e-04
  5        -1.2936184116e-04
  6         9.7330172768e-05
  7         8.0920738307e-04
  8         8.4434971967e-06
  9        -2.4693720036e-04
 10         3.0436215034e-04
 11         3.1595553945e-05
 12         3.6635865202e-05
 13        -4.9582325110e-05
 14         1.4622162295e-04
 15         1.4254094030e-02
 16         1.7477144022e-03
 17        -6.4223920244e-03
 18        -5.8962654166e-04
 19        -1.2032842091e-03
 20         1.4202410790e-04
 21         6.2104122916e-04
 22         3.8679641641e-03
 23        -1.8488530870e-04
 24        -9.1757697642e-04
 25        -1.4932202970e-04
 26        -2.4792265988e-04
 27        -5.7911470527e-04
 28         9.4852395366e-04
 29        -1.0064843766e+00
 30        -1.6544801058e-02
 31         2.1253984134e-02
 32         3.3326342728e-04
 33        -2.7062566989e-04
 34         1.0807692920e-04
 35         5.4057368825e-03
 36         3.0711677938e-04
 37        -6.9985650637e-04
 38         1.0804871845e-03
 39         1.7118673665e-04
 40         1.0118907756e-04
 41        -4.3684599610e-04
 42        -4.4246665969e-04
 43         1.9081126965e-03
 44         7.7707618193e-04
 45        -5.7321842163e-03
 46        -2.5811121758e-04
 47         7.1187101824e-04
 48         3.7112609851e-05
 49        -4.3285184200e-04
 50        -3.4606763975e-03
 51         4.6587306909e-05
 52        -6.9530107346e-04
 53        -1.2497945001e-04
 54         2.5250724960e-05
 55        -5.8230566622e-04
 56        -1.2094007524e-03
 57        -4.1679297260e-05
 58        -7.2221217883e-05
 59         8.1664070036e-04
 60        -2.1565791816e-05
 61         6.6943327607e-05
 62         3.5531605872e-05
 63         1.1363500241e-04
 64         6.3095997982e-04
 65        -5.0031101906e-05
 66         1.2758426082e-04
 67        -3.9844188329e-05
 68        -1.3784762327e-05
 69        -7.7432980020e-05
 70        -2.2198379324e-04
 71         1.3560112774e-04
 72        -3.3808202945e-04
 73        -2.4585857643e-05
 74        -7.3308405917e-05
 75         5.5371957732e-05
 76        -4.3721912161e-05
 77        -3.2186771816e-04
 78        -4.0600936880e-05
 79         5.5070705201e-05
 80         2.5948644581e-05
 81         4.2142661045e-05
 82        -1.6376299798e-04
 83        -4.6834313485e-05
 84        -7.7126782240e-05
 85         1.3429078467e-04
 86         2.8073958001e-04
 87        -9.7234787016e-04
 88        -7.0347173676e-05
 89         1.9968645867e-04
 90        -3.1371996142e-05
 91         2.4904284490e-03
 92        -8.0762797311e-04
 93         2.1686969745e-03
 94        -1.1900523752e-04
 95        -8.6936174022e-05
 96        -1.0794323555e-04
 97        -8.9949195638e-04
 98        -2.8018812490e-04
 99         3.6105663498e-05
100        -2.6373546611e-05
 Sym= A
 Ene=        -1.0189917352e+01
 Spin= Alpha
 Occup=         2.0000000000e+00
  1         1.0070050307e+00
  2         1.7468713389e-02
  3        -1.9256465331e-02
  4         4.3453494797e-04
  5         7.8785315989e-05
  6         1.5319359218e-04
  7         2.8675973232e-03
  8         3.4668831851e-04
  9        -4.9496960715e-04
 10         2.1705935165e-04
 11        -9.1598061022e-06
 12        -1.2317045457e-04
 13        -6.0916209291e-04
 14         3.6373946761e-07
 15        -3.3177277451e-03
 16        -2.6793269212e-04
 17         1.6637064868e-03
 18        -4.9224548455e-04
 19         5.2792811918e-05
 20         3.6935352636e-06
 21         4.1904463614e-03
 22         2.3481448519e-03
 23        -2.5083736904e-04
 24         6.2962398625e-04
 25         9.9032157054e-05
 26        -6.4192012738e-06
 27        -1.3363516652e-03
 28        -4.4065599382e-04
 29         5.8790267514e-04
 30        -6.3602549440e-04
 31         3.6036626897e-03
 32        -2.2869120278e-04
 33         5.1970623725e-05
 34        -1.3329190785e-06
 35         1.1333291662e-03
 36         2.5627837916e-03
 37        -3.1604379879e-04
 38        -3.6468562412e-04
 39         2.3837892012e-05
 40        -8.8120333360e-05
 41        -4.5362108412e-04
 42        -2.1075510503e-04
 43        -1.2174775448e-04
 44        -4.9794548209e-04
 45         4.4046288891e-04
 46        -6.2904378898e-05
 47        -2.7522850159e-04
 48        -3.0818961639e-05
 49        -1.4625284417e-04
 50         5.0070258795e-04
 51         1.0606554838e-04
 52        -3.4224627548e-05
 53        -2.5379478569e-05
 54        -2.1207505819e-05
 55         3.2478779812e-05
 56         4.3693591834e-05
 57        -9.6010403184e-05
 58        -1.8793201581e-04
 59         2.8406934202e-04
 60         2.2638848264e-05
 61        -1.1852176344e-04
 62        -1.7142490518e-05
 63        -1.9634262269e-04
 64         2.5699003247e-04
 65         5.0833311097e-05
 66        -5.4060895702e-05
 67         1.5383647053e-06
 68         4.3195915967e-06
 69         1.4575042720e-07
 70        -1.8675249385e-06
 71        -1.1292776801e-03
 72         1.9992440974e-03
 73         6.3386391890e-04
 74        -1.4638190036e-03
 75        -9.5551442086e-04
 76        -1.4728987914e-03
 77         1.8234803760e-03
 78         5.5905335473e-04
 79         1.8080569037e-03
 80        -7.7514262667e-04
 81        -1.0764886137e-03
 82         2.3612100275e-03
 83         5.0355355623e-04
 84        -1.7115385747e-04
 85         1.8242586196e-03
 86         2.2369639374e-05
 87         3.9710285002e-04
 88         7.9970205324e-06
 89         6.4983667821e-05
 90        -1.2689278135e-05
 91         3.6497956247e-05
 92         4.5762278390e-04
 93         6.9231626999e-05
 94        -1.9393369332e-04
 95         2.2899860626e-05
 96        -4.0931600412e-04
 97         1.4544880504e-04
 98        -3.8709623113e-04
 99        -1.5098740190e-04
100         2.1651016283e-05
 Sym= A
 Ene=        -1.0396702930e+00
 Spin= Alpha
 Occup=         2.0000000000e+00
  1        -4.9056254380e-04
  2         7.5656585380e-03
  3         5.3623286185e-03
  4        -3.2480507012e-03
  5        -3.6571166273e-03
  6        -5.5144778619e-05
  7        -2.9033815569e-03
  8        -1.7444529063e-03
  9         8.3328071862e-04
 10        -6.9299661612e-04
 11        -1.4647990967e-04
 12        -1.7224861143e-04
 13         1.0320803920e-04
 14         8.8595384959e-04
 15         5.3784497861e-04
 16         1.6755405971e-02
 17        -1.2523293024e-02
 18         2.5548805131e-04
 19        -1.0597292404e-02
 20         9.5765417274e-04
 21        -2.0073662954e-03
 22         9.6032672121e-03
 23        -1.0546818675e-03
 24        -4.7547169033e-04
 25        -1.8257906023e-04
 26        -4.0077966734e-04
 27        -1.5169112507e-03
 28         7.4822907639e-04
 29        -3.6698864004e-03
 30         3.6002697605e-02
 31         3.1939437905e-02
 32         2.0979994757e-02
 33        -1.9528637713e-02
 34        -4.4761239300e-04
 35         2.0015281273e-02
 36         1.8876603677e-03
 37        -1.4383043616e-03
 38        -3.7714367225e-03
 39        -2.3663369381e-04
 40        -2.2694686952e-04
 41        -3.6108009838e-04
 42        -9.0531848793e-03
 43        -1.4646429184e-02
 44         2.2438316852e-01
 45         9.4470079655e-02
 46         1.8457582046e-01
 47        -2.4513471646e-02
 48         6.5922296007e-03
 49         1.2215032548e-02
 50        -2.6462228379e-03
 51         1.0005798637e-03
 52        -1.3746339032e-02
 53         1.4319803290e-03
 54        -1.3577521653e-03
 55         3.1339527940e-02
 56        -1.3598180992e-02
 57        -9.1873186588e-03
 58         4.0227384438e-01
 59         3.6073702426e-01
 60        -1.5520902169e-01
 61         3.0972852224e-02
 62        -6.1102577032e-03
 63        -3.1707039015e-02
 64         7.3570972572e-03
 65        -1.8665165305e-03
 66        -5.3406836348e-03
 67         6.6211479296e-04
 68        -6.8345033184e-04
 69         1.2120264547e-02
 70        -4.9780529514e-03
 71         6.6704543424e-03
 72         3.6108178665e-03
 73        -6.7423065664e-04
 74        -4.3760481527e-04
 75         6.6354134710e-04
 76         1.0637931840e-03
 77        -3.3737780282e-04
 78         3.0577418396e-05
 79        -2.3523839803e-05
 80        -6.7660116878e-05
 81         2.4799747319e-03
 82         8.4376347193e-04
 83        -3.1157630038e-04
 84        -3.1487361539e-04
 85        -5.2446305108e-04
 86         3.9608471726e-02
 87        -3.4563690529e-03
 88         1.0084511507e-02
 89         5.9903345787e-03
 90         9.5173639621e-04
 91         7.0504991028e-03
 92         6.1201385467e-03
 93         9.3637632069e-04
 94        -1.9330762369e-03
 95        -6.5770128949e-05
 96         1.8431613564e-03
 97        -3.1233456613e-03
 98        -1.8071441021e-04
 99        -8.3909340719e-04
100         1.1663641723e-04
 Sym= A
 Ene=        -8.1043175726e-01
 Spin= Alpha
 Occup=         2.0000000000e+00
  1         1.1154158190e-02
  2        -1.8057816288e-01
  3        -7.4688053785e-02
  4         6.6790597751e-02
  5         1.3070244378e-02
  6        -4.3692855815e-03
  7         2.6887800513e-03
  8        -8.5840502615e-03
  9         1.8680130367e-03
 10         5.7461991992e-03
 11         5.9519977441e-04
 12        -7.0239860369e-05
 13        -1.0001295802e-02
 14        -3.2094582181e-03
 15         1.9884119158e-02
 16        -2.9004960534e-01
 17        -2.0331910299e-01
 18        -3.3370667585e-03
 19         6.9996365074e-02
 20        -7.2761021781e-03
 21        -3.1879106192e-02
 22         2.4179910653e-02
 23        -2.6406277411e-03
 24         1.0023151021e-02
 25         1.1498820126e-03
 26         1.5687864183e-03
 27        -2.3605702009e-03
 28        -1.0337504025e-02
 29         1.7184165682e-02
 30        -2.5450522319e-01
 31        -1.3949054525e-01
 32        -5.8988817113e-02
 33        -5.7467721095e-02
 34         1.1680422148e-02
 35        -2.6087785890e-03
 36        -2.1770773702e-02
 37         3.0778580506e-03
 38         6.9065166971e-03
 39         1.2820656159e-03
 40         1.7373914102e-03
 41         8.7987658464e-03
 42        -8.7343294505e-03
 43         2.5470538939e-03
 44        -6.4375031733e-02
 45        -5.1361367686e-02
 46         7.1661340991e-02
 47        -8.0353214515e-02
 48         2.4965242262e-03
 49         2.4133966491e-02
 50        -2.2637126555e-02
 51        -3.6890997949e-04
 52         2.7129637566e-03
 53         5.0352719839e-04
 54        -1.1918327570e-04
 55         1.3406446861e-02
 56         3.1604532688e-03
 57        -3.4049874431e-04
 58         7.6386816089e-02
 59         7.3360762081e-02
 60        -1.1962235865e-02
 61        -1.6589117944e-02
 62        -1.1801320668e-05
 63         1.3348974037e-03
 64        -7.1384488018e-03
 65         5.9370654026e-04
 66         1.7583660240e-04
 67         2.9812683631e-05
 68         8.0179458970e-05
 69         1.6780493700e-03
 70         1.6099270851e-03
 71        -6.6958714825e-02
 72        -2.6469131725e-03
 73         4.8100715989e-03
 74        -7.5676061635e-03
 75        -5.1840212578e-03
 76        -6.0977473195e-02
 77        -1.1708961197e-03
 78         4.6156787883e-03
 79         8.3480215298e-03
 80        -3.5514824341e-03
 81        -6.8066487520e-02
 82        -3.4188316092e-03
 83         4.4407044381e-03
 84        -4.1725958633e-06
 85         9.1500816634e-03
 86        -1.8632199934e-02
 87         3.4962100266e-04
 88         3.0342491153e-05
 89        -3.4734056728e-03
 90        -8.3168582869e-05
 91        -8.3452031413e-02
 92        -2.5011060805e-03
 93        -1.4217007429e-02
 94        -1.7804594131e-03
 95         1.0548063364e-03
 96        -9.9166485720e-02
 97        -1.3266997880e-02
 98        -6.9844555997e-03
 99         1.3834088331e-02
100        -1.2733457824e-03
 Sym= A
 Ene=        -7.1658682492e-01
 Spin= Alpha
 Occup=         2.0000000000e+00
  1         1.4323379325e-02
  2        -2.8533900138e-01
  3        -1.2097106491e-01
  4         1.8685173503e-02
  5        -9.6001800345e-03
  6        -3.9112966592e-03
  7        -1.6321430207e-02
  8        -7.3442915838e-03
  9        -5.6288137497e-05
 10         1.4995201433e-03
 11        -4.0973940568e-05
 12        -1.4762351674e-04
 13        -2.9670174713e-03
 14         2.2882631929e-03
 15         5.3969538555e-03
 16        -5.0946463857e-02
 17        -8.6683195671e-02
 18        -1.3774061979e-01
 19        -9.0822265511e-02
 20         9.1397800917e-03
 21        -9.0988697096e-02
 22        -6.6271572413e-03
 23         2.0908860131e-03
 24         3.8773411556e-03
 25        -1.8779378318e-04
 26        -9.1980172408e-04
 27        -1.7545926062e-02
 28         3.9311672577e-03
 29        -1.3828808949e-02
 30         2.2715448127e-01
 31         1.6759349178e-01
 32        -6.2694932192e-03
 33        -5.8726724677e-02
 34        -2.7459021028e-03
 35         3.5796583437e-02
 36        -3.8244327955e-02
 37        -1.1673655926e-03
 38        -4.5862585834e-03
 39        -6.6213157562e-06
 40         1.5891080727e-04
 41        -9.7528152189e-03
 42        -5.7930165999e-03
 43        -3.1027373362e-03
 44         1.5642933304e-01
 45         6.6812310695e-02
 46        -1.0947071474e-01
 47         7.5291908143e-02
 48        -1.6137621617e-03
 49        -3.8227890083e-02
 50         8.0304031180e-03
 51        -1.4808321485e-03