[Molden Format]
[Atoms] (AU)
C    1    6           2.0224002556         2.7113843475        -0.2157009480
C    2    6          -0.7882345375         2.3855786316        -0.1081694276
C    3    6          -2.0878326610         0.1884857172         0.0120268482
C    4    6          -0.9220588757        -2.3422662369         0.0708035857
O    5    8           1.3368769513        -2.7620481465         0.2209661180
H    6    1           2.9467855657         1.1810955451        -1.2714013991
H    7    1           2.5271949531         4.5679682861        -1.0085769667
H    8    1           2.8142333155         2.6184201212         1.7136691182
H    9    1          -2.3019923371        -3.9508353190        -0.0296478300
H   10    1          -4.1564369545         0.2441009996         0.0620589726
H   11    1          -1.9037287956         4.1309894909        -0.1029732477
[GTO]
  1 0
 s    8  1.00
     6665.0000000000         0.0006920000
     1000.0000000000         0.0053290000
      228.0000000000         0.0270770000
       64.7100000000         0.1017180000
       21.0600000000         0.2747400000
        7.4950000000         0.4485640000
        2.7970000000         0.2850740000
        0.5215000000         0.0152040000
 s    8  1.00
     6665.0000000000        -0.0001460000
     1000.0000000000        -0.0011540000
      228.0000000000        -0.0057250000
       64.7100000000        -0.0233120000
       21.0600000000        -0.0639550000
        7.4950000000        -0.1499810000
        2.7970000000        -0.1272620000
        0.5215000000         0.5445290000
 s    1  1.00
        0.1596000000         1.0000000000
 p    3  1.00
        9.4390000000         0.0381090000
        2.0020000000         0.2094800000
        0.5456000000         0.5085570000
 p    1  1.00
        0.1517000000         1.0000000000
 d    1  1.00
        0.5500000000         1.0000000000

  2 0
 s    8  1.00
     6665.0000000000         0.0006920000
     1000.0000000000         0.0053290000
      228.0000000000         0.0270770000
       64.7100000000         0.1017180000
       21.0600000000         0.2747400000
        7.4950000000         0.4485640000
        2.7970000000         0.2850740000
        0.5215000000         0.0152040000
 s    8  1.00
     6665.0000000000        -0.0001460000
     1000.0000000000        -0.0011540000
      228.0000000000        -0.0057250000
       64.7100000000        -0.0233120000
       21.0600000000        -0.0639550000
        7.4950000000        -0.1499810000
        2.7970000000        -0.1272620000
        0.5215000000         0.5445290000
 s    1  1.00
        0.1596000000         1.0000000000
 p    3  1.00
        9.4390000000         0.0381090000
        2.0020000000         0.2094800000
        0.5456000000         0.5085570000
 p    1  1.00
        0.1517000000         1.0000000000
 d    1  1.00
        0.5500000000         1.0000000000

  3 0
 s    8  1.00
     6665.0000000000         0.0006920000
     1000.0000000000         0.0053290000
      228.0000000000         0.0270770000
       64.7100000000         0.1017180000
       21.0600000000         0.2747400000
        7.4950000000         0.4485640000
        2.7970000000         0.2850740000
        0.5215000000         0.0152040000
 s    8  1.00
     6665.0000000000        -0.0001460000
     1000.0000000000        -0.0011540000
      228.0000000000        -0.0057250000
       64.7100000000        -0.0233120000
       21.0600000000        -0.0639550000
        7.4950000000        -0.1499810000
        2.7970000000        -0.1272620000
        0.5215000000         0.5445290000
 s    1  1.00
        0.1596000000         1.0000000000
 p    3  1.00
        9.4390000000         0.0381090000
        2.0020000000         0.2094800000
        0.5456000000         0.5085570000
 p    1  1.00
        0.1517000000         1.0000000000
 d    1  1.00
        0.5500000000         1.0000000000

  4 0
 s    8  1.00
     6665.0000000000         0.0006920000
     1000.0000000000         0.0053290000
      228.0000000000         0.0270770000
       64.7100000000         0.1017180000
       21.0600000000         0.2747400000
        7.4950000000         0.4485640000
        2.7970000000         0.2850740000
        0.5215000000         0.0152040000
 s    8  1.00
     6665.0000000000        -0.0001460000
     1000.0000000000        -0.0011540000
      228.0000000000        -0.0057250000
       64.7100000000        -0.0233120000
       21.0600000000        -0.0639550000
        7.4950000000        -0.1499810000
        2.7970000000        -0.1272620000
        0.5215000000         0.5445290000
 s    1  1.00
        0.1596000000         1.0000000000
 p    3  1.00
        9.4390000000         0.0381090000
        2.0020000000         0.2094800000
        0.5456000000         0.5085570000
 p    1  1.00
        0.1517000000         1.0000000000
 d    1  1.00
        0.5500000000         1.0000000000

  5 0
 s    8  1.00
    11720.0000000000         0.0007100000
     1759.0000000000         0.0054700000
      400.8000000000         0.0278370000
      113.7000000000         0.1048000000
       37.0300000000         0.2830620000
       13.2700000000         0.4487190000
        5.0250000000         0.2709520000
        1.0130000000         0.0154580000
 s    8  1.00
    11720.0000000000        -0.0001600000
     1759.0000000000        -0.0012630000
      400.8000000000        -0.0062670000
      113.7000000000        -0.0257160000
       37.0300000000        -0.0709240000
       13.2700000000        -0.1654110000
        5.0250000000        -0.1169550000
        1.0130000000         0.5573680000
 s    1  1.00
        0.3023000000         1.0000000000
 p    3  1.00
       17.7000000000         0.0430180000
        3.8540000000         0.2289130000
        1.0460000000         0.5087280000
 p    1  1.00
        0.2753000000         1.0000000000
 d    1  1.00
        1.1850000000         1.0000000000

  6 0
 s    3  1.00
       13.0100000000         0.0196850000
        1.9620000000         0.1379770000
        0.4446000000         0.4781480000
 s    1  1.00
        0.1220000000         1.0000000000
 p    1  1.00
        0.7270000000         1.0000000000

  7 0
 s    3  1.00
       13.0100000000         0.0196850000
        1.9620000000         0.1379770000
        0.4446000000         0.4781480000
 s    1  1.00
        0.1220000000         1.0000000000
 p    1  1.00
        0.7270000000         1.0000000000

  8 0
 s    3  1.00
       13.0100000000         0.0196850000
        1.9620000000         0.1379770000
        0.4446000000         0.4781480000
 s    1  1.00
        0.1220000000         1.0000000000
 p    1  1.00
        0.7270000000         1.0000000000

  9 0
 s    3  1.00
       13.0100000000         0.0196850000
        1.9620000000         0.1379770000
        0.4446000000         0.4781480000
 s    1  1.00
        0.1220000000         1.0000000000
 p    1  1.00
        0.7270000000         1.0000000000

  10 0
 s    3  1.00
       13.0100000000         0.0196850000
        1.9620000000         0.1379770000
        0.4446000000         0.4781480000
 s    1  1.00
        0.1220000000         1.0000000000
 p    1  1.00
        0.7270000000         1.0000000000

  11 0
 s    3  1.00
       13.0100000000         0.0196850000
        1.9620000000         0.1379770000
        0.4446000000         0.4781480000
 s    1  1.00
        0.1220000000         1.0000000000
 p    1  1.00
        0.7270000000         1.0000000000

[5D7F]
[9G]

[MO]
 Sym= A
 Ene=        -1.9134758243e+01
 Spin= Alpha
 Occup=         2.0000000000e+00
  1        -4.3814406143e-05
  2        -9.8773245901e-05
  3        -2.9214399556e-05
  4         6.4912805936e-05
  5         2.3069174732e-05
  6         1.5026869834e-05
  7         7.8547679664e-07
  8         7.9648747614e-05
  9         1.8626964930e-04
 10         5.1535557945e-05
 11         2.6874661931e-05
 12         5.9325566261e-05
 13         5.8485494136e-05
 14        -1.0517631725e-04
 15        -2.2914514556e-04
 16        -4.0706971328e-04
 17         5.8628205450e-03
 18        -1.9063076074e-05
 19        -9.8819812235e-06
 20        -2.1598050788e-05
 21        -1.1033311127e-03
 22        -2.5937056082e-03
 23         1.9169292107e-04
 24        -4.3383062819e-05
 25        -9.3156892920e-06
 26         5.5110036590e-07
 27        -4.3843055404e-05
 28        -3.8086280344e-05
 29         2.2399682375e-04
 30         3.4406831114e-04
 31        -4.5955093318e-03
 32         1.8994129659e-05
 33         2.9223837559e-04
 34        -1.7195537269e-05
 35        -4.8151792458e-03
 36        -3.6096752439e-03
 37         4.7050107409e-05
 38         1.4459158974e-04
 39        -5.3663461928e-06
 40         5.7209837948e-05
 41        -3.2401580615e-04
 42         5.1334627189e-04
 43         4.4192779909e-04
 44         5.7508780869e-04
 45         5.5054334552e-03
 46        -1.1526826119e-04
 47        -1.6960642829e-04
 48        -7.3389657318e-06
 49         6.6991199874e-03
 50         6.6318732079e-04
 51         3.6323101340e-04
 52        -3.9939974819e-05
 53        -5.5244834394e-05
 54         2.7553739219e-05
 55        -1.1536743012e-03
 56         5.2816570139e-04
 57         1.0041741414e+00
 58         9.4793111771e-03
 59        -1.5175084681e-02
 60        -1.8326872299e-03
 61         3.6295050775e-04
 62        -1.3833420154e-04
 63         3.4998017869e-03
 64        -8.6658837793e-04
 65         2.5490059227e-04
 66        -2.1760753585e-05
 67         8.6246014999e-06
 68        -5.3547979150e-08
 69         6.7640257376e-05
 70         7.7864770229e-06
 71        -8.1789790138e-05
 72        -2.8302292857e-05
 73         5.5268059685e-05
 74         4.0368067411e-05
 75        -5.9247710216e-06
 76         1.0586523942e-04
 77         2.7864692846e-04
 78        -6.5925736915e-05
 79        -7.9798351210e-05
 80         2.7632631350e-05
 81        -5.5384842333e-05
 82        -2.3672175608e-04
 83         5.6025607454e-05
 84         3.6225928516e-05
 85         4.3243270677e-05
 86        -1.2069724915e-04
 87         9.7175654840e-04
 88        -7.6198140358e-04
 89         1.2240694047e-04
 90        -4.2557427225e-05
 91        -2.6855265354e-04
 92        -1.3631147514e-03
 93         1.8933227166e-04
 94         2.6137671329e-04
 95         1.1051121965e-05
 96        -1.7317846358e-04
 97         2.9779494814e-04
 98         5.7827296489e-05
 99         8.8980561148e-05
100        -1.1981213030e-05
 Sym= A
 Ene=        -1.0272815970e+01
 Spin= Alpha
 Occup=         2.0000000000e+00
  1        -3.3039507824e-04
  2        -4.2495643092e-04
  3         8.3120472207e-04
  4         2.9659369671e-04
  5         5.5418126468e-05
  6        -1.0172818748e-05
  7        -5.7647507187e-04
  8         2.9141077743e-04
  9         1.1303188457e-04
 10         1.7883716488e-05
 11        -1.2664787405e-05
 12         3.3888441522e-05
 13        -1.2624296870e-04
 14        -7.8822417277e-05
 15        -4.2692729206e-04
 16        -6.3066023013e-04
 17         6.9931965920e-03
 18        -2.6719676469e-04
 19        -2.7056412584e-05
 20         1.2107799822e-05
 21        -2.3862868938e-03
 22        -4.1201417933e-03
 23         2.3245172678e-04
 24        -4.4281654001e-04
 25        -7.4665273588e-05
 26        -4.7204429584e-05
 27         3.3707346108e-04
 28         3.8919055473e-04
 29         1.6339834615e-03
 30        -2.3517576898e-04
 31        -2.4202321788e-03
 32        -3.3945369072e-04
 33         7.4878728572e-04
 34        -1.2696507674e-05
 35        -2.8076489687e-03
 36        -6.2796258366e-03
 37         2.2513955602e-04
 38         1.0574602109e-03
 39        -4.6970143040e-05
 40         6.4484541025e-05
 41         1.1760928071e-03
 42         8.0106399818e-04
 43         1.0059262005e+00
 44         1.5251835590e-02
 45        -1.0811146748e-02
 46         7.3261792277e-04
 47        -4.8582063360e-04
 48         5.4451875735e-05
 49         5.4702162817e-03
 50        -2.1074097224e-03
 51         2.5319407024e-04
 52        -1.6422644342e-03
 53         2.6567602579e-04
 54         9.4385299366e-06
 55         8.2544636500e-04
 56         2.8470585566e-05
 57         3.6399686736e-04
 58         9.1168339755e-04
 59        -5.9715917742e-03
 60         7.3796998137e-04
 61        -2.2277688621e-04
 62         3.9688143858e-05
 63         3.3875317885e-03
 64        -2.3890678106e-04
 65         2.5907250587e-04
 66         5.5743176872e-04
 67        -1.0989594059e-04
 68         1.6262220021e-05
 69        -7.0363119717e-04
 70         2.7011366912e-04
 71        -7.4702036373e-05
 72         6.9085335303e-05
 73         7.8315403545e-05
 74         3.1558870352e-05
 75        -1.5389974701e-05
 76        -4.2255174525e-05
 77         2.6437653956e-04
 78        -5.9189719270e-05
 79        -4.5978296465e-05
 80        -2.7238774938e-06
 81        -4.8787087573e-05
 82        -6.1934563206e-05
 83         8.3105667727e-05
 84         2.0619533999e-05
 85        -2.3928085704e-05
 86        -1.6370449021e-03
 87         2.4932528314e-03
 88        -1.4602165078e-03
 89        -1.4426020551e-03
 90        -9.5588859617e-05
 91        -4.8144001454e-04
 92        -4.6490649832e-04
 93         6.7884115930e-05
 94         3.2832515496e-04
 95        -1.6843571734e-05
 96        -3.2367819888e-05
 97         6.5644826790e-04
 98         2.4014190845e-04
 99         1.0800369413e-04
100        -1.1765606377e-05
 Sym= A
 Ene=        -1.0222844069e+01
 Spin= Alpha
 Occup=         2.0000000000e+00
  1         3.3207474263e-03
  2        -4.5854778460e-04
  3         4.3614668182e-03
  4         7.4743291826e-04
  5         9.5362968927e-05
  6         5.7895086969e-05
  7        -2.3111944385e-03
  8        -1.1023087827e-03
  9        -4.9288754990e-04
 10         7.9523400688e-04
 11         1.2467039938e-04
 12        -6.6512164572e-06
 13        -1.0408086801e-03
 14        -4.6428297004e-06
 15         1.0062847032e+00
 16         1.6061990848e-02
 17        -1.9748463909e-02
 18        -5.4752635097e-04
 19         2.5075117339e-04
 20         3.7829989846e-05
 21        -2.1607532246e-03
 22         3.5553457527e-03
 23         5.4516517822e-05
 24        -1.0914097670e-03
 25        -3.4689869182e-06
 26        -3.7405243168e-05
 27        -5.1705862285e-04
 28        -2.3057268011e-04
 29         1.2836972359e-02
 30        -1.2910952971e-03
 31         4.6353370007e-03
 32        -7.7756373752e-04
 33        -1.0976777089e-03
 34         7.7204551674e-05
 35         2.6564175749e-03
 36         2.3052778420e-03
 37        -2.2127516443e-04
 38         8.8949754906e-04
 39         7.3036426830e-05
 40         1.1464709544e-04
 41         5.7618615904e-04
 42        -9.7826322343e-04
 43        -2.5992023645e-04
 44        -5.0935499272e-04
 45         1.0279901476e-03
 46        -4.0990193158e-05
 47        -2.0726917409e-04
 48         1.1310399796e-05
 49        -1.7035837713e-04
 50         1.0340535376e-03
 51         1.8777759348e-05
 52        -3.4249425048e-04
 53        -7.7686688044e-06
 54        -9.2691037763e-06
 55         1.9493790449e-04
 56        -1.0176839111e-04
 57        -3.3399794996e-05
 58        -7.3466959172e-05
 59        -2.5014928509e-04
 60         1.2530207481e-04
 61        -2.7935971070e-06
 62         1.7635553224e-05
 63        -4.3790074946e-05
 64        -2.5704805825e-04
 65        -5.2445487756e-07
 66         1.1194110654e-05
 67        -1.4435382045e-05
 68         4.1908712138e-06
 69        -1.2087289079e-05
 70         1.3601700394e-05
 71        -4.3151694121e-04
 72         1.2841776981e-04
 73        -2.6125153381e-05
 74         3.6056321440e-05
 75         7.7283382408e-05
 76        -3.5253774399e-04
 77         2.9251234350e-04
 78         7.3289772794e-05
 79         8.2828116071e-05
 80         6.4546892206e-05
 81        -4.7571021184e-04
 82         1.2009313460e-03
 83        -1.2893261269e-04
 84         1.7526645014e-05
 85         1.7539961722e-05
 86        -2.0612999680e-05
 87         4.1644471210e-04
 88         5.4586956738e-05
 89        -5.2708833436e-05
 90        -7.3504022613e-06
 91         9.2290829429e-05
 92         9.1858918266e-04
 93         1.1955818173e-04
 94        -2.3090875559e-04
 95         1.5264568497e-05
 96        -2.3455431807e-03
 97         1.2156189261e-03
 98        -1.2089150115e-03
 99         1.7784638239e-03
100         1.2936620651e-05
 Sym= A
 Ene=        -1.0197510359e+01
 Spin= Alpha
 Occup=         2.0000000000e+00
  1         1.6432495230e-03
  2         3.9504547385e-04
  3         9.8471411337e-06
  4        -8.4021331529e-05
  5        -1.1219262770e-04
  6         7.9602306667e-05
  7         7.0774026733e-04
  8        -1.9172410785e-04
  9        -1.2286900777e-04
 10         3.1383056296e-04
 11         7.5913288008e-05
 12        -2.3490928335e-05
 13        -8.5366109039e-05
 14         2.2274484531e-04
 15         1.4350538292e-02
 16         1.7865656662e-03
 17        -6.7982695659e-03
 18        -6.0336767601e-04
 19        -1.2035548600e-03
 20         6.6030649172e-05
 21         5.7716225847e-04
 22         4.1892398643e-03
 23        -1.3586602963e-04
 24        -9.2977143176e-04
 25        -4.5780831730e-05
 26        -9.7149670952e-05
 27        -5.0965427751e-04
 28         1.0335029928e-03
 29        -1.0064809302e+00
 30        -1.6536164322e-02
 31         2.1553908267e-02
 32         3.2739697728e-04
 33        -2.9963219112e-04
 34         3.2261350053e-05
 35         5.5770913258e-03
 36         3.4924589797e-04
 37        -1.7681137287e-04
 38         1.0829453972e-03
 39         7.9470953833e-05
 40         6.7650832050e-05
 41        -3.7703886946e-04
 42        -3.7497211376e-04
 43         1.9562795052e-03
 44         8.1385079466e-04
 45        -5.7989781848e-03
 46        -2.5456639151e-04
 47         7.4912062356e-04
 48        -2.8941904744e-07
 49        -6.8165359517e-04
 50        -3.5094957385e-03
 51         4.8242755966e-05
 52        -6.9086423376e-04
 53        -3.1934178135e-05
 54        -6.4811573202e-05
 55        -6.4139096759e-04
 56        -1.1881995207e-03
 57        -4.4766498306e-05
 58        -7.7526118912e-05
 59         9.3191037213e-04
 60        -2.7706039421e-05
 61         7.5366237930e-05
 62         2.2112233944e-05
 63         9.5349558976e-05
 64         5.9748362668e-04
 65        -4.7380615012e-05
 66         1.3226409227e-04
 67        -3.3201113874e-05
 68        -1.6523367374e-05
 69        -7.2855214613e-05
 70        -2.1786778232e-04
 71         1.6570159006e-04
 72        -3.9029553423e-04
 73        -2.5702723699e-05
 74        -4.0654862643e-05
 75         5.7224947414e-05
 76        -4.9660492745e-05
 77        -2.0590901873e-04
 78        -3.5378309367e-05
 79         6.9437078096e-05
 80         1.3836846390e-05
 81        -5.1547445222e-05
 82        -1.2585900786e-04
 83        -4.9969634791e-05
 84        -6.0930323640e-05
 85         1.3910679555e-04
 86         2.4689503432e-04
 87        -1.0031976093e-03
 88        -7.3513732879e-05
 89         2.0469095104e-04
 90        -2.2748432765e-05
 91         2.4440761637e-03
 92        -7.7600842497e-04
 93         2.1366868433e-03
 94        -1.7061930000e-04
 95        -4.4460718445e-05
 96        -9.4535874007e-05
 97        -1.0156340127e-03
 98        -2.6005424712e-04
 99         2.5377347389e-05
100         1.2964056362e-05
 Sym= A
 Ene=        -1.0192422750e+01
 Spin= Alpha
 Occup=         2.0000000000e+00
  1         1.0069820695e+00
  2         1.7418564760e-02
  3        -1.9450321517e-02
  4         4.5176684539e-04
  5         1.3017062556e-04
  6         1.4735671120e-04
  7         2.9402811894e-03
  8         1.9497101804e-04
  9        -5.5340635941e-04
 10         2.2249299983e-04
 11         3.6035494505e-05
 12        -5.5967547910e-05
 13        -5.8835978151e-04
 14        -1.4627795721e-04
 15        -3.5692617399e-03
 16        -3.0467625956e-04
 17         1.8667001870e-03
 18        -4.9683623766e-04
 19         5.8328284337e-05
 20         2.4505887747e-05
 21         4.5075153346e-03
 22         2.3311749718e-03
 23        -1.6416794636e-04
 24         6.1292933032e-04
 25         1.2620005598e-04
 26         2.2373271877e-05
 27        -1.3386876118e-03
 28        -5.7470658213e-04
 29         1.0791313572e-03
 30        -5.3411196191e-04
 31         3.4454613767e-03
 32        -1.9216759369e-04
 33         8.9272209599e-05
 34         1.1049922201e-05
 35         9.0572991645e-04
 36         2.6507715187e-03
 37        -1.6516833271e-04
 38        -3.4426637799e-04
 39         7.7776695662e-06
 40        -2.4639896576e-05
 41        -5.6092259619e-04
 42        -2.0510403076e-04
 43        -1.0306252990e-04
 44        -4.6036786761e-04
 45         6.5728163038e-04
 46        -3.3097133075e-05
 47        -2.7344419367e-04
 48        -8.6711293251e-06
 49        -1.1054250016e-04
 50         5.2877240276e-04
 51         4.0051026989e-05
 52        -1.5725237658e-05
 53        -2.2431596370e-05
 54         3.6536309091e-06
 55         4.1303014223e-05
 56         3.6129855789e-05
 57        -7.2662541450e-05
 58        -1.4501405372e-04
 59         1.6248035561e-04
 60         8.5552514129e-06
 61        -1.1593418200e-04
 62        -1.0157071438e-05
 63        -1.0873887157e-04
 64         2.2503477507e-04
 65         4.0854055827e-05
 66        -4.3461869373e-05
 67         1.5308970206e-06
 68         1.5974640409e-06
 69         1.4589476404e-06
 70        -7.9933296019e-07
 71        -1.2275064099e-03
 72         1.9142796164e-03
 73         6.9898037149e-04
 74        -1.4443223651e-03
 75        -1.0026358131e-03
 76        -1.3397034911e-03
 77         1.9224705190e-03
 78         4.3633512432e-04
 79         1.8032133501e-03
 80        -7.5525984698e-04
 81        -1.1034731749e-03
 82         2.3469703121e-03
 83         5.5805411386e-04
 84        -9.6876263637e-05
 85         1.8183614198e-03
 86         1.6702235958e-05
 87         3.8776084002e-04
 88         6.3184992993e-06
 89         6.9393613843e-05
 90        -7.5800157755e-06
 91         5.4407724160e-05
 92         3.6322227490e-04
 93         9.6296851785e-05
 94        -2.0515485550e-04
 95         1.0168867875e-05
 96        -4.3481750832e-04
 97         2.4473951190e-04
 98        -3.6774630088e-04
 99        -1.1481588013e-04
100         2.0152118262e-05
 Sym= A
 Ene=        -1.0394762941e+00
 Spin= Alpha
 Occup=         2.0000000000e+00
  1        -4.8265678313e-04
  2         6.3451553695e-03
  3         5.6831884307e-03
  4        -3.0469925894e-03
  5        -3.0487171986e-03
  6        -2.9479334794e-05
  7        -3.0410983210e-03
  8        -2.5859837905e-03
  9         9.9087015122e-04
 10        -6.1360443368e-04
 11        -1.9864766578e-04
 12        -2.2333631963e-04
 13         1.7881303618e-04
 14         9.1854615512e-04
 15         5.9659467350e-04
 16         1.6492432097e-02
 17        -1.3228786692e-02
 18        -1.5873549793e-04
 19        -1.0524547812e-02
 20         5.6339470842e-04
 21        -2.1688561203e-03
 22         1.0049073844e-02
 23        -5.8316765706e-04
 24        -4.4961727206e-04
 25        -1.1660063432e-04
 26        -2.5949584831e-04
 27        -1.6746660931e-03
 28         7.3244114542e-04
 29        -3.6140782712e-03
 30         3.6748884785e-02
 31         3.2745186552e-02
 32         2.0849274980e-02
 33        -2.0602875236e-02
 34         9.3080896082e-04
 35         2.0178422954e-02
 36         1.4319139709e-03
 37        -1.5061264498e-04
 38        -3.7952025849e-03
 39         2.3841668095e-04
 40        -5.8402050217e-04
 41        -1.0643046769e-03
 42        -9.0475578604e-03
 43        -1.4616993767e-02
 44         2.2504060246e-01
 45         9.4406580996e-02
 46         1.8463281728e-01
 47        -2.5785674829e-02
 48         1.2212508248e-02
 49         1.1953455149e-02
 50        -3.1274783732e-03
 51         1.0838422179e-03
 52        -1.3466619833e-02
 53         3.4919737668e-03
 54        -1.0428220634e-03
 55         3.1036343208e-02
 56        -1.4095872981e-02
 57        -9.1558467145e-03
 58         4.0216200026e-01
 59         3.5989557689e-01
 60        -1.5524113065e-01
 61         3.1944659542e-02
 62        -1.0732944515e-02
 63        -3.1573568909e-02
 64         7.2332603850e-03
 65        -2.5919534758e-03
 66        -5.2409356388e-03
 67         1.3978910833e-03
 68        -5.0377271899e-04
 69         1.2110797491e-02
 70        -5.1718937013e-03
 71         4.9168167873e-03
 72         2.8991244221e-03
 73        -6.3829387793e-04
 74        -4.8749251007e-04
 75         5.8611523529e-04
 76         9.7272954663e-04
 77         5.6550477569e-05
 78         2.7279968844e-05
 79         1.3475901747e-05
 80        -4.0782424477e-05
 81         1.8185259668e-03
 82         8.3991315534e-04
 83        -2.6615106900e-04
 84        -1.8971920677e-04
 85        -4.3816667880e-04
 86         3.9266063161e-02
 87        -3.6744544055e-03
 88         1.0175012460e-02
 89         5.8662304656e-03
 90         6.6989367632e-04
 91         7.1635523224e-03
 92         6.0384325760e-03
 93         9.4553196124e-04
 94        -1.9562633802e-03
 95        -1.4681159668e-05
 96         1.7893455435e-03
 97        -3.2862680679e-03
 98        -2.2907636314e-04
 99        -8.3227402068e-04
100         6.7951889364e-05
 Sym= A
 Ene=        -8.0885318367e-01
 Spin= Alpha
 Occup=         2.0000000000e+00
  1         1.1005971134e-02
  2        -1.8178540420e-01
  3        -7.5173272765e-02
  4         6.5596923645e-02
  5         1.2958470209e-02
  6        -4.8925440697e-03
  7         3.0291019899e-03
  8        -8.5550423034e-03
  9         1.0695431759e-03
 10         5.6191183912e-03
 11         8.2740573163e-04
 12         3.0194592500e-05
 13        -9.7949895249e-03
 14        -3.5978905869e-03
 15         1.9761633431e-02
 16        -2.9143657607e-01
 17        -2.0144385347e-01
 18        -9.5605670799e-04
 19         6.5352307256e-02
 20        -2.6523642394e-03
 21        -3.2649665057e-02
 22         2.1042512396e-02
 23         8.0579034990e-05
 24         9.9759486480e-03
 25         8.3533556677e-04
 26         8.5856066611e-04
 27        -2.7465173023e-03
 28        -1.1329978433e-02
 29         1.6997669283e-02
 30        -2.5378339181e-01
 31        -1.4184892313e-01
 32        -5.8009242876e-02
 33        -5.7231133955e-02
 34         4.5363927656e-03
 35        -3.0309814311e-03
 36        -2.4023966410e-02
 37         1.1750551318e-03
 38         6.9297213463e-03
 39         6.4409191411e-04
 40         8.7851609836e-04
 41         8.7295835868e-03
 42        -9.1413104578e-03
 43         2.4447298997e-03
 44        -6.3918741150e-02
 45        -5.1573165976e-02
 46         6.9093675178e-02
 47        -8.0347839639e-02
 48         5.2899724769e-03
 49         2.5129205641e-02
 50        -2.2351090883e-02
 51         1.3968509308e-03
 52         2.6308298111e-03
 53         6.5982591016e-04
 54         3.1805661333e-04
 55         1.3545810976e-02
 56         2.6604913048e-03
 57        -3.3148697681e-04
 58         7.5087597169e-02
 59         7.1428024413e-02
 60        -1.1373938899e-02
 61        -1.6296240466e-02
 62        -2.2028159541e-04
 63         1.6745740508e-03
 64        -6.7690322973e-03
 65         5.7220496412e-04
 66         1.8224180368e-04
 67         6.4291909424e-05
 68         1.7847217666e-04
 69         1.6089106982e-03
 70         1.5931355488e-03
 71        -6.7112946750e-02
 72        -3.3923952468e-03
 73         5.1170665626e-03
 74        -7.2528244261e-03
 75        -5.3049890629e-03
 76        -6.3095112205e-02
 77        -1.4930902574e-03
 78         4.0800117239e-03
 79         8.7854747665e-03
 80        -3.7132262402e-03
 81        -6.8045235446e-02
 82        -3.6507260199e-03
 83         4.7268023063e-03
 84         2.7804540132e-04
 85         9.0607224598e-03
 86        -1.8045221710e-02
 87         1.0020349331e-03
 88         2.0872368573e-05
 89        -3.3798900461e-03
 90         3.5882134039e-05
 91        -8.4314663216e-02
 92        -2.5113305847e-03
 93        -1.4362420159e-02
 94        -1.4197760278e-03
 95         4.6352338628e-04
 96        -1.0246161298e-01
 97        -1.2974812118e-02
 98        -7.1421008214e-03
 99         1.4285487419e-02
100        -1.1329010005e-05
 Sym= A
 Ene=        -7.1803258922e-01
 Spin= Alpha
 Occup=         2.0000000000e+00
  1         1.3991207026e-02
  2        -2.8675472247e-01
  3        -1.1929003366e-01
  4         1.9103166405e-02
  5        -1.0734630528e-02
  6        -5.0467000481e-03
  7        -1.7483626044e-02
  8        -8.5108349261e-03
  9         5.0682286985e-04
 10         1.4468328016e-03
 11         1.8420096530e-04
 12        -1.8002030710e-04
 13        -3.0831139624e-03
 14         2.2114353556e-03
 15         5.2654387082e-03
 16        -4.7960411215e-02
 17        -8.4212562346e-02
 18        -1.3878319344e-01
 19        -9.4960881105e-02
 20         6.8845863782e-03
 21        -9.3792917356e-02
 22        -9.1080008929e-03
 23         2.8575986775e-03
 24         3.8364113808e-03
 25         5.2498759749e-04
 26        -3.8820616774e-04
 27        -1.7099771538e-02
 28         3.1004968650e-03
 29        -1.3967271490e-02
 30         2.2888663898e-01
 31         1.6712581910e-01
 32        -5.6376916641e-03
 33        -5.4692602156e-02
 34         1.0364291296e-03
 35         3.6454843393e-02
 36        -4.0755591191e-02
 37         1.6077869244e-04
 38        -4.8382744461e-03
 39         1.4601406102e-04
 40        -3.3903335132e-04
 41        -1.0023327203e-02
 42        -4.9097668572e-03
 43        -3.0562967816e-03
 44         1.5180592881e-01
 45         6.1439144767e-02
 46        -1.0706761555e-01
 47         7.9380351608e-02
 48        -5.4666521779e-03
 49        -3.7456617219e-02
 50         7.8068042815e-03
 51        -1.7988665764e-03