[Molden Format]
[Atoms] (AU)
C    1    6           1.6479726587         3.0073513681         0.3031218739
C    2    6          -0.7908357857         2.4117594309        -0.1632034800
C    3    6          -2.0393439351        -0.0090314576         0.2886505780
C    4    6          -0.8955837962        -2.2892473960         0.1030924171
O    5    8           1.5746019632        -2.6764896768        -0.4104300184
H    6    1           2.3637962852        -1.0182612945        -0.6923259825
H    7    1           2.4345301892         4.8295301214        -0.2730461920
H    8    1           2.9044957413         1.7406176795         1.3558731428
H    9    1          -1.9131331523        -4.0678499530         0.2573148559
H   10    1          -4.0780297445        -0.0180997619         0.6313067172
H   11    1          -1.9618353441         3.8526853337        -1.0957013843
[GTO]
  1 0
 s    8  1.00
     6665.0000000000         0.0006920000
     1000.0000000000         0.0053290000
      228.0000000000         0.0270770000
       64.7100000000         0.1017180000
       21.0600000000         0.2747400000
        7.4950000000         0.4485640000
        2.7970000000         0.2850740000
        0.5215000000         0.0152040000
 s    8  1.00
     6665.0000000000        -0.0001460000
     1000.0000000000        -0.0011540000
      228.0000000000        -0.0057250000
       64.7100000000        -0.0233120000
       21.0600000000        -0.0639550000
        7.4950000000        -0.1499810000
        2.7970000000        -0.1272620000
        0.5215000000         0.5445290000
 s    1  1.00
        0.1596000000         1.0000000000
 p    3  1.00
        9.4390000000         0.0381090000
        2.0020000000         0.2094800000
        0.5456000000         0.5085570000
 p    1  1.00
        0.1517000000         1.0000000000
 d    1  1.00
        0.5500000000         1.0000000000

  2 0
 s    8  1.00
     6665.0000000000         0.0006920000
     1000.0000000000         0.0053290000
      228.0000000000         0.0270770000
       64.7100000000         0.1017180000
       21.0600000000         0.2747400000
        7.4950000000         0.4485640000
        2.7970000000         0.2850740000
        0.5215000000         0.0152040000
 s    8  1.00
     6665.0000000000        -0.0001460000
     1000.0000000000        -0.0011540000
      228.0000000000        -0.0057250000
       64.7100000000        -0.0233120000
       21.0600000000        -0.0639550000
        7.4950000000        -0.1499810000
        2.7970000000        -0.1272620000
        0.5215000000         0.5445290000
 s    1  1.00
        0.1596000000         1.0000000000
 p    3  1.00
        9.4390000000         0.0381090000
        2.0020000000         0.2094800000
        0.5456000000         0.5085570000
 p    1  1.00
        0.1517000000         1.0000000000
 d    1  1.00
        0.5500000000         1.0000000000

  3 0
 s    8  1.00
     6665.0000000000         0.0006920000
     1000.0000000000         0.0053290000
      228.0000000000         0.0270770000
       64.7100000000         0.1017180000
       21.0600000000         0.2747400000
        7.4950000000         0.4485640000
        2.7970000000         0.2850740000
        0.5215000000         0.0152040000
 s    8  1.00
     6665.0000000000        -0.0001460000
     1000.0000000000        -0.0011540000
      228.0000000000        -0.0057250000
       64.7100000000        -0.0233120000
       21.0600000000        -0.0639550000
        7.4950000000        -0.1499810000
        2.7970000000        -0.1272620000
        0.5215000000         0.5445290000
 s    1  1.00
        0.1596000000         1.0000000000
 p    3  1.00
        9.4390000000         0.0381090000
        2.0020000000         0.2094800000
        0.5456000000         0.5085570000
 p    1  1.00
        0.1517000000         1.0000000000
 d    1  1.00
        0.5500000000         1.0000000000

  4 0
 s    8  1.00
     6665.0000000000         0.0006920000
     1000.0000000000         0.0053290000
      228.0000000000         0.0270770000
       64.7100000000         0.1017180000
       21.0600000000         0.2747400000
        7.4950000000         0.4485640000
        2.7970000000         0.2850740000
        0.5215000000         0.0152040000
 s    8  1.00
     6665.0000000000        -0.0001460000
     1000.0000000000        -0.0011540000
      228.0000000000        -0.0057250000
       64.7100000000        -0.0233120000
       21.0600000000        -0.0639550000
        7.4950000000        -0.1499810000
        2.7970000000        -0.1272620000
        0.5215000000         0.5445290000
 s    1  1.00
        0.1596000000         1.0000000000
 p    3  1.00
        9.4390000000         0.0381090000
        2.0020000000         0.2094800000
        0.5456000000         0.5085570000
 p    1  1.00
        0.1517000000         1.0000000000
 d    1  1.00
        0.5500000000         1.0000000000

  5 0
 s    8  1.00
    11720.0000000000         0.0007100000
     1759.0000000000         0.0054700000
      400.8000000000         0.0278370000
      113.7000000000         0.1048000000
       37.0300000000         0.2830620000
       13.2700000000         0.4487190000
        5.0250000000         0.2709520000
        1.0130000000         0.0154580000
 s    8  1.00
    11720.0000000000        -0.0001600000
     1759.0000000000        -0.0012630000
      400.8000000000        -0.0062670000
      113.7000000000        -0.0257160000
       37.0300000000        -0.0709240000
       13.2700000000        -0.1654110000
        5.0250000000        -0.1169550000
        1.0130000000         0.5573680000
 s    1  1.00
        0.3023000000         1.0000000000
 p    3  1.00
       17.7000000000         0.0430180000
        3.8540000000         0.2289130000
        1.0460000000         0.5087280000
 p    1  1.00
        0.2753000000         1.0000000000
 d    1  1.00
        1.1850000000         1.0000000000

  6 0
 s    3  1.00
       13.0100000000         0.0196850000
        1.9620000000         0.1379770000
        0.4446000000         0.4781480000
 s    1  1.00
        0.1220000000         1.0000000000
 p    1  1.00
        0.7270000000         1.0000000000

  7 0
 s    3  1.00
       13.0100000000         0.0196850000
        1.9620000000         0.1379770000
        0.4446000000         0.4781480000
 s    1  1.00
        0.1220000000         1.0000000000
 p    1  1.00
        0.7270000000         1.0000000000

  8 0
 s    3  1.00
       13.0100000000         0.0196850000
        1.9620000000         0.1379770000
        0.4446000000         0.4781480000
 s    1  1.00
        0.1220000000         1.0000000000
 p    1  1.00
        0.7270000000         1.0000000000

  9 0
 s    3  1.00
       13.0100000000         0.0196850000
        1.9620000000         0.1379770000
        0.4446000000         0.4781480000
 s    1  1.00
        0.1220000000         1.0000000000
 p    1  1.00
        0.7270000000         1.0000000000

  10 0
 s    3  1.00
       13.0100000000         0.0196850000
        1.9620000000         0.1379770000
        0.4446000000         0.4781480000
 s    1  1.00
        0.1220000000         1.0000000000
 p    1  1.00
        0.7270000000         1.0000000000

  11 0
 s    3  1.00
       13.0100000000         0.0196850000
        1.9620000000         0.1379770000
        0.4446000000         0.4781480000
 s    1  1.00
        0.1220000000         1.0000000000
 p    1  1.00
        0.7270000000         1.0000000000

[5D7F]
[9G]

[MO]
 Sym= A
 Ene=        -1.9174119895e+01
 Spin= Alpha
 Occup=         2.0000000000e+00
  1        -8.0627182820e-05
  2        -1.3823589506e-04
  3         1.2781300563e-03
  4        -1.0693348162e-04
  5         7.4773590763e-05
  6         2.2920884174e-05
  7        -2.7354276251e-04
  8        -1.3708627559e-03
  9         1.4729935330e-04
 10        -6.9558026114e-05
 11         1.5310721568e-05
 12         4.1110752554e-05
 13        -4.8483787422e-05
 14         7.7381130019e-05
 15         2.1849180407e-04
 16         3.7622006102e-04
 17        -5.6781375447e-03
 18        -2.6535438440e-06
 19         4.9796135296e-06
 20         6.4795116933e-05
 21         1.7179017524e-04
 22         3.0007391641e-03
 23        -8.9555643767e-04
 24         7.3126469038e-05
 25        -1.2520532353e-04
 26         1.0249602591e-04
 27        -9.1112328434e-06
 28         1.5410866323e-05
 29        -1.9204984461e-04
 30        -2.7892203569e-04
 31         5.0033516107e-03
 32         6.4255230148e-05
 33        -2.8033649664e-04
 34         6.6681216088e-06
 35         4.6916569440e-03
 36         3.0633324295e-03
 37        -1.0693614980e-03
 38        -1.5914568381e-04
 39        -1.3512101371e-04
 40         6.8627026007e-05
 41         3.6895754785e-04
 42        -3.9731648435e-04
 43        -1.9134003688e-04
 44        -3.4934125377e-04
 45        -5.8141873567e-03
 46        -3.2673268920e-04
 47         2.2195049664e-04
 48         1.0181184824e-04
 49        -5.8114613353e-03
 50        -1.6013222129e-03
 51         1.1980824745e-03
 52         4.1446229545e-04
 53         7.5244508986e-06
 54         6.9672018152e-05
 55         7.1595129719e-04
 56        -3.9599348213e-04
 57        -1.0040763783e+00
 58        -9.3404436005e-03
 59         1.4092982709e-02
 60         8.9858364843e-04
 61        -1.4256725851e-03
 62        -7.4526522231e-05
 63        -3.2117273601e-03
 64         1.4458518381e-03
 65         6.0950442844e-04
 66         1.3151958547e-05
 67        -2.5228099245e-06
 68         7.6728864852e-05
 69         1.3900053645e-04
 70        -2.5248717234e-04
 71        -3.1419294175e-04
 72        -3.7209971543e-04
 73        -2.0535866238e-04
 74        -9.3708534830e-04
 75         4.2630036350e-05
 76         5.5008323225e-05
 77         3.0165705486e-04
 78         3.8300329768e-05
 79         6.3107555540e-05
 80         9.2665878175e-06
 81        -2.3725061685e-04
 82        -1.8131310372e-04
 83         3.0889208952e-06
 84        -3.0132447036e-05
 85        -1.7340920890e-05
 86         4.1807395883e-04
 87        -9.3615581463e-04
 88         6.3288467494e-04
 89         1.5251947575e-04
 90        -1.2516120049e-04
 91         1.7326687210e-04
 92         1.2430213622e-03
 93        -2.2013036998e-04
 94        -2.0246866302e-04
 95         6.1551522957e-05
 96         8.3488478545e-05
 97        -6.2422190661e-04
 98        -3.5197417434e-05
 99        -1.0917762783e-04
100         2.6494838506e-05
 Sym= A
 Ene=        -1.0250431878e+01
 Spin= Alpha
 Occup=         2.0000000000e+00
  1        -2.7955485262e-04
  2        -3.4094975665e-04
  3         1.0677798805e-03
  4         1.4926312230e-04
  5         7.8793494350e-05
  6         7.2965861646e-05
  7        -1.2486687757e-03
  8         5.2011590727e-04
  9        -6.3027229391e-04
 10        -7.2685319530e-05
 11        -1.7516404556e-05
 12        -2.8076651533e-05
 13         5.2705709847e-05
 14        -4.0787336050e-05
 15        -4.9840475883e-04
 16        -7.1056471150e-04
 17         4.9545311744e-03
 18        -1.1739227233e-04
 19         1.5207625060e-05
 20         2.1079600786e-06
 21        -2.3715818372e-03
 22        -4.1684679782e-03
 23         7.6112314506e-04
 24        -3.5583703301e-04
 25        -9.3209739611e-05
 26        -1.0194360576e-04
 27         1.1519449859e-05
 28         1.8781530924e-04
 29         4.5514019375e-03
 30        -9.9614794926e-04
 31        -2.1568681673e-05
 32        -5.7707216466e-04
 33         1.3536546459e-03
 34         9.3443835427e-05
 35        -1.9903893970e-03
 36        -6.4598406314e-03
 37         7.5838966240e-04
 38         1.0803178003e-03
 39         2.3669738790e-04
 40        -5.6751212550e-05
 41         5.7078768361e-04
 42         9.1438401778e-04
 43         1.0059307654e+00
 44         1.5333060198e-02
 45        -1.2513571249e-02
 46         5.4945150440e-04
 47        -5.1585413995e-04
 48        -1.8983313915e-04
 49         4.9959813772e-03
 50        -2.3037590673e-03
 51        -9.8562720438e-04
 52        -1.6522327571e-03
 53        -5.0263044471e-04
 54         3.6674121148e-05
 55        -3.6625290096e-04
 56         3.1680007316e-05
 57         7.1616794724e-04
 58         1.2940601639e-03
 59        -4.8759266103e-03
 60         2.5966395285e-04
 61        -2.0319413190e-04
 62        -3.4228480074e-05
 63         3.2370101245e-03
 64        -2.4751468774e-04
 65        -7.0324489534e-04
 66         6.9302334237e-04
 67         4.3143995226e-04
 68        -2.0972636268e-05
 69        -7.6209462654e-04
 70         1.8857579273e-04
 71         5.0304577895e-04
 72        -4.2787068372e-04
 73        -6.2543615100e-04
 74        -2.6020743797e-05
 75         1.2140140904e-04
 76        -5.6595631032e-05
 77         1.5674834748e-04
 78        -2.6032050502e-05
 79        -5.5269592979e-05
 80         3.0334426060e-05
 81         8.9512287579e-06
 82         9.3900297512e-04
 83         1.0036936407e-05
 84         6.2955303240e-05
 85        -2.9600751888e-05
 86        -2.2632051760e-03
 87         2.3678554200e-03
 88        -1.5544801788e-03
 89        -1.6296574219e-03
 90         2.5470733891e-04
 91        -1.3839962751e-04
 92        -2.5561973906e-04
 93         3.0292895703e-04
 94         2.9265394955e-04
 95        -7.5863497579e-05
 96        -5.2533850638e-05
 97         5.5120813980e-04
 98         1.7238917125e-04
 99         1.3140609141e-04
100        -3.0673483972e-05
 Sym= A
 Ene=        -1.0206531146e+01
 Spin= Alpha
 Occup=         2.0000000000e+00
  1         2.1824393359e-02
  2        -1.1171269138e-03
  3         4.7797359592e-03
  4         1.3217164509e-03
  5         3.3573571809e-04
  6         1.5922642882e-04
  7        -2.0642174978e-03
  8        -1.8260793094e-03
  9         3.8047713963e-04
 10         7.5970788206e-04
 11        -5.3156997624e-04
 12        -2.5759550347e-05
 13        -1.0710705128e-03
 14        -3.9362188560e-04
 15         1.0061859906e+00
 16         1.6248836257e-02
 17        -1.9277358059e-02
 18        -1.2896129215e-04
 19         1.8749220375e-04
 20        -2.5982101564e-04
 21        -1.6985652059e-03
 22         3.2451311355e-03
 23        -1.7180444144e-03
 24        -7.4293990843e-04
 25         6.9335791799e-04
 26        -6.5344637932e-04
 27         2.1834285549e-04
 28        -8.3479061443e-06
 29         5.5563672695e-03
 30        -4.6573838922e-04
 31         1.2272084477e-03
 32        -4.7270679830e-04
 33        -6.4166599292e-04
 34         1.4504558968e-04
 35         8.5392133708e-04
 36         3.8909667129e-03
 37         2.4989303794e-04
 38         8.0370540446e-04
 39         2.8249204343e-05
 40         5.7564136504e-04
 41         1.1125031635e-03
 42        -9.6318512511e-04
 43        -3.4591650477e-04
 44        -6.8993783248e-04
 45         4.0361495947e-03
 46        -1.0976327507e-04
 47        -1.5242658838e-04
 48         1.2776811570e-04
 49        -6.0818569201e-04
 50         2.7382929664e-03
 51        -2.5729856735e-04
 52        -4.2512390618e-04
 53        -3.1214122290e-04
 54         6.6344401758e-05
 55         4.1708050137e-04
 56        -3.2695928812e-04
 57         8.6878524398e-05
 58         1.2625387952e-04
 59        -1.2102846810e-03
 60         1.6299359678e-04
 61        -4.0628446675e-05
 62        -2.6378093944e-05
 63         1.3918359217e-04
 64        -6.6694285011e-04
 65         7.8052896168e-05
 66         8.2241331570e-05
 67         2.6519977325e-05
 68         1.7738457217e-05
 69        -1.7844185283e-05
 70         1.2620375426e-05
 71         2.7620941789e-04
 72         6.0186986384e-04
 73        -2.8175961965e-04
 74        -7.9007931258e-05
 75        -2.0972089094e-05
 76        -5.4675606771e-05
 77         8.9770142257e-04
 78         1.4549279232e-04
 79        -1.0957149854e-04
 80         7.5707866310e-05
 81        -2.6990493005e-04
 82        -2.1855509259e-04
 83         3.7241208440e-05
 84         2.4075484777e-04
 85        -1.0925503516e-04
 86         1.1319738935e-04
 87         7.9124455690e-04
 88         1.8294155482e-04
 89        -4.8328271605e-05
 90         2.5150760526e-06
 91        -2.9460210874e-04
 92         4.4733268520e-04
 93        -7.2313537530e-05
 94        -3.8569835737e-04
 95        -5.7728472577e-05
 96        -2.2668755227e-03
 97         1.1973317068e-03
 98        -1.1458594167e-03
 99         1.4940909011e-03
100        -9.5381055046e-04
 Sym= A
 Ene=        -1.0191101500e+01
 Spin= Alpha
 Occup=         2.0000000000e+00
  1         1.0061768906e+00
  2         1.6331262255e-02
  3        -1.5273303896e-02
  4         2.8153111232e-04
  5        -5.6397489343e-05
  6         2.8374694793e-05
  7         2.2156960600e-03
  8         7.4625347470e-04
  9         7.3278872953e-04
 10        -1.0359033747e-03
 11         7.1018968491e-04
 12        -1.1914594880e-03
 13         3.4980677915e-05
 14         3.2544202465e-04
 15        -2.3029174764e-02
 16        -1.4279403146e-03
 17         9.7786154325e-04
 18        -1.3242661680e-03
 19        -3.2316132088e-04
 20        -2.6971793103e-04
 21         2.9425750455e-03
 22         2.5020752245e-03
 23        -3.4978158889e-05
 24         9.9912072235e-04
 25        -5.8247887302e-04
 26         1.8226769122e-04
 27        -9.9433630574e-04
 28        -7.7136771031e-04
 29        -1.0208385521e-03
 30        -5.1778081980e-04
 31         3.5370324812e-03
 32        -8.4321598529e-05
 33         5.0900990693e-05
 34        -6.5362676659e-05
 35         1.9319953175e-03
 36         2.4959993585e-03
 37        -5.0206480169e-04
 38        -3.7592698056e-04
 39         7.7317581288e-05
 40        -2.4253698704e-04
 41        -3.3976658659e-04
 42         2.7274676280e-05
 43         1.1017039777e-05
 44        -2.0760638060e-04
 45        -6.0510060905e-04
 46         1.1646434790e-06
 47        -1.3485409711e-04
 48        -5.0314359629e-05
 49        -1.3165183749e-03
 50        -1.7199538547e-04
 51         2.9973024099e-04
 52         6.1868185927e-05
 53         9.6975203642e-05
 54        -9.0404538040e-05
 55        -4.0579908706e-05
 56         1.0442533952e-04
 57         8.8870413977e-06
 58         3.1479517127e-05
 59         4.1356439247e-04
 60         1.1953532737e-04
 61         6.7255659115e-05
 62        -3.6047228399e-05
 63        -6.5425765283e-04
 64        -1.6994982252e-04
 65         1.0016766464e-04
 66        -3.2283474273e-05
 67        -3.2884143605e-05
 68        -2.6451627436e-05
 69         7.7258138668e-05
 70         5.7673490176e-05
 71         1.7151990527e-04
 72         1.2642584329e-03
 73        -1.2231247133e-04
 74         4.2939843611e-04
 75         8.5039332359e-05
 76        -2.3061562026e-03
 77         1.8860915631e-03
 78         7.5152019024e-04
 79         2.0139742521e-03
 80        -7.0587438381e-04
 81        -2.1139063359e-03
 82         1.4913809029e-03
 83         1.2169761085e-03
 84        -1.4837296883e-03
 85         1.2112179070e-03
 86        -8.2943159788e-05
 87        -4.7787757366e-05
 88         4.2747620312e-05
 89         1.9890170743e-05
 90        -2.1247643955e-05
 91         1.0996337741e-04
 92         5.7569278289e-04
 93         1.3289693093e-05
 94        -1.3243000403e-04
 95         4.3461258185e-05
 96         7.6824220217e-05
 97         2.5868479686e-04
 98         1.4009993887e-05
 99        -3.1394699479e-04
100         1.0843071441e-04
 Sym= A
 Ene=        -1.0182559083e+01
 Spin= Alpha
 Occup=         2.0000000000e+00
  1         3.0831720165e-04
  2        -4.4656847109e-04
  3         2.7175635140e-03
  4         7.0304552272e-05
  5         1.0581388519e-04
  6        -8.5949909599e-05
  7        -2.0518406625e-03
  8        -4.1032695662e-04
  9        -3.4200959040e-05
 10        -2.5831687802e-04
 11         5.1793115154e-04
 12        -2.9685429163e-04
 13         2.7516974674e-04
 14        -4.8309648070e-04
 15        -5.9687190684e-03
 16        -7.1810375530e-04
 17         3.1152880553e-03
 18         2.1954805064e-04
 19         7.2251383560e-04
 20        -1.8131510605e-04
 21        -2.0225210644e-03
 22        -3.8754621779e-03
 23        -2.3667211966e-05
 24         9.0979095257e-04
 25         4.9309880243e-04
 26         3.5230900272e-04
 27         5.6153766377e-04
 28        -1.3207956659e-03
 29         1.0066353127e+00
 30         1.6722250241e-02
 31        -2.1889787691e-02
 32        -2.1275693407e-04
 33        -1.4383211821e-04
 34        -9.7078840872e-05
 35        -5.1594134299e-03
 36        -2.4977318201e-04
 37         1.5455006825e-03
 38        -1.0701567965e-03
 39        -3.9451171173e-04
 40        -1.2184275247e-05
 41         2.5156256249e-04
 42        -1.8385280720e-04
 43        -5.7900948169e-03
 44        -1.5885750109e-03
 45         6.7148301144e-03
 46         6.3040060222e-04
 47        -1.2285195661e-03
 48        -9.0357299336e-05
 49         3.5505065695e-04
 50         4.2491574454e-03
 51        -3.3636689675e-04
 52         8.3825210112e-04
 53         1.5770335393e-04
 54        -2.0389828128e-04
 55         7.0545443741e-04
 56         1.0202222876e-03
 57         3.5413236921e-05
 58         5.0375170496e-05
 59        -9.8222642863e-04
 60         3.1199831770e-05
 61        -5.8318179459e-05
 62        -2.9678750640e-06
 63        -1.0623794517e-04
 64        -7.0322592702e-04
 65         6.3263594969e-05
 66        -5.8192598678e-05
 67        -4.1563872891e-05
 68        -1.2403376401e-05
 69         9.3380566560e-05
 70         8.0900325744e-05
 71         2.6956520990e-04
 72         4.5976661076e-05
 73        -1.4341739447e-04
 74        -1.6087665690e-04
 75         2.3293736811e-05
 76         1.1599752832e-04
 77         5.0203681295e-04
 78         1.3910511957e-04
 79        -1.4725053951e-04
 80         4.9623923383e-05
 81        -6.9539325561e-04
 82         5.0010395722e-04
 83         1.8412579465e-04
 84        -1.2434111165e-04
 85         1.1954394737e-04
 86         1.5816033974e-04
 87         1.2499079015e-03
 88         2.9272572600e-04
 89        -2.5043306231e-05
 90        -1.6287276532e-05
 91        -2.3516464920e-03
 92         8.2878026688e-04
 93        -2.1001951826e-03
 94        -5.2049573970e-05
 95         2.8484935493e-04
 96        -3.3695361701e-04
 97         7.2442752501e-04
 98         1.9818257333e-04
 99         2.8589364027e-04
100         7.2203685310e-05
 Sym= A
 Ene=        -1.0635769883e+00
 Spin= Alpha
 Occup=         2.0000000000e+00
  1         1.3367717815e-04
  2         8.4847160679e-03
  3        -4.2144976740e-03
  4        -1.9323000477e-03
  5        -5.1199392348e-03
  6        -6.6621609740e-04
  7         2.6288207594e-03
  8         5.0885552349e-03
  9        -1.9431277329e-03
 10        -2.5524194647e-04
 11        -5.2616795539e-04
 12         6.8909253298e-04
 13        -7.8120304265e-04
 14         9.5511027732e-04
 15        -1.1590957854e-04
 16         1.3237462616e-02
 17         2.0416176773e-03
 18         1.5579792287e-03
 19        -8.7177558096e-03
 20         9.3408715184e-04
 21         5.9158114764e-03
 22         3.1879118548e-03
 23         2.3055817761e-04
 24        -1.3760628394e-03
 25        -1.3270524003e-04
 26        -4.0967668499e-04
 27        -1.3730768431e-03
 28         3.4622349673e-04
 29        -1.3585915451e-03
 30         3.5686471067e-02
 31        -3.1055696863e-03
 32         2.1423849796e-02
 33        -1.8521467118e-02
 34        -4.3011461697e-03
 35         5.5904187505e-03
 36         1.4495960287e-02
 37        -2.1675375557e-03
 38        -2.2894988916e-03
 39        -1.0400719590e-03
 40         1.5271527936e-03
 41         1.8547308137e-03
 42        -8.0565221039e-03
 43        -1.2834697703e-02
 44         1.5499546692e-01
 45         8.4486872717e-02
 46         1.2625555231e-01
 47        -5.2849283732e-03
 48        -2.7230090991e-02
 49         5.5855617958e-03
 50         2.3581027874e-02
 51        -1.2036806378e-03
 52        -1.1084156519e-02
 53        -1.0762609415e-02
 54         8.1703193357e-04
 55         2.8288595502e-02
 56        -4.6101969369e-03
 57        -6.6333183014e-03
 58         4.2396156341e-01
 59         3.7459606471e-01
 60        -7.4042848750e-02
 61         8.8707313677e-02
 62         1.0218519517e-02
 63        -3.1247025613e-02
 64        -1.0493468968e-03
 65         6.7134280237e-03
 66        -6.3490902902e-03
 67        -3.3877271945e-03
 68        -2.9143828106e-04
 69         4.1113735542e-03
 70        -1.7589373735e-03
 71         1.6782264914e-01
 72         5.0099537216e-03
 73        -1.8629721347e-02
 74        -2.9231019983e-02
 75         6.5215605600e-03
 76         4.9672437236e-05
 77        -3.8865051412e-03
 78         5.0301640895e-05
 79         9.7780647195e-05
 80        -1.5336119846e-04
 81         7.5516504710e-03
 82         4.5043617185e-03
 83        -1.1358173260e-03
 84        -6.3695970055e-04
 85        -8.8996475760e-04
 86         3.5131160280e-02
 87         5.4682916065e-03
 88         8.2825373960e-03
 89         4.6028090726e-03
 90        -1.5038103886e-03
 91         5.2663411094e-03
 92         1.9603366676e-03
 93         5.2148085945e-04
 94        -2.2303987009e-03
 95         2.6547962614e-06
 96         1.6395364099e-03
 97        -1.0949366718e-03
 98        -3.0828149389e-04
 99        -4.5531451139e-04
100        -9.3316913036e-05
 Sym= A
 Ene=        -8.0146029824e-01
 Spin= Alpha
 Occup=         2.0000000000e+00
  1         1.4712404456e-02
  2        -1.9260530408e-01
  3        -1.0508059285e-01
  4         8.3067311091e-02
  5         2.9330424439e-02
  6         1.3751340697e-02
  7         8.7447942365e-03
  8        -2.6928496274e-03
  9         8.2769811839e-03
 10         4.8405921173e-03
 11        -2.3028659428e-03
 12        -3.2961769191e-03
 13        -7.8243887819e-03
 14        -6.0289199327e-03
 15         1.9312930408e-02
 16        -2.7892032627e-01
 17        -1.7832883627e-01
 18        -3.7885529632e-02
 19         4.0618191122e-02
 20        -1.8535675900e-02
 21        -1.8609550745e-02
 22         2.0418849423e-02
 23        -1.3693474919e-02
 24         1.0488350542e-02
 25        -8.2525211089e-04
 26         1.2538569015e-03
 27        -1.5304510197e-03
 28        -1.0969807325e-02
 29         1.8070566787e-02
 30        -2.4071710763e-01
 31        -1.4234444864e-01
 32        -5.4155981324e-02
 33        -1.6940773866e-02
 34         1.4919720011e-02
 35        -1.9180047983e-02
 36        -1.2225203791e-02
 37         9.5769819103e-03
 38         8.6780754051e-03
 39         1.6541561089e-03
 40         2.5981462326e-03
 41         9.5216484653e-03
 42        -5.4769675523e-03
 43         5.4110046204e-03
 44        -1.2234296768e-01
 45        -6.5979131056e-02
 46         6.0486898659e-02
 47        -8.4891485443e-02
 48        -1.0000407781e-02
 49         2.3369453637e-02
 50        -1.2713634774e-02
 51        -6.7156035074e-03
 52         3.2995783567e-03
 53        -1.6822467860e-03
 54        -5.0275684711e-04
 55         1.2180323515e-02
 56         3.9768916851e-03
 57         1.0805665006e-03
 58         8.8542105867e-02
 59         8.2204499259e-02
 60         2.6036392831e-02
 61         1.8330125690e-03
 62        -6.9517518153e-03
 63         1.6060708769e-02
 64        -7.6826178904e-03
 65        -3.2718418185e-03
 66         7.8149523563e-04
 67         3.9759760430e-04
 68        -6.8072597320e-04
 69        -1.0152126475e-03
 70         2.8705046677e-03
 71         3.2637017943e-02
 72         3.7218713282e-03
 73        -1.9730362186e-03
 74        -9.0616848740e-03
 75         2.1961118128e-04
 76        -5.9825046129e-02
 77        -5.7317195718e-04
 78         5.8557568429e-03
 79         8.8103231415e-03
 80        -2.1845885394e-03
 81        -6.9579373201e-02
 82        -4.6346983521e-03
 83         8.1524641365e-03
 84        -5.5922059973e-03
 85         5.8379011126e-03
 86        -3.2718048500e-02
 87         1.0725650855e-03
 88        -4.4824303020e-04
 89        -5.7794792517e-03
 90         2.0274768069e-04
 91        -8.0957339510e-02
 92        -8.4914650702e-03
 93        -1.2983537396e-02
 94        -9.7102916646e-04
 95         2.0712089054e-03
 96        -9.5580706450e-02
 97        -1.2074165241e-02
 98        -8.4835163484e-03
 99         1.0795133464e-02
100        -6.4368119612e-03
 Sym= A
 Ene=        -7.3107944906e-01
 Spin= Alpha
 Occup=         2.0000000000e+00
  1         1.6110379759e-02
  2        -2.2623378805e-01
  3        -1.2651372700e-01
  4         5.3677199301e-02
  5         9.3675865922e-03
  6         1.3534351921e-02
  7         2.4477635098e-03
  8         1.1302654216e-03
  9         2.7771084996e-03
 10         3.0982331449e-03
 11        -2.5471444574e-03
 12        -2.2229519671e-03
 13        -5.4027191671e-03
 14         7.4059609723e-05
 15         8.7372319659e-03
 16        -1.3289646960e-01
 17        -1.0021205533e-01
 18        -1.0917005629e-01
 19        -7.6397909115e-02
 20        -6.4058682362e-03
 21        -4.7736761065e-02
 22        -1.2935220288e-02
 23        -6.4194944661e-03
 24         2.3627276903e-03
 25        -4.0816394507e-03
 26        -2.5366512743e-03
 27        -1.4475110819e-02
 28         4.3069871416e-04
 29        -1.3273441325e-02
 30         1.9886075968e-01
 31         1.2964491804e-01
 32         9.3031036837e-03
 33        -1.1965245456e-01
 34        -4.2374831099e-03
 35         1.8217297213e-02
 36        -3.3713004701e-02
 37        -1.8311150548e-04
 38        -3.4189681380e-03
 39         2.0223632296e-04
 40         1.9497036862e-03
 41        -6.9717606607e-03
 42        -1.2018614129e-02
 43        -1.0056469287e-02
 44         2.5228489489e-01
 45         1.4031816372e-01
 46        -7.3242115380e-02
 47         5.8793840494e-02
 48         1.1101089913e-02
 49        -2.2722501573e-02
 50         1.0214589670e-02
 51         2.7281579236e-03