Generated by Psi4
        SP                           RHF                       CC-PVDZ
Number of atoms                            I               11
Charge                                     I                0
Multiplicity                               I                1
Number of electrons                        I               38
Number of alpha electrons                  I               19
Number of beta electrons                   I               19
Number of basis functions                  I              100
Number of independent functions            I              100
Atomic numbers                             I   N=          11
           6           6           6           6           8           1
           1           1           1           1           1
Nuclear charges                            R   N=          11
  6.00000000e+00  6.00000000e+00  6.00000000e+00  6.00000000e+00  8.00000000e+00
  1.00000000e+00  1.00000000e+00  1.00000000e+00  1.00000000e+00  1.00000000e+00
  1.00000000e+00
Current cartesian coordinates              R   N=          33
  1.93618087e+00  2.60523966e+00 -1.49395655e-01 -8.85380718e-01  2.42659045e+00
 -1.49403989e-01 -2.10969928e+00  1.95999857e-01  2.00775414e-01 -8.30744408e-01
 -2.29354494e+00  6.80984424e-02  1.43712553e+00 -2.71426268e+00  7.60383534e-02
  2.73567828e+00  1.01883928e+00 -1.26683527e+00  2.69010506e+00  4.31331464e+00
 -1.01678350e+00  2.62945929e+00  2.41704513e+00  1.79689419e+00 -2.17526616e+00
 -3.89625109e+00 -2.15407285e-01 -4.17660461e+00  1.34166242e-01  3.24425788e-01
 -2.01193513e+00  4.15217497e+00 -4.72756538e-01
Integer atomic weights                     I   N=          11
          12          12          12          12          16           1
           1           1           1           1           1
Real atomic weights                        R   N=          11
  1.20000000e+01  1.20000000e+01  1.20000000e+01  1.20000000e+01  1.59949146e+01
  1.00782503e+00  1.00782503e+00  1.00782503e+00  1.00782503e+00  1.00782503e+00
  1.00782503e+00
Number of primitive shells                 I              140
Number of contracted shells                I               48
Pure/Cartesian d shells                    I                0
Pure/Cartesian f shells                    I                0
Highest angular momentum                   I                2
Largest degree of contraction              I                8
Shell types                                I   N=          48
           0           0           0           1           1          -2
           0           0           0           1           1          -2
           0           0           0           1           1          -2
           0           0           0           1           1          -2
           0           0           0           1           1          -2
           0           0           1           0           0           1
           0           0           1           0           0           1
           0           0           1           0           0           1
Number of primitives per shell             I   N=          48
           8           8           1           3           1           1
           8           8           1           3           1           1
           8           8           1           3           1           1
           8           8           1           3           1           1
           8           8           1           3           1           1
           3           1           1           3           1           1
           3           1           1           3           1           1
           3           1           1           3           1           1
Shell to atom map                          I   N=          48
           1           1           1           1           1           1
           2           2           2           2           2           2
           3           3           3           3           3           3
           4           4           4           4           4           4
           5           5           5           5           5           5
           6           6           6           7           7           7
           8           8           8           9           9           9
          10          10          10          11          11          11
Primitive exponents                        R   N=         140
  6.66500000e+03  1.00000000e+03  2.28000000e+02  6.47100000e+01  2.10600000e+01
  7.49500000e+00  2.79700000e+00  5.21500000e-01  6.66500000e+03  1.00000000e+03
  2.28000000e+02  6.47100000e+01  2.10600000e+01  7.49500000e+00  2.79700000e+00
  5.21500000e-01  1.59600000e-01  9.43900000e+00  2.00200000e+00  5.45600000e-01
  1.51700000e-01  5.50000000e-01  6.66500000e+03  1.00000000e+03  2.28000000e+02
  6.47100000e+01  2.10600000e+01  7.49500000e+00  2.79700000e+00  5.21500000e-01
  6.66500000e+03  1.00000000e+03  2.28000000e+02  6.47100000e+01  2.10600000e+01
  7.49500000e+00  2.79700000e+00  5.21500000e-01  1.59600000e-01  9.43900000e+00
  2.00200000e+00  5.45600000e-01  1.51700000e-01  5.50000000e-01  6.66500000e+03
  1.00000000e+03  2.28000000e+02  6.47100000e+01  2.10600000e+01  7.49500000e+00
  2.79700000e+00  5.21500000e-01  6.66500000e+03  1.00000000e+03  2.28000000e+02
  6.47100000e+01  2.10600000e+01  7.49500000e+00  2.79700000e+00  5.21500000e-01
  1.59600000e-01  9.43900000e+00  2.00200000e+00  5.45600000e-01  1.51700000e-01
  5.50000000e-01  6.66500000e+03  1.00000000e+03  2.28000000e+02  6.47100000e+01
  2.10600000e+01  7.49500000e+00  2.79700000e+00  5.21500000e-01  6.66500000e+03
  1.00000000e+03  2.28000000e+02  6.47100000e+01  2.10600000e+01  7.49500000e+00
  2.79700000e+00  5.21500000e-01  1.59600000e-01  9.43900000e+00  2.00200000e+00
  5.45600000e-01  1.51700000e-01  5.50000000e-01  1.17200000e+04  1.75900000e+03
  4.00800000e+02  1.13700000e+02  3.70300000e+01  1.32700000e+01  5.02500000e+00
  1.01300000e+00  1.17200000e+04  1.75900000e+03  4.00800000e+02  1.13700000e+02
  3.70300000e+01  1.32700000e+01  5.02500000e+00  1.01300000e+00  3.02300000e-01
  1.77000000e+01  3.85400000e+00  1.04600000e+00  2.75300000e-01  1.18500000e+00
  1.30100000e+01  1.96200000e+00  4.44600000e-01  1.22000000e-01  7.27000000e-01
  1.30100000e+01  1.96200000e+00  4.44600000e-01  1.22000000e-01  7.27000000e-01
  1.30100000e+01  1.96200000e+00  4.44600000e-01  1.22000000e-01  7.27000000e-01
  1.30100000e+01  1.96200000e+00  4.44600000e-01  1.22000000e-01  7.27000000e-01
  1.30100000e+01  1.96200000e+00  4.44600000e-01  1.22000000e-01  7.27000000e-01
  1.30100000e+01  1.96200000e+00  4.44600000e-01  1.22000000e-01  7.27000000e-01
Contraction coefficients                   R   N=         140
  6.91583963e-04  5.32579615e-03  2.70607210e-02  1.01656846e-01  2.74574824e-01
  4.48294319e-01  2.84902611e-01  1.51948592e-02 -2.93269653e-04 -2.31803547e-03
 -1.14997860e-02 -4.68267270e-02 -1.28466169e-01 -3.01266272e-01 -2.55630702e-01
  1.09379336e+00  1.00000000e+00  5.69792516e-02  3.13207212e-01  7.60376742e-01
  1.00000000e+00  1.00000000e+00  6.91583963e-04  5.32579615e-03  2.70607210e-02
  1.01656846e-01  2.74574824e-01  4.48294319e-01  2.84902611e-01  1.51948592e-02
 -2.93269653e-04 -2.31803547e-03 -1.14997860e-02 -4.68267270e-02 -1.28466169e-01
 -3.01266272e-01 -2.55630702e-01  1.09379336e+00  1.00000000e+00  5.69792516e-02
  3.13207212e-01  7.60376742e-01  1.00000000e+00  1.00000000e+00  6.91583963e-04
  5.32579615e-03  2.70607210e-02  1.01656846e-01  2.74574824e-01  4.48294319e-01
  2.84902611e-01  1.51948592e-02 -2.93269653e-04 -2.31803547e-03 -1.14997860e-02
 -4.68267270e-02 -1.28466169e-01 -3.01266272e-01 -2.55630702e-01  1.09379336e+00
  1.00000000e+00  5.69792516e-02  3.13207212e-01  7.60376742e-01  1.00000000e+00
  1.00000000e+00  6.91583963e-04  5.32579615e-03  2.70607210e-02  1.01656846e-01
  2.74574824e-01  4.48294319e-01  2.84902611e-01  1.51948592e-02 -2.93269653e-04
 -2.31803547e-03 -1.14997860e-02 -4.68267270e-02 -1.28466169e-01 -3.01266272e-01
 -2.55630702e-01  1.09379336e+00  1.00000000e+00  5.69792516e-02  3.13207212e-01
  7.60376742e-01  1.00000000e+00  1.00000000e+00  7.09645947e-04  5.46727229e-03
  2.78231186e-02  1.04747740e-01  2.82920846e-01  4.48495239e-01  2.70816885e-01
  1.54502916e-02 -3.14443412e-04 -2.48213768e-03 -1.23163554e-02 -5.05389173e-02
 -1.39384903e-01 -3.25077495e-01 -2.29848308e-01  1.09537935e+00  1.00000000e+00
  6.26791663e-02  3.33536566e-01  7.41239642e-01  1.00000000e+00  1.00000000e+00
  3.34987264e-02  2.34800801e-01  8.13682958e-01  1.00000000e+00  1.00000000e+00
  3.34987264e-02  2.34800801e-01  8.13682958e-01  1.00000000e+00  1.00000000e+00
  3.34987264e-02  2.34800801e-01  8.13682958e-01  1.00000000e+00  1.00000000e+00
  3.34987264e-02  2.34800801e-01  8.13682958e-01  1.00000000e+00  1.00000000e+00
  3.34987264e-02  2.34800801e-01  8.13682958e-01  1.00000000e+00  1.00000000e+00
  3.34987264e-02  2.34800801e-01  8.13682958e-01  1.00000000e+00  1.00000000e+00
Coordinates of each shell                  R   N=         144
  1.93618087e+00  2.60523966e+00 -1.49395655e-01  1.93618087e+00  2.60523966e+00
 -1.49395655e-01  1.93618087e+00  2.60523966e+00 -1.49395655e-01  1.93618087e+00
  2.60523966e+00 -1.49395655e-01  1.93618087e+00  2.60523966e+00 -1.49395655e-01
  1.93618087e+00  2.60523966e+00 -1.49395655e-01 -8.85380718e-01  2.42659045e+00
 -1.49403989e-01 -8.85380718e-01  2.42659045e+00 -1.49403989e-01 -8.85380718e-01
  2.42659045e+00 -1.49403989e-01 -8.85380718e-01  2.42659045e+00 -1.49403989e-01
 -8.85380718e-01  2.42659045e+00 -1.49403989e-01 -8.85380718e-01  2.42659045e+00
 -1.49403989e-01 -2.10969928e+00  1.95999857e-01  2.00775414e-01 -2.10969928e+00
  1.95999857e-01  2.00775414e-01 -2.10969928e+00  1.95999857e-01  2.00775414e-01
 -2.10969928e+00  1.95999857e-01  2.00775414e-01 -2.10969928e+00  1.95999857e-01
  2.00775414e-01 -2.10969928e+00  1.95999857e-01  2.00775414e-01 -8.30744408e-01
 -2.29354494e+00  6.80984424e-02 -8.30744408e-01 -2.29354494e+00  6.80984424e-02
 -8.30744408e-01 -2.29354494e+00  6.80984424e-02 -8.30744408e-01 -2.29354494e+00
  6.80984424e-02 -8.30744408e-01 -2.29354494e+00  6.80984424e-02 -8.30744408e-01
 -2.29354494e+00  6.80984424e-02  1.43712553e+00 -2.71426268e+00  7.60383534e-02
  1.43712553e+00 -2.71426268e+00  7.60383534e-02  1.43712553e+00 -2.71426268e+00
  7.60383534e-02  1.43712553e+00 -2.71426268e+00  7.60383534e-02  1.43712553e+00
 -2.71426268e+00  7.60383534e-02  1.43712553e+00 -2.71426268e+00  7.60383534e-02
  2.73567828e+00  1.01883928e+00 -1.26683527e+00  2.73567828e+00  1.01883928e+00
 -1.26683527e+00  2.73567828e+00  1.01883928e+00 -1.26683527e+00  2.69010506e+00
  4.31331464e+00 -1.01678350e+00  2.69010506e+00  4.31331464e+00 -1.01678350e+00
  2.69010506e+00  4.31331464e+00 -1.01678350e+00  2.62945929e+00  2.41704513e+00
  1.79689419e+00  2.62945929e+00  2.41704513e+00  1.79689419e+00  2.62945929e+00
  2.41704513e+00  1.79689419e+00 -2.17526616e+00 -3.89625109e+00 -2.15407285e-01
 -2.17526616e+00 -3.89625109e+00 -2.15407285e-01 -2.17526616e+00 -3.89625109e+00
 -2.15407285e-01 -4.17660461e+00  1.34166242e-01  3.24425788e-01 -4.17660461e+00
  1.34166242e-01  3.24425788e-01 -4.17660461e+00  1.34166242e-01  3.24425788e-01
 -2.01193513e+00  4.15217497e+00 -4.72756538e-01 -2.01193513e+00  4.15217497e+00
 -4.72756538e-01 -2.01193513e+00  4.15217497e+00 -4.72756538e-01
Total Energy                               R     -2.312368043418268e+02
Alpha Orbital Energies                     R   N=         100
 -1.91353889e+01 -1.02735700e+01 -1.02255023e+01 -1.01996478e+01 -1.01882426e+01
 -1.03908049e+00 -8.10419904e-01 -7.15327140e-01 -6.27216368e-01 -5.33604155e-01
 -4.97205671e-01 -4.39044456e-01 -4.32048593e-01 -4.26723931e-01 -3.85588017e-01
 -3.76593080e-01 -3.72345247e-01 -2.73887564e-01 -2.47966379e-01 -6.54688740e-02
  4.68466665e-02  6.49390710e-02  9.03509167e-02  1.04491225e-01  1.29894789e-01
  1.44087327e-01  1.57747483e-01  2.15265942e-01  2.61371186e-01  3.19902836e-01
  3.36842134e-01  4.34572365e-01  4.41877727e-01  4.50367037e-01  4.73839539e-01
  4.84855654e-01  5.04141734e-01  5.26208399e-01  5.65196973e-01  5.93239293e-01
  6.14955954e-01  6.24596512e-01  6.45356913e-01  6.48402242e-01  6.73203716e-01
  6.79496047e-01  7.03315914e-01  7.70353981e-01  8.01739956e-01  8.50534949e-01
  9.05681403e-01  9.14157179e-01  9.56266075e-01  1.02219754e+00  1.02868957e+00
  1.05856422e+00  1.08099880e+00  1.13796442e+00  1.18137287e+00  1.19272287e+00
  1.28308444e+00  1.35593374e+00  1.40010062e+00  1.47370268e+00  1.48658457e+00
  1.50346480e+00  1.54997796e+00  1.55362408e+00  1.61483407e+00  1.62335666e+00
  1.65376129e+00  1.66703896e+00  1.67085320e+00  1.70457681e+00  1.72274042e+00
  1.75059760e+00  1.78375689e+00  1.79639231e+00  1.84800679e+00  1.92591496e+00
  1.96276457e+00  1.98870656e+00  2.01446874e+00  2.04812930e+00  2.08518697e+00
  2.25395051e+00  2.31348843e+00  2.34173698e+00  2.39628246e+00  2.40586194e+00
  2.42324585e+00  2.46910101e+00  2.55733083e+00  2.64082387e+00  2.69842829e+00
  2.78467571e+00  2.97706310e+00  3.06680580e+00  3.41108489e+00  3.46635018e+00
Alpha MO coefficients                      R   N=       10000
 -7.54568086e-05 -1.55858372e-04  6.71295598e-05  6.15393027e-05  4.98913527e-05
  1.49145593e-05 -3.23517292e-05 -1.69651271e-04  1.41936677e-04  7.19844823e-05
  4.25013998e-05  3.39735172e-05  6.62153679e-05 -9.18844016e-05 -1.94526835e-04
 -3.46597590e-04  5.10315946e-03 -2.01173684e-05 -2.12443756e-05 -6.48452585e-05
 -8.36167592e-04 -2.09083089e-03  5.38574201e-04 -2.92927566e-05  4.62863563e-05
 -2.70768588e-05 -5.60914672e-05 -6.21784762e-05  2.07352603e-04  3.23182528e-04
 -3.45300748e-03  4.89869134e-05  2.51752845e-04 -7.57312889e-06 -4.32444567e-03
 -3.54484813e-03  3.18643375e-04  1.29212527e-04  6.48401172e-05  9.24725783e-05
 -4.27757877e-04  4.78682117e-04  4.64432936e-04  6.11492664e-04  5.20454064e-03
 -9.58340117e-05 -1.84898077e-04 -3.76699395e-05  6.58930643e-03  3.56461689e-04
  2.78232406e-05  9.14367053e-06  3.49148931e-05  1.02353843e-04 -1.13680754e-03
  5.23077695e-04  1.00416636e+00  9.46477205e-03 -1.50714151e-02 -1.83950361e-03
  3.70676877e-04 -2.08927232e-05  3.50710099e-03 -8.43547772e-04  2.43442292e-05
 -1.79129334e-05 -7.18363399e-07 -4.90433383e-06  6.63815849e-05  6.04739645e-06
 -1.17518643e-04 -1.57327562e-04  4.48301642e-05 -9.82575834e-06  2.37664090e-05
  1.14465585e-04  3.53465756e-04 -7.06969557e-05 -5.75218846e-05  4.84526325e-05
 -1.07302951e-04 -2.35658153e-04  6.37718560e-05  6.33307582e-05  5.93516015e-05
 -1.68233453e-04  8.39220085e-04 -7.60774947e-04  1.14726894e-04  1.01134558e-05
 -2.83504007e-04 -1.29720176e-03  1.83723541e-04  2.50664293e-04 -5.43710291e-06
 -1.78483373e-04  2.32251030e-04  3.45724170e-05  8.24904566e-05 -3.23546490e-05
 -3.76292781e-04 -5.05050710e-04  9.23240498e-04  2.74989419e-04  7.36479840e-05
 -2.39096583e-08 -6.88681555e-04 -1.80146144e-05 -1.49699414e-06 -3.18834197e-05
 -8.64723637e-05  2.20260405e-06 -1.08872975e-04 -1.15084368e-05 -4.28622720e-04
 -6.15334804e-04  5.96498165e-03 -2.62073903e-04 -2.01894914e-05  5.48223742e-05
 -2.01343385e-03 -3.55815626e-03  6.43919808e-04 -3.66690657e-04 -2.10980234e-04
 -9.67034813e-05  2.77924479e-04  3.57719644e-04  1.56333293e-03 -2.40085532e-04
 -1.42146444e-03 -3.41900359e-04  7.38019949e-04  6.05233783e-05 -2.34823060e-03
 -5.78355569e-03  3.98911815e-04  1.00727400e-03  1.94973884e-05 -4.19009254e-05
  1.10997277e-03  8.81904551e-04  1.00592450e+00  1.52397943e-02 -1.07267796e-02
  7.28176943e-04 -5.17867255e-04 -1.47590040e-04  5.38217480e-03 -2.14094225e-03
 -5.99818141e-05 -1.60930709e-03  1.82730439e-04  2.41307895e-04  8.86020444e-04
 -2.96421036e-05  3.62979300e-04  9.01542776e-04 -5.92238547e-03  7.48391868e-04
 -2.14444290e-04 -1.11571336e-05  3.39071970e-03 -2.31759515e-04  2.57296916e-05
  5.66001977e-04  4.66752571e-06 -2.88097897e-05 -7.24847821e-04  2.63301500e-04
 -1.21255688e-04 -6.24747202e-05  2.28312057e-05  7.40848112e-08 -7.05483610e-06
 -5.22549668e-05  3.80866593e-04 -4.63370909e-05 -1.84242127e-05  1.08494958e-05
 -6.09877019e-05  2.44875636e-05  1.07863512e-04  5.47721422e-05 -5.72078727e-05
 -1.67516971e-03  2.45173572e-03 -1.42021723e-03 -1.43767963e-03 -2.63610210e-04
 -5.60654365e-04 -4.80414347e-04  2.13525285e-05  2.78758370e-04 -3.04850021e-05
 -8.03539828e-06  5.74225240e-04  2.24375358e-04  9.16405793e-05 -3.35530328e-05
  2.83028489e-03 -3.75279949e-04  4.45106389e-03  6.95394090e-04  2.51058126e-05
  6.18750737e-05 -2.55493035e-03 -6.94444824e-04 -3.28633665e-04  8.23588821e-04
  2.28285674e-05  3.28577975e-05 -9.46612183e-04 -5.27572069e-05  1.00631896e+00
  1.60787089e-02 -2.03474144e-02 -4.57634316e-04  1.72332558e-04 -4.88416650e-05
 -2.41578944e-03  3.99217847e-03 -6.28388567e-04 -9.76234764e-04  1.66860490e-04
 -4.13736085e-04 -5.75323307e-04 -4.92243542e-04  1.19962990e-02 -1.16326225e-03
  4.87975183e-03 -6.82636114e-04 -1.03934801e-03  1.66945136e-04  2.70050803e-03
  2.73107511e-03 -2.82634002e-04  8.51239301e-04  1.36994063e-04  3.29358851e-04
  4.97609090e-04 -9.73036519e-04 -2.65314534e-04 -5.59075649e-04  1.12017333e-03
 -2.49040667e-06 -2.17533362e-04  4.18800780e-05 -5.67523346e-04  1.00962279e-03
 -8.24259087e-05 -3.07626262e-04 -1.15244158e-04 -1.36118996e-05  1.64040122e-04
  2.55625776e-05 -3.34020079e-05 -6.94678237e-05 -5.04920351e-05  1.19198299e-04
  2.29325281e-05  1.17526708e-05 -1.50343416e-04 -3.74518777e-04  4.92657304e-05
  1.46459963e-05 -2.74869439e-05  4.26632244e-06  1.04818450e-05  3.20100426e-05
 -4.43642649e-04  5.69289554e-04 -1.38645127e-04 -2.93283806e-05  6.66033659e-05
 -2.73215180e-04  1.82479058e-04  1.62226730e-04  1.14322681e-05  1.02586235e-04
 -4.86199608e-04  1.14369544e-03 -1.58005930e-04  2.41524639e-06  2.00257805e-05
 -1.11071347e-04  2.85069261e-04  4.51858322e-05 -8.01226182e-05 -1.77688000e-05
  1.66983904e-04  9.39687903e-04  1.58412678e-04 -2.74904262e-04  3.43577266e-08
 -2.43928872e-03  1.02308011e-03 -1.23392388e-03  1.78838602e-03 -3.41417938e-04
  9.78928246e-04  5.10994044e-04 -3.22983934e-04 -1.18835625e-04 -1.46200970e-04
  1.04740855e-04  9.90136979e-04  1.62157052e-04 -4.00159390e-04  2.89805574e-04
 -3.20683735e-06  8.89715175e-05 -3.31918668e-05  7.50635704e-05  1.33486987e-02
  1.62689029e-03 -5.86172627e-03 -5.52141864e-04 -1.16930144e-03  1.88733069e-04
  7.52756555e-04  3.52861578e-03 -1.44253217e-04 -8.85756432e-04 -2.08252016e-04
 -3.76714399e-04 -6.37544343e-04  8.84684546e-04 -1.00646006e+00 -1.64565101e-02
  2.09008270e-02  3.54118330e-04 -2.23762916e-04  2.01852069e-04  5.12367703e-03
  2.29221977e-04 -1.08295159e-03  1.05681168e-03  1.68238915e-04  1.11997419e-04
 -4.79379011e-04 -5.04417520e-04  1.85590739e-03  7.40704841e-04 -5.65281074e-03
 -2.45315199e-04  6.67297326e-04  6.37772703e-05 -2.00591879e-04 -3.42455206e-03
  4.22921165e-05 -6.77591148e-04 -1.91843627e-04  1.05940584e-04 -5.35350834e-04
 -1.22150804e-03 -4.23114918e-05 -7.40412359e-05  6.94339711e-04 -8.29123800e-06
  5.77597518e-05  4.20972081e-05  1.37639196e-04  6.80068614e-04 -4.86697586e-05
  1.23122665e-04 -4.00940777e-05 -8.06137159e-06 -9.36620731e-05 -2.28457860e-04
  8.37444062e-05 -3.37626827e-04 -2.13851798e-05 -1.13742341e-04  3.75449312e-05
 -5.22879838e-05 -4.25524325e-04 -5.03857972e-05  5.12211951e-05  3.55035050e-05
  1.17736633e-04 -1.90049295e-04 -4.12938891e-05 -8.40066869e-05  1.32502890e-04
  3.25840937e-04 -9.44640637e-04 -6.13585116e-05  2.00161457e-04 -3.12374271e-05
  2.47013800e-03 -8.72608444e-04  2.18165800e-03 -6.12011309e-05 -4.41968015e-05
 -8.99008677e-05 -7.67531121e-04 -2.99198870e-04  2.08855582e-05 -6.15890170e-05
  1.00703368e+00  1.75311465e-02 -1.89979357e-02  4.41932639e-04  8.69887412e-05
  8.16801303e-05  2.77431612e-03  4.10309187e-04 -1.74594142e-04  4.29014659e-04
 -9.34134338e-05 -2.07725684e-04 -4.80382020e-04  1.92037422e-04 -2.97342324e-03
 -2.05136180e-04  1.34743680e-03 -4.90625461e-04  4.06409561e-05 -1.84932446e-05
  3.83655020e-03  2.52465120e-03 -3.87243673e-04  6.30710842e-04  2.12798908e-05
 -2.10380740e-05 -1.32153617e-03 -3.12130011e-04  2.47399165e-04 -7.36219271e-04
  3.82382491e-03 -2.61445638e-04  9.74099294e-06 -4.50436658e-06  1.40402728e-03
  2.54990943e-03 -3.97768894e-04 -3.73604207e-04  3.10653529e-05 -1.20549789e-04
 -3.28661916e-04 -1.95788656e-04 -1.32368769e-04 -5.08685532e-04  2.84257173e-04
 -8.10411150e-05 -2.69588093e-04 -4.55949609e-05 -1.61162810e-04  4.91172491e-04
  1.49873652e-04 -5.83361439e-05 -3.09277420e-05 -3.82073761e-05  3.65633889e-05
  3.89060253e-05 -1.05617836e-04 -2.05536142e-04  3.33183652e-04  3.31456033e-05
 -1.15107289e-04 -2.46032173e-05 -2.35733202e-04  2.53022643e-04  7.04650091e-05
 -5.60801507e-05 -3.61927761e-07  8.54262718e-06 -1.17345348e-06 -2.52614875e-06
 -9.37246246e-04  2.07981744e-03  5.30991337e-04 -1.42760235e-03 -9.38433124e-04
 -1.56377313e-03  1.80340626e-03  6.49346466e-04  1.77868403e-03 -8.52450531e-04
 -1.24875130e-03  2.31923396e-03  5.22725938e-04 -2.25367439e-04  1.87970187e-03
  3.29301239e-05  4.13091611e-04  1.32853147e-05  6.20736502e-05 -1.66219878e-05
  1.18749594e-05  5.61812378e-04  3.71915949e-05 -1.86935098e-04  3.28155137e-05
 -4.04104673e-04  7.53635812e-07 -3.99110243e-04 -1.81699467e-04  2.32955702e-05
 -4.49149135e-04  8.17122636e-03  4.75209074e-03 -3.30635465e-03 -3.90631341e-03
 -1.77835985e-04 -2.28425599e-03 -1.14495142e-03  7.90553086e-04 -7.04016219e-04
 -8.20815348e-05 -1.36305869e-04  5.18488550e-05  8.22739764e-04  5.21903549e-04
  1.62843068e-02 -1.14261641e-02  5.59694850e-04 -1.02316954e-02  1.16902612e-03
 -1.66446864e-03  9.26714472e-03 -1.41890830e-03 -4.64693364e-04 -2.35940243e-04
 -4.79994164e-04 -1.35696832e-03  7.55651555e-04 -3.64533705e-03  3.45195292e-02
  3.03413889e-02  2.03869102e-02 -1.84778690e-02 -1.58005486e-03  1.93206513e-02
  2.45654113e-03 -2.20856967e-03 -3.65769719e-03 -6.74376119e-04  8.19120067e-05
  1.79292027e-04 -8.95896560e-03 -1.46635258e-02  2.23937282e-01  9.51587441e-02
  1.84256905e-01 -2.63856045e-02  6.22844083e-04  1.25281333e-02 -1.93746441e-03
  8.30674358e-04 -1.39619857e-02 -6.57019796e-04 -1.52210612e-03  3.11969735e-02
 -1.40818931e-02 -9.16462153e-03  4.02569703e-01  3.61149606e-01 -1.54915850e-01
  3.19996249e-02 -1.15235255e-03 -3.17249978e-02  7.49022984e-03 -9.74001762e-04
 -5.39973365e-03 -1.08538380e-04 -7.78844475e-04  1.19860781e-02 -5.15723496e-03
  7.54536050e-03  3.98852755e-03 -6.94985626e-04 -4.17539184e-04  7.24362880e-04
  1.15869942e-03 -6.71897105e-04  4.04320156e-06 -4.77003825e-05 -8.52267452e-05
  2.80051949e-03  6.49482482e-04 -3.27713582e-04 -3.57753536e-04 -5.51904161e-04
  4.05227718e-02 -3.12421077e-03  1.00765995e-02  6.05686635e-03  1.14161841e-03
  6.88199020e-03  6.00565225e-03  9.33009550e-04 -1.90631578e-03 -8.40538946e-05
  1.75642073e-03 -3.01527934e-03 -1.60242908e-04 -8.13568151e-04  1.51160011e-04
  1.15201312e-02 -1.83026179e-01 -7.63466647e-02  6.79413583e-02  1.26725917e-02
 -1.99032330e-03  2.52280586e-03 -7.56433125e-03  1.79698329e-03  6.05551477e-03
  1.34701144e-04 -1.87356430e-04 -9.98481048e-03 -2.79228559e-03  1.95520744e-02
 -2.88644154e-01 -2.05357823e-01 -8.02285246e-03  7.18064696e-02 -1.02455652e-02
 -3.14765851e-02  2.53039855e-02 -4.50038636e-03  9.99206775e-03  1.23704000e-03
  2.02509648e-03 -2.28789324e-03 -9.34181149e-03  1.67737249e-02 -2.52936959e-01
 -1.38657596e-01 -5.83886291e-02 -5.63901336e-02  1.71362150e-02 -3.02475535e-03
 -1.97028898e-02  4.26502138e-03  6.84668271e-03  1.78900252e-03  2.27953541e-03
  8.77067384e-03 -8.25149973e-03  2.59057263e-03 -6.50206497e-02 -5.05095514e-02
  7.21868500e-02 -7.95843781e-02 -3.19516038e-04  2.29934013e-02 -2.24122002e-02
 -1.71951448e-03  2.69912799e-03  2.99058102e-04 -4.62427255e-04  1.29167983e-02
  3.36308975e-03 -3.19600200e-04  7.57530477e-02  7.30604393e-02 -1.20587715e-02
 -1.61263043e-02  2.45079231e-04  1.16082954e-03 -7.19579783e-03  5.74601586e-04
  1.62185205e-04 -1.98391963e-05 -2.14915481e-05  1.71083881e-03  1.56053858e-03
 -6.78556052e-02 -2.12506500e-03  4.50997464e-03 -7.75682520e-03 -5.36728648e-03
 -6.15841076e-02 -1.89944047e-03  5.13137034e-03  8.04919867e-03 -3.65754386e-03
 -6.95642039e-02 -2.92292449e-03  4.43794510e-03 -2.18758292e-04  9.45990480e-03
 -1.95539910e-02 -1.51092410e-04 -6.06394777e-05 -3.58755873e-03 -2.15874549e-04
 -8.19037635e-02 -2.72977010e-03 -1.38448730e-02 -2.06693405e-03  1.14675428e-03
 -9.59426343e-02 -1.30449324e-02 -6.82492854e-03  1.32437914e-02 -2.34317705e-03
  1.46201383e-02 -2.82179575e-01 -1.22424223e-01  1.69933377e-02 -1.02427642e-02
  9.96385628e-04 -1.43888571e-02 -5.00639605e-03 -2.38089587e-03  1.65886282e-03
 -3.31924689e-04 -9.16619174e-05 -2.70092032e-03  2.29229960e-03  5.24610229e-03
 -5.10259646e-02 -8.45704816e-02 -1.35712212e-01 -8.75114623e-02  1.00545860e-02
 -8.69443728e-02 -6.96280121e-03  1.75304653e-03  3.68971703e-03 -6.07223788e-04
 -1.26704898e-03 -1.78564309e-02  4.46068763e-03 -1.34838532e-02  2.28407236e-01
  1.68571180e-01 -6.84100832e-03 -6.19052407e-02 -6.64670007e-03  3.38900357e-02
 -3.59043969e-02 -2.13433755e-03 -4.40355017e-03 -1.86914873e-04  6.80426153e-04
 -9.56682735e-03 -6.37290608e-03 -3.18758990e-03  1.60136621e-01  7.22952931e-02
 -1.12103132e-01  7.32561234e-02  1.69673172e-03 -3.89279761e-02  9.06787193e-03
 -1.01213976e-03 -1.69175401e-03 -3.03611302e-04  3.91960653e-04 -9.21816679e-03
 -6.27322720e-03 -2.93267835e-04 -8.36734597e-02 -8.38379208e-02 -2.17370160e-02
  6.23885279e-03  1.48675395e-03 -2.15121311e-02  1.70392773e-03  4.17752563e-04
 -9.53224731e-04  4.01989084e-05  3.46897934e-04  1.23109750e-03 -1.93430262e-03
 -1.20486265e-01 -1.74171556e-02  6.12319371e-03 -1.28820200e-02 -8.26832282e-03
 -1.35022600e-01 -1.80569592e-02  6.54051067e-03  1.50696269e-02 -7.34079177e-03
 -1.27642255e-01 -1.49398349e-02  5.60849083e-03 -2.14515982e-03  1.63053998e-02
  7.73544461e-02  3.60520935e-03  3.79657844e-03  9.22529654e-03  1.40253892e-03
  1.17099505e-01  2.25821046e-02  1.48205950e-02 -9.06800361e-04 -9.67627348e-04
 -2.83360936e-02 -1.51987575e-02 -3.94031186e-03  8.12294670e-04 -3.91270459e-04
  5.83063240e-03 -1.79623184e-01 -9.83633708e-02 -7.74680137e-02 -4.55953817e-03
 -2.18991707e-04 -3.86508430e-02 -5.13447341e-03  4.65709903e-03 -5.00374807e-03
 -3.24362439e-04 -1.58600098e-04  7.57066909e-03  5.61537753e-04 -5.04475172e-03
  2.14364536e-01  1.07795432e-01 -1.39778604e-01 -1.42212917e-02  5.44370402e-03
 -4.46582863e-02 -3.78216915e-04 -3.61694576e-04  2.79572864e-03 -1.59863564e-03
 -1.10136294e-03 -5.88194323e-03  4.13636655e-03 -1.36152259e-03  5.66608068e-03
  1.32788854e-02  4.20253747e-03  2.43786092e-01 -1.25885953e-02  3.08167170e-03
  7.37889614e-02 -3.40584834e-03  9.80492577e-04 -4.98923113e-04 -4.53802883e-03
  1.17927385e-03  1.11773291e-02  2.48830446e-03 -2.29819861e-01 -1.50963847e-01
  1.53824734e-01 -2.28276906e-02  3.35388135e-03  4.73189195e-02 -1.88187663e-02
 -2.51739448e-04 -1.17699885e-03  7.64222896e-04 -7.71860762e-04  5.49055693e-03
  1.00159243e-03  1.05492435e-03  1.21135360e-01  1.41020745e-01  5.15025032e-02
 -1.01263517e-02  2.17545908e-03  3.95790666e-02 -6.25959460e-03  1.53676627e-03
  2.52798592e-03 -1.46026436e-04 -8.38109914e-05 -2.28907372e-03  5.08500726e-04
 -1.00438238e-01 -8.49479080e-03  3.00974120e-03 -1.02279546e-02 -5.77459847e-03
 -1.10431842e-01 -1.79982238e-02  2.63351435e-03  1.08508927e-02 -5.48530997e-03
 -1.07238734e-01 -1.97138436e-02  2.93127135e-03 -1.20426311e-03  1.15415577e-02
 -1.58136766e-01 -2.89180799e-02 -7.80871216e-03 -1.38692800e-02 -2.29496566e-03
 -4.37864606e-03 -9.92403775e-04 -3.45729483e-04  4.89816268e-03 -2.22866060e-04
  1.48733033e-01  2.56902854e-02  6.92914733e-03 -1.48828431e-02  2.93441305e-03
  1.59093260e-03 -4.23256000e-02 -3.63114657e-02 -1.11485764e-01  8.40714495e-02
 -1.10276777e-02 -3.01127499e-02  3.75949833e-02 -8.84250743e-03 -5.05748287e-03
  1.49249447e-03 -1.68962397e-03  9.25743824e-03 -6.69930146e-03 -2.79175418e-03
  1.46979119e-01  1.15111840e-01  2.07790408e-03  2.18756188e-01 -3.90737691e-02
  2.77464835e-02  6.21229798e-02 -9.79127080e-03  3.66122592e-03  2.00268725e-03
  1.35243783e-03  1.16004881e-03 -6.61209379e-03  3.11476236e-03 -1.57522636e-01
 -1.20468164e-01 -7.48021606e-03 -1.95548353e-03 -9.76988778e-03 -2.33828134e-02
  2.61299730e-02 -7.92398295e-03 -3.45430423e-03  2.22470156e-04 -8.04053774e-04
 -1.34495024e-02  9.67584087e-04  9.02637394e-04  1.61571917e-01  1.23325584e-01
 -5.84773256e-02 -2.33021588e-01 -2.73484469e-02 -4.58505894e-02 -5.01078284e-02
 -4.57317272e-03  5.15013181e-03  8.69303531e-04 -9.16251819e-05 -9.16663712e-04
  1.50110917e-03  5.19635490e-04 -9.01557525e-02 -1.28056888e-01 -1.46940052e-01
 -1.06780245e-01 -1.03119089e-02 -8.59010400e-02 -5.88412689e-02 -5.95553592e-03
 -3.70079097e-03  1.20779803e-03  3.21182032e-04  9.21268929e-03  6.43914038e-03
 -9.99222631e-02 -3.49242726e-02  1.32577685e-03 -4.00106847e-03 -5.71065077e-03
 -3.58389780e-03 -6.85290226e-03 -2.84598677e-03  2.42994343e-03 -1.79074747e-04
 -6.29996871e-02 -1.81626367e-02 -7.15272487e-04  2.08419996e-03  5.86147976e-03
  2.28347838e-01  6.02708985e-02  1.16216263e-02  1.25666862e-02  2.56783354e-03
 -9.28916260e-02 -3.41276576e-02 -9.06010539e-03 -1.07690945e-03  4.09591664e-04
  2.17943412e-01  6.70212643e-02  1.08570523e-02 -1.22069538e-02  2.35941029e-03
  2.37822294e-03 -4.92524860e-02 -4.29177856e-02 -1.48922753e-01 -9.97024900e-02
  1.55940500e-02 -3.65587069e-02 -4.25381738e-02 -5.42254021e-05 -5.06098804e-03
 -2.61408512e-04  2.53364471e-03  7.21685832e-03  4.29536384e-03  1.01847930e-03
  7.82408391e-02  5.30804468e-02  1.38978401e-01 -1.22086601e-01  1.16587455e-02
  7.69538531e-02 -3.68438428e-02  2.17537290e-03  1.31622889e-03  2.31390905e-03
  5.97665061e-04 -9.59199503e-03 -1.08078654e-02  5.57551418e-03 -6.94077682e-02