[Molden Format]
[Atoms] (AU)
C    1    6           2.0223170577         2.7114483627        -0.2157256505
C    2    6          -0.7884266592         2.3851718971        -0.1079870350
C    3    6          -2.0875357405         0.1891788222         0.0120439465
C    4    6          -0.9225699643        -2.3420775188         0.0707452083
O    5    8           1.3372366107        -2.7625124799         0.2208591369
H    6    1           2.9466364542         1.1813910328        -1.2713538195
H    7    1           2.5272086604         4.5677448929        -1.0086082266
H    8    1           2.8144066480         2.6186807434         1.7139953001
H    9    1          -2.3018194015        -3.9503659198        -0.0295503806
H   10    1          -4.1562167569         0.2440632908         0.0620935130
H   11    1          -1.9040396677         4.1311753745        -0.1031359569
[GTO]
  1 0
 s    8  1.00
     6665.0000000000         0.0006920000
     1000.0000000000         0.0053290000
      228.0000000000         0.0270770000
       64.7100000000         0.1017180000
       21.0600000000         0.2747400000
        7.4950000000         0.4485640000
        2.7970000000         0.2850740000
        0.5215000000         0.0152040000
 s    8  1.00
     6665.0000000000        -0.0001460000
     1000.0000000000        -0.0011540000
      228.0000000000        -0.0057250000
       64.7100000000        -0.0233120000
       21.0600000000        -0.0639550000
        7.4950000000        -0.1499810000
        2.7970000000        -0.1272620000
        0.5215000000         0.5445290000
 s    1  1.00
        0.1596000000         1.0000000000
 p    3  1.00
        9.4390000000         0.0381090000
        2.0020000000         0.2094800000
        0.5456000000         0.5085570000
 p    1  1.00
        0.1517000000         1.0000000000
 d    1  1.00
        0.5500000000         1.0000000000

  2 0
 s    8  1.00
     6665.0000000000         0.0006920000
     1000.0000000000         0.0053290000
      228.0000000000         0.0270770000
       64.7100000000         0.1017180000
       21.0600000000         0.2747400000
        7.4950000000         0.4485640000
        2.7970000000         0.2850740000
        0.5215000000         0.0152040000
 s    8  1.00
     6665.0000000000        -0.0001460000
     1000.0000000000        -0.0011540000
      228.0000000000        -0.0057250000
       64.7100000000        -0.0233120000
       21.0600000000        -0.0639550000
        7.4950000000        -0.1499810000
        2.7970000000        -0.1272620000
        0.5215000000         0.5445290000
 s    1  1.00
        0.1596000000         1.0000000000
 p    3  1.00
        9.4390000000         0.0381090000
        2.0020000000         0.2094800000
        0.5456000000         0.5085570000
 p    1  1.00
        0.1517000000         1.0000000000
 d    1  1.00
        0.5500000000         1.0000000000

  3 0
 s    8  1.00
     6665.0000000000         0.0006920000
     1000.0000000000         0.0053290000
      228.0000000000         0.0270770000
       64.7100000000         0.1017180000
       21.0600000000         0.2747400000
        7.4950000000         0.4485640000
        2.7970000000         0.2850740000
        0.5215000000         0.0152040000
 s    8  1.00
     6665.0000000000        -0.0001460000
     1000.0000000000        -0.0011540000
      228.0000000000        -0.0057250000
       64.7100000000        -0.0233120000
       21.0600000000        -0.0639550000
        7.4950000000        -0.1499810000
        2.7970000000        -0.1272620000
        0.5215000000         0.5445290000
 s    1  1.00
        0.1596000000         1.0000000000
 p    3  1.00
        9.4390000000         0.0381090000
        2.0020000000         0.2094800000
        0.5456000000         0.5085570000
 p    1  1.00
        0.1517000000         1.0000000000
 d    1  1.00
        0.5500000000         1.0000000000

  4 0
 s    8  1.00
     6665.0000000000         0.0006920000
     1000.0000000000         0.0053290000
      228.0000000000         0.0270770000
       64.7100000000         0.1017180000
       21.0600000000         0.2747400000
        7.4950000000         0.4485640000
        2.7970000000         0.2850740000
        0.5215000000         0.0152040000
 s    8  1.00
     6665.0000000000        -0.0001460000
     1000.0000000000        -0.0011540000
      228.0000000000        -0.0057250000
       64.7100000000        -0.0233120000
       21.0600000000        -0.0639550000
        7.4950000000        -0.1499810000
        2.7970000000        -0.1272620000
        0.5215000000         0.5445290000
 s    1  1.00
        0.1596000000         1.0000000000
 p    3  1.00
        9.4390000000         0.0381090000
        2.0020000000         0.2094800000
        0.5456000000         0.5085570000
 p    1  1.00
        0.1517000000         1.0000000000
 d    1  1.00
        0.5500000000         1.0000000000

  5 0
 s    8  1.00
    11720.0000000000         0.0007100000
     1759.0000000000         0.0054700000
      400.8000000000         0.0278370000
      113.7000000000         0.1048000000
       37.0300000000         0.2830620000
       13.2700000000         0.4487190000
        5.0250000000         0.2709520000
        1.0130000000         0.0154580000
 s    8  1.00
    11720.0000000000        -0.0001600000
     1759.0000000000        -0.0012630000
      400.8000000000        -0.0062670000
      113.7000000000        -0.0257160000
       37.0300000000        -0.0709240000
       13.2700000000        -0.1654110000
        5.0250000000        -0.1169550000
        1.0130000000         0.5573680000
 s    1  1.00
        0.3023000000         1.0000000000
 p    3  1.00
       17.7000000000         0.0430180000
        3.8540000000         0.2289130000
        1.0460000000         0.5087280000
 p    1  1.00
        0.2753000000         1.0000000000
 d    1  1.00
        1.1850000000         1.0000000000

  6 0
 s    3  1.00
       13.0100000000         0.0196850000
        1.9620000000         0.1379770000
        0.4446000000         0.4781480000
 s    1  1.00
        0.1220000000         1.0000000000
 p    1  1.00
        0.7270000000         1.0000000000

  7 0
 s    3  1.00
       13.0100000000         0.0196850000
        1.9620000000         0.1379770000
        0.4446000000         0.4781480000
 s    1  1.00
        0.1220000000         1.0000000000
 p    1  1.00
        0.7270000000         1.0000000000

  8 0
 s    3  1.00
       13.0100000000         0.0196850000
        1.9620000000         0.1379770000
        0.4446000000         0.4781480000
 s    1  1.00
        0.1220000000         1.0000000000
 p    1  1.00
        0.7270000000         1.0000000000

  9 0
 s    3  1.00
       13.0100000000         0.0196850000
        1.9620000000         0.1379770000
        0.4446000000         0.4781480000
 s    1  1.00
        0.1220000000         1.0000000000
 p    1  1.00
        0.7270000000         1.0000000000

  10 0
 s    3  1.00
       13.0100000000         0.0196850000
        1.9620000000         0.1379770000
        0.4446000000         0.4781480000
 s    1  1.00
        0.1220000000         1.0000000000
 p    1  1.00
        0.7270000000         1.0000000000

  11 0
 s    3  1.00
       13.0100000000         0.0196850000
        1.9620000000         0.1379770000
        0.4446000000         0.4781480000
 s    1  1.00
        0.1220000000         1.0000000000
 p    1  1.00
        0.7270000000         1.0000000000

[5D7F]
[9G]

[MO]
 Sym= A
 Ene=        -1.9134753145e+01
 Spin= Alpha
 Occup=         2.0000000000e+00
  1        -4.3911168785e-05
  2        -9.8967129382e-05
  3        -2.9158607272e-05
  4         6.5045279771e-05
  5         2.3060777017e-05
  6         1.4976286565e-05
  7         1.6113278794e-09
  8         8.0072933395e-05
  9         1.8661860433e-04
 10         5.1508090202e-05
 11         2.6892975697e-05
 12         5.9369496323e-05
 13         5.8440019014e-05
 14        -1.0516339729e-04
 15        -2.2937473062e-04
 16        -4.0738336481e-04
 17         5.8756690180e-03
 18        -1.9213740803e-05
 19        -1.0139079186e-05
 20        -2.1598782209e-05
 21        -1.1061647419e-03
 22        -2.5983899394e-03
 23         1.9176497689e-04
 24        -4.3552523264e-05
 25        -9.3396728514e-06
 26         5.1060102875e-07
 27        -4.3742918801e-05
 28        -3.7940891907e-05
 29         2.2444490956e-04
 30         3.4484855745e-04
 31        -4.6077250822e-03
 32         1.9058045949e-05
 33         2.9248108431e-04
 34        -1.7159146974e-05
 35        -4.8189894922e-03
 36        -3.6156753755e-03
 37         4.7326326738e-05
 38         1.4494658109e-04
 39        -5.3395142567e-06
 40         5.7189163759e-05
 41        -3.2314706132e-04
 42         5.1301022748e-04
 43         4.4148038774e-04
 44         5.7518857122e-04
 45         5.5019447681e-03
 46        -1.1296246560e-04
 47        -1.7040381290e-04
 48        -7.1917321327e-06
 49         6.6993421504e-03
 50         6.6116986680e-04
 51         3.6290349901e-04
 52        -4.1492709924e-05
 53        -5.4882677361e-05
 54         2.7494023435e-05
 55        -1.1514325192e-03
 56         5.2770493368e-04
 57         1.0041727596e+00
 58         9.4761433182e-03
 59        -1.5171991931e-02
 60        -1.8308586083e-03
 61         3.6304285505e-04
 62        -1.3812589417e-04
 63         3.5006198693e-03
 64        -8.6719110965e-04
 65         2.5484094739e-04
 66        -2.1334653620e-05
 67         8.5072633404e-06
 68        -3.3933202907e-08
 69         6.6800989771e-05
 70         7.9981285421e-06
 71        -8.1763119300e-05
 72        -2.7384226832e-05
 73         5.5259885122e-05
 74         4.0418968040e-05
 75        -5.8778180105e-06
 76         1.0593209670e-04
 77         2.7878853950e-04
 78        -6.5957950147e-05
 79        -7.9853088069e-05
 80         2.7607150441e-05
 81        -5.5366131297e-05
 82        -2.3656425435e-04
 83         5.6049410284e-05
 84         3.6175077257e-05
 85         4.3186108654e-05
 86        -1.2171575933e-04
 87         9.7209134226e-04
 88        -7.6209908492e-04
 89         1.2207999795e-04
 90        -4.2529148406e-05
 91        -2.6905664621e-04
 92        -1.3630978733e-03
 93         1.8915464119e-04
 94         2.6124111890e-04
 95         1.1042058793e-05
 96        -1.7325372513e-04
 97         2.9793195818e-04
 98         5.7926926540e-05
 99         8.9129165301e-05
100        -1.1968348390e-05
 Sym= A
 Ene=        -1.0272841003e+01
 Spin= Alpha
 Occup=         2.0000000000e+00
  1        -3.3053858901e-04
  2        -4.2522000387e-04
  3         8.3239436851e-04
  4         2.9680191541e-04
  5         5.5488254322e-05
  6        -1.0243076224e-05
  7        -5.7789569435e-04
  8         2.9177087754e-04
  9         1.1365372797e-04
 10         1.7939451669e-05
 11        -1.2548631424e-05
 12         3.3922588786e-05
 13        -1.2631424253e-04
 14        -7.8998385613e-05
 15        -4.2672503029e-04
 16        -6.3066333587e-04
 17         7.0077611853e-03
 18        -2.6778158129e-04
 19        -2.7187356000e-05
 20         1.2123049522e-05
 21        -2.3914133492e-03
 22        -4.1253622703e-03
 23         2.3258941957e-04
 24        -4.4322472973e-04
 25        -7.4670821419e-05
 26        -4.7182236421e-05
 27         3.3743879320e-04
 28         3.8930731332e-04
 29         1.6323787447e-03
 30        -2.3503234696e-04
 31        -2.4342571433e-03
 32        -3.3937676726e-04
 33         7.4816004453e-04
 34        -1.2699297625e-05
 35        -2.8111663714e-03
 36        -6.2874441581e-03
 37         2.2532145704e-04
 38         1.0575953077e-03
 39        -4.6955715856e-05
 40         6.4458051745e-05
 41         1.1764935982e-03
 42         8.0113523803e-04
 43         1.0059252642e+00
 44         1.5249343522e-02
 45        -1.0820747130e-02
 46         7.2682232680e-04
 47        -4.8717891985e-04
 48         5.4023617035e-05
 49         5.4671632996e-03
 50        -2.1084377274e-03
 51         2.5273923826e-04
 52        -1.6416646058e-03
 53         2.6517617444e-04
 54         9.5330160973e-06
 55         8.2181888990e-04
 56         3.0312308090e-05
 57         3.6552583443e-04
 58         9.1281368282e-04
 59        -5.9618739568e-03
 60         7.3647752626e-04
 61        -2.2260128795e-04
 62         3.9539478820e-05
 63         3.3838486242e-03
 64        -2.3913218715e-04
 65         2.5873094161e-04
 66         5.5804653584e-04
 67        -1.0995421955e-04
 68         1.6308179727e-05
 69        -7.0457337685e-04
 70         2.7079553802e-04
 71        -7.4801591847e-05
 72         7.0491401425e-05
 73         7.8286091526e-05
 74         3.1579747808e-05
 75        -1.5320713505e-05
 76        -4.2186944126e-05
 77         2.6449143947e-04
 78        -5.9129952883e-05
 79        -4.6093458806e-05
 80        -2.7487495182e-06
 81        -4.8980283918e-05
 82        -6.1791566882e-05
 83         8.3127129441e-05
 84         2.0591470182e-05
 85        -2.3925577142e-05
 86        -1.6407665261e-03
 87         2.4950962297e-03
 88        -1.4614245073e-03
 89        -1.4433485513e-03
 90        -9.5554528735e-05
 91        -4.8168075941e-04
 92        -4.6496854344e-04
 93         6.7808428666e-05
 94         3.2802779954e-04
 95        -1.6829721927e-05
 96        -3.2715622477e-05
 97         6.5642005232e-04
 98         2.4019405095e-04
 99         1.0812612162e-04
100        -1.1741148384e-05
 Sym= A
 Ene=        -1.0222797550e+01
 Spin= Alpha
 Occup=         2.0000000000e+00
  1         3.3226818679e-03
  2        -4.5820849160e-04
  3         4.3609038717e-03
  4         7.4704165168e-04
  5         9.5370526556e-05
  6         5.7877961435e-05
  7        -2.3106965312e-03
  8        -1.1040132127e-03
  9        -4.9286681694e-04
 10         7.9528992618e-04
 11         1.2492069796e-04
 12        -6.6772886775e-06
 13        -1.0409294147e-03
 14        -3.9153761835e-06
 15         1.0062840882e+00
 16         1.6063692901e-02
 17        -1.9757394014e-02
 18        -5.4831862884e-04
 19         2.4614176441e-04
 20         3.7614627610e-05
 21        -2.1586817720e-03
 22         3.5594876424e-03
 23         5.5068737374e-05
 24        -1.0918811822e-03
 25        -3.3436507884e-06
 26        -3.7930015629e-05
 27        -5.1808477697e-04
 28        -2.2701276494e-04
 29         1.2916813760e-02
 30        -1.2948559138e-03
 31         4.6415510878e-03
 32        -7.7923229576e-04
 33        -1.1008080008e-03
 34         7.7306370944e-05
 35         2.6596142917e-03
 36         2.3101629197e-03
 37        -2.2173067454e-04
 38         8.9012908717e-04
 39         7.2908530373e-05
 40         1.1449346671e-04
 41         5.7565558945e-04
 42        -9.7771180006e-04
 43        -2.6032299271e-04
 44        -5.0942205763e-04
 45         1.0309337896e-03
 46        -4.1153186849e-05
 47        -2.0692951515e-04
 48         1.1298262061e-05
 49        -1.7067558537e-04
 50         1.0359049843e-03
 51         1.8891507362e-05
 52        -3.4255828971e-04
 53        -7.7545891341e-06
 54        -9.2525870851e-06
 55         1.9423451651e-04
 56        -1.0192334520e-04
 57        -3.3111961085e-05
 58        -7.2946130125e-05
 59        -2.5061473941e-04
 60         1.2514046503e-04
 61        -2.7190852137e-06
 62         1.7602904326e-05
 63        -4.3434446455e-05
 64        -2.5739746676e-04
 65        -5.6212644522e-07
 66         1.1250059423e-05
 67        -1.4409241307e-05
 68         4.1919354098e-06
 69        -1.2127026511e-05
 70         1.3654863767e-05
 71        -4.3148572542e-04
 72         1.2779897997e-04
 73        -2.5997383981e-05
 74         3.6271837158e-05
 75         7.7439689460e-05
 76        -3.5266878448e-04
 77         2.9297785496e-04
 78         7.3443696320e-05
 79         8.2966861925e-05
 80         6.4572616535e-05
 81        -4.7580564140e-04
 82         1.2006045305e-03
 83        -1.2880914376e-04
 84         1.7557460290e-05
 85         1.7712258072e-05
 86        -2.0550826481e-05
 87         4.1684973122e-04
 88         5.4549466418e-05
 89        -5.2632813710e-05
 90        -7.3588444522e-06
 91         9.3537525409e-05
 92         9.1998538752e-04
 93         1.2034942377e-04
 94        -2.3068916899e-04
 95         1.5231852868e-05
 96        -2.3418223425e-03
 97         1.2138242157e-03
 98        -1.2086137018e-03
 99         1.7773057594e-03
100         1.2449829704e-05
 Sym= A
 Ene=        -1.0197489598e+01
 Spin= Alpha
 Occup=         2.0000000000e+00
  1         1.6468771493e-03
  2         3.9517119143e-04
  3         9.1745909862e-06
  4        -8.3779688827e-05
  5        -1.1206256582e-04
  6         7.9513697720e-05
  7         7.0841270102e-04
  8        -1.9159537829e-04
  9        -1.2292110413e-04
 10         3.1402039078e-04
 11         7.5950043228e-05
 12        -2.3510623923e-05
 13        -8.5657103806e-05
 14         2.2197640070e-04
 15         1.4437095412e-02
 16         1.7933553001e-03
 17        -6.8098001789e-03
 18        -6.0568711772e-04
 19        -1.2069407670e-03
 20         6.6174850872e-05
 21         5.7875384729e-04
 22         4.1929185595e-03
 23        -1.3602180361e-04
 24        -9.3059054149e-04
 25        -4.5778776089e-05
 26        -9.7106673758e-05
 27        -5.0985517749e-04
 28         1.0327510441e-03
 29        -1.0064815057e+00
 30        -1.6540352951e-02
 31         2.1563155114e-02
 32         3.2563859710e-04
 33        -3.0199656121e-04
 34         3.2301110429e-05
 35         5.5796971695e-03
 36         3.5234451690e-04
 37        -1.7688898523e-04
 38         1.0843128047e-03
 39         7.9632936068e-05
 40         6.7835593132e-05
 41        -3.7567096789e-04
 42        -3.7946229363e-04
 43         1.9540749321e-03
 44         8.1289535508e-04
 45        -5.7958418676e-03
 46        -2.5421251681e-04
 47         7.4877740894e-04
 48        -2.2438284620e-07
 49        -6.8401544580e-04
 50        -3.5100001063e-03
 51         4.8157221969e-05
 52        -6.9104807743e-04
 53        -3.1943140330e-05
 54        -6.4676563695e-05
 55        -6.4088198280e-04
 56        -1.1881589720e-03
 57        -4.4943160173e-05
 58        -7.7865477472e-05
 59         9.3187494139e-04
 60        -2.7599647944e-05
 61         7.5161331746e-05
 62         2.2101501792e-05
 63         9.5342914994e-05
 64         5.9734651867e-04
 65        -4.7351626896e-05
 66         1.3215068561e-04
 67        -3.3187664801e-05
 68        -1.6504673878e-05
 69        -7.3051302696e-05
 70        -2.1775438732e-04
 71         1.6550610275e-04
 72        -3.9047900475e-04
 73        -2.5721950281e-05
 74        -4.0825789526e-05
 75         5.7092168297e-05
 76        -4.9674403460e-05
 77        -2.0590546382e-04
 78        -3.5254335042e-05
 79         6.9383773639e-05
 80         1.3886799947e-05
 81        -5.1545809073e-05
 82        -1.2589084351e-04
 83        -4.9983232476e-05
 84        -6.0851911809e-05
 85         1.3915601655e-04
 86         2.4656219995e-04
 87        -1.0042454125e-03
 88        -7.3731225334e-05
 89         2.0481767868e-04
 90        -2.2776603276e-05
 91         2.4437247851e-03
 92        -7.7522331794e-04
 93         2.1367626552e-03
 94        -1.7110246430e-04
 95        -4.4435974036e-05
 96        -9.5737962443e-05
 97        -1.0155990710e-03
 98        -2.6024873784e-04
 99         2.6414642140e-05
100         1.2854422647e-05
 Sym= A
 Ene=        -1.0192412383e+01
 Spin= Alpha
 Occup=         2.0000000000e+00
  1         1.0069820579e+00
  2         1.7418507263e-02
  3        -1.9450469253e-02
  4         4.5199459799e-04
  5         1.3043790530e-04
  6         1.4534093168e-04
  7         2.9399490784e-03
  8         1.9445912951e-04
  9        -5.5316436579e-04
 10         2.2179039522e-04
 11         3.5096462058e-05
 12        -5.5725188337e-05
 13        -5.8857893538e-04
 14        -1.4591994930e-04
 15        -3.5710195049e-03
 16        -3.0435263579e-04
 17         1.8547098223e-03
 18        -4.9622242707e-04
 19         5.8459252806e-05
 20         2.4449473291e-05
 21         4.5109685869e-03
 22         2.3367028153e-03
 23        -1.6472676300e-04
 24         6.1319336273e-04
 25         1.2621726909e-04
 26         2.2325069614e-05
 27        -1.3391035363e-03
 28        -5.7550396832e-04
 29         1.0822568334e-03
 30        -5.3418762105e-04
 31         3.4563491781e-03
 32        -1.9228124606e-04
 33         9.0006195682e-05
 34         1.1008463010e-05
 35         9.0926654732e-04
 36         2.6561983354e-03
 37        -1.6516190268e-04
 38        -3.4470446512e-04
 39         7.7610684931e-06
 40        -2.4635872332e-05
 41        -5.6186364826e-04
 42        -2.0531107655e-04
 43        -1.0308137269e-04
 44        -4.6050168408e-04
 45         6.5739415606e-04
 46        -3.2998928510e-05
 47        -2.7364920997e-04
 48        -8.6553901914e-06
 49        -1.1189851769e-04
 50         5.2867895943e-04
 51         3.9977038194e-05
 52        -1.5519958130e-05
 53        -2.2431340433e-05
 54         3.6882241790e-06
 55         4.1585420007e-05
 56         3.6342426874e-05
 57        -7.2713896581e-05
 58        -1.4511691608e-04
 59         1.6319409659e-04
 60         8.6179997468e-06
 61        -1.1588262143e-04
 62        -1.0176314806e-05
 63        -1.0887355273e-04
 64         2.2472508039e-04
 65         4.0900237483e-05
 66        -4.3399883264e-05
 67         1.5314412808e-06
 68         1.6159834243e-06
 69         1.4560962554e-06
 70        -7.1423522944e-07
 71        -1.2287580083e-03
 72         1.9150057168e-03
 73         6.9923172754e-04
 74        -1.4446343139e-03
 75        -1.0028249349e-03
 76        -1.3407705109e-03
 77         1.9232012300e-03
 78         4.3645397865e-04
 79         1.8035520595e-03
 80        -7.5555420118e-04
 81        -1.1013167944e-03
 82         2.3457667244e-03
 83         5.5784530268e-04
 84        -9.6682096297e-05
 85         1.8173779008e-03
 86         1.6555955394e-05
 87         3.8764498638e-04
 88         6.4096655674e-06
 89         6.9369945872e-05
 90        -7.5792231909e-06
 91         5.4841743189e-05
 92         3.6419646510e-04
 93         9.6482408019e-05
 94        -2.0534385453e-04
 95         1.0137817062e-05
 96        -4.3486709290e-04
 97         2.4414632210e-04
 98        -3.6784350769e-04
 99        -1.1450299882e-04
100         2.0154056539e-05
 Sym= A
 Ene=        -1.0391856269e+00
 Spin= Alpha
 Occup=         2.0000000000e+00
  1        -4.8297663942e-04
  2         6.3590578781e-03
  3         5.6870730832e-03
  4        -3.0534296805e-03
  5        -3.0528752276e-03
  6        -2.9700014151e-05
  7        -3.0464891360e-03
  8        -2.5836369271e-03
  9         9.9476217079e-04
 10        -6.1452424781e-04
 11        -1.9900944062e-04
 12        -2.2398307238e-04
 13         1.8029305544e-04
 14         9.1978580250e-04
 15         5.9569868233e-04
 16         1.6535088622e-02
 17        -1.3222945958e-02
 18        -1.6263384915e-04
 19        -1.0550039816e-02
 20         5.6408194387e-04
 21        -2.1764901107e-03
 22         1.0051630344e-02
 23        -5.8363462534e-04
 24        -4.5003397206e-04
 25        -1.1687805126e-04
 26        -2.5963212689e-04
 27        -1.6773608812e-03
 28         7.3252132649e-04
 29        -3.6201268411e-03
 30         3.6800479044e-02
 31         3.2790570466e-02
 32         2.0857792308e-02
 33        -2.0610737302e-02
 34         9.2913383998e-04
 35         2.0174294255e-02
 36         1.4172785570e-03
 37        -1.5028678936e-04
 38        -3.7946830680e-03
 39         2.3792269811e-04
 40        -5.8367487081e-04
 41        -1.0721122459e-03
 42        -9.0457658382e-03
 43        -1.4602032895e-02
 44         2.2497778009e-01
 45         9.4430759962e-02
 46         1.8445862477e-01
 47        -2.5791782347e-02
 48         1.2192313415e-02
 49         1.1989881107e-02
 50        -3.1156638144e-03
 51         1.0851393559e-03
 52        -1.3459701907e-02
 53         3.4874845611e-03
 54        -1.0426748942e-03
 55         3.1017105950e-02
 56        -1.4107127217e-02
 57        -9.1404992792e-03
 58         4.0218849079e-01
 59         3.6007673669e-01
 60        -1.5511896651e-01
 61         3.1953227709e-02
 62        -1.0717301607e-02
 63        -3.1605375877e-02
 64         7.2390628395e-03
 65        -2.5917463516e-03
 66        -5.2311892633e-03
 67         1.3946888901e-03
 68        -5.0334292220e-04
 69         1.2095848901e-02
 70        -5.1712914064e-03
 71         4.9238759768e-03
 72         2.9101618278e-03
 73        -6.3947062665e-04
 74        -4.8725468695e-04
 75         5.8725710666e-04
 76         9.7582608203e-04
 77         5.5517937774e-05
 78         2.7040340430e-05
 79         1.3174743473e-05
 80        -4.0849962951e-05
 81         1.8212093400e-03
 82         8.4055591878e-04
 83        -2.6636032498e-04
 84        -1.8989978884e-04
 85        -4.3888490434e-04
 86         3.9339028991e-02
 87        -3.6553170652e-03
 88         1.0177473843e-02
 89         5.8723484945e-03
 90         6.6945659716e-04
 91         7.1835362586e-03
 92         6.0343387942e-03
 93         9.5186413587e-04
 94        -1.9547935295e-03
 95        -1.5018070036e-05
 96         1.7940729916e-03
 97        -3.2878200522e-03
 98        -2.2884450035e-04
 99        -8.3332006195e-04
100         6.7948348269e-05
 Sym= A
 Ene=        -8.0893676468e-01
 Spin= Alpha
 Occup=         2.0000000000e+00
  1         1.0994403334e-02
  2        -1.8153559430e-01
  3        -7.5070155292e-02
  4         6.5549282753e-02
  5         1.2976557269e-02
  6        -4.8744729391e-03
  7         3.0325450913e-03
  8        -8.5300728923e-03
  9         1.0671564640e-03
 10         5.6190921562e-03
 11         8.2826095533e-04
 12         3.0768445947e-05
 13        -9.7904805994e-03
 14        -3.6075477225e-03
 15         1.9774942986e-02
 16        -2.9145680096e-01
 17        -2.0138328927e-01
 18        -7.6887018854e-04
 19         6.5558758584e-02
 20        -2.6498411910e-03
 21        -3.2590816691e-02
 22         2.1024343640e-02
 23         8.2889248771e-05
 24         9.9752328198e-03
 25         8.3727363573e-04
 26         8.5832865151e-04
 27        -2.7282330280e-03
 28        -1.1345049955e-02
 29         1.7027433610e-02
 30        -2.5398409058e-01
 31        -1.4191173987e-01
 32        -5.8078116178e-02
 33        -5.7360811112e-02
 34         4.5415224359e-03
 35        -3.0184329315e-03
 36        -2.4031629754e-02
 37         1.1753346294e-03
 38         6.9304203870e-03
 39         6.4405953833e-04
 40         8.7833778075e-04
 41         8.7356830903e-03
 42        -9.1528301162e-03
 43         2.4471273650e-03
 44        -6.3933147735e-02
 45        -5.1604245073e-02
 46         6.9081832377e-02
 47        -8.0367930557e-02
 48         5.2855300419e-03
 49         2.5118763039e-02
 50        -2.2387278049e-02
 51         1.3964430224e-03
 52         2.6361567993e-03
 53         6.5943346029e-04
 54         3.1810358614e-04
 55         1.3558475254e-02
 56         2.6581727020e-03
 57        -3.3275246898e-04
 58         7.5181189128e-02
 59         7.1559424549e-02
 60        -1.1377396911e-02
 61        -1.6264046080e-02
 62        -2.2157757448e-04
 63         1.6664440915e-03
 64        -6.7483119373e-03
 65         5.7085333569e-04
 66         1.8359338889e-04
 67         6.3944936240e-05
 68         1.7802692438e-04
 69         1.6069223551e-03
 70         1.5907611070e-03
 71        -6.7033728977e-02
 72        -3.3707136672e-03
 73         5.1107406891e-03
 74        -7.2450145098e-03
 75        -5.2978335525e-03
 76        -6.2999799514e-02
 77        -1.4888538055e-03
 78         4.0762835974e-03
 79         8.7716640969e-03
 80        -3.7069528749e-03
 81        -6.7910478859e-02
 82        -3.6360363692e-03
 83         4.7193516139e-03
 84         2.7902457422e-04
 85         9.0456471629e-03
 86        -1.8049230634e-02
 87         9.9600734719e-04
 88         2.3576410429e-05
 89        -3.3805693821e-03
 90         3.6041284435e-05
 91        -8.4359251322e-02
 92        -2.5002920984e-03
 93        -1.4374526125e-02
 94        -1.4267443713e-03
 95         4.6385601776e-04
 96        -1.0237323312e-01
 97        -1.2939727195e-02
 98        -7.1332768878e-03
 99         1.4287266813e-02
100        -1.4022411462e-05
 Sym= A
 Ene=        -7.1803995845e-01
 Spin= Alpha
 Occup=         2.0000000000e+00
  1         1.3999371736e-02
  2        -2.8692044899e-01
  3        -1.1935775805e-01
  4         1.9126048649e-02
  5        -1.0722664554e-02
  6        -5.0096676857e-03
  7        -1.7478875849e-02
  8        -8.5182876807e-03
  9         4.9917698388e-04
 10         1.4499346074e-03
 11         1.8538016049e-04
 12        -1.8015654553e-04
 13        -3.0867823786e-03
 14         2.2090343631e-03
 15         5.2735884302e-03
 16        -4.8081125454e-02
 17        -8.4325607981e-02
 18        -1.3881122390e-01
 19        -9.4967481700e-02
 20         6.8955648348e-03
 21        -9.3838329929e-02
 22        -9.1079655574e-03
 23         2.8688739279e-03
 24         3.8433320355e-03
 25         5.2999248307e-04
 26        -3.8694809870e-04
 27        -1.7105299037e-02
 28         3.0934027523e-03
 29        -1.3964598864e-02
 30         2.2865517923e-01
 31         1.6690947596e-01
 32        -5.7050190897e-03
 33        -5.4674854122e-02
 34         1.0394272317e-03
 35         3.6424849694e-02
 36        -4.0775160996e-02
 37         1.5790181130e-04
 38        -4.8323308218e-03
 39         1.4680498422e-04
 40        -3.3774276343e-04
 41        -1.0026746916e-02
 42        -4.9088708388e-03
 43        -3.0563404000e-03
 44         1.5176381760e-01
 45         6.1449417772e-02
 46        -1.0695685005e-01
 47         7.9264013564e-02
 48        -5.4552375798e-03
 49        -3.7420786986e-02
 50         7.8141204061e-03
 51        -1.7941577794e-03