Generated by Psi4
        SP                           RHF                       CC-PVDZ
Number of atoms                            I               11
Charge                                     I                0
Multiplicity                               I                1
Number of electrons                        I               38
Number of alpha electrons                  I               19
Number of beta electrons                   I               19
Number of basis functions                  I              100
Number of independent functions            I              100
Atomic numbers                             I   N=          11
           6           6           6           6           8           1
           1           1           1           1           1
Nuclear charges                            R   N=          11
  6.00000000e+00  6.00000000e+00  6.00000000e+00  6.00000000e+00  8.00000000e+00
  1.00000000e+00  1.00000000e+00  1.00000000e+00  1.00000000e+00  1.00000000e+00
  1.00000000e+00
Current cartesian coordinates              R   N=          33
  1.64429316e+00  3.00410494e+00  3.03203065e-01 -7.89943210e-01  2.41118818e+00
 -1.66056277e-01 -2.04598095e+00 -1.42772341e-02  2.91698375e-01 -8.90391338e-01
 -2.28083693e+00  1.02142990e-01  1.57915908e+00 -2.67455455e+00 -4.10411169e-01
  2.35602267e+00 -1.03060492e+00 -6.93603391e-01  2.43142356e+00  4.82608061e+00
 -2.70286389e-01  2.90250335e+00  1.74198052e+00  1.35706474e+00 -1.91915389e+00
 -4.07316195e+00  2.60643636e-01 -4.07901068e+00 -1.88845375e-02  6.28999106e-01
 -1.96390210e+00  3.85027568e+00 -1.09167958e+00
Integer atomic weights                     I   N=          11
          12          12          12          12          16           1
           1           1           1           1           1
Real atomic weights                        R   N=          11
  1.20000000e+01  1.20000000e+01  1.20000000e+01  1.20000000e+01  1.59949146e+01
  1.00782503e+00  1.00782503e+00  1.00782503e+00  1.00782503e+00  1.00782503e+00
  1.00782503e+00
Number of primitive shells                 I              140
Number of contracted shells                I               48
Pure/Cartesian d shells                    I                0
Pure/Cartesian f shells                    I                0
Highest angular momentum                   I                2
Largest degree of contraction              I                8
Shell types                                I   N=          48
           0           0           0           1           1          -2
           0           0           0           1           1          -2
           0           0           0           1           1          -2
           0           0           0           1           1          -2
           0           0           0           1           1          -2
           0           0           1           0           0           1
           0           0           1           0           0           1
           0           0           1           0           0           1
Number of primitives per shell             I   N=          48
           8           8           1           3           1           1
           8           8           1           3           1           1
           8           8           1           3           1           1
           8           8           1           3           1           1
           8           8           1           3           1           1
           3           1           1           3           1           1
           3           1           1           3           1           1
           3           1           1           3           1           1
Shell to atom map                          I   N=          48
           1           1           1           1           1           1
           2           2           2           2           2           2
           3           3           3           3           3           3
           4           4           4           4           4           4
           5           5           5           5           5           5
           6           6           6           7           7           7
           8           8           8           9           9           9
          10          10          10          11          11          11
Primitive exponents                        R   N=         140
  6.66500000e+03  1.00000000e+03  2.28000000e+02  6.47100000e+01  2.10600000e+01
  7.49500000e+00  2.79700000e+00  5.21500000e-01  6.66500000e+03  1.00000000e+03
  2.28000000e+02  6.47100000e+01  2.10600000e+01  7.49500000e+00  2.79700000e+00
  5.21500000e-01  1.59600000e-01  9.43900000e+00  2.00200000e+00  5.45600000e-01
  1.51700000e-01  5.50000000e-01  6.66500000e+03  1.00000000e+03  2.28000000e+02
  6.47100000e+01  2.10600000e+01  7.49500000e+00  2.79700000e+00  5.21500000e-01
  6.66500000e+03  1.00000000e+03  2.28000000e+02  6.47100000e+01  2.10600000e+01
  7.49500000e+00  2.79700000e+00  5.21500000e-01  1.59600000e-01  9.43900000e+00
  2.00200000e+00  5.45600000e-01  1.51700000e-01  5.50000000e-01  6.66500000e+03
  1.00000000e+03  2.28000000e+02  6.47100000e+01  2.10600000e+01  7.49500000e+00
  2.79700000e+00  5.21500000e-01  6.66500000e+03  1.00000000e+03  2.28000000e+02
  6.47100000e+01  2.10600000e+01  7.49500000e+00  2.79700000e+00  5.21500000e-01
  1.59600000e-01  9.43900000e+00  2.00200000e+00  5.45600000e-01  1.51700000e-01
  5.50000000e-01  6.66500000e+03  1.00000000e+03  2.28000000e+02  6.47100000e+01
  2.10600000e+01  7.49500000e+00  2.79700000e+00  5.21500000e-01  6.66500000e+03
  1.00000000e+03  2.28000000e+02  6.47100000e+01  2.10600000e+01  7.49500000e+00
  2.79700000e+00  5.21500000e-01  1.59600000e-01  9.43900000e+00  2.00200000e+00
  5.45600000e-01  1.51700000e-01  5.50000000e-01  1.17200000e+04  1.75900000e+03
  4.00800000e+02  1.13700000e+02  3.70300000e+01  1.32700000e+01  5.02500000e+00
  1.01300000e+00  1.17200000e+04  1.75900000e+03  4.00800000e+02  1.13700000e+02
  3.70300000e+01  1.32700000e+01  5.02500000e+00  1.01300000e+00  3.02300000e-01
  1.77000000e+01  3.85400000e+00  1.04600000e+00  2.75300000e-01  1.18500000e+00
  1.30100000e+01  1.96200000e+00  4.44600000e-01  1.22000000e-01  7.27000000e-01
  1.30100000e+01  1.96200000e+00  4.44600000e-01  1.22000000e-01  7.27000000e-01
  1.30100000e+01  1.96200000e+00  4.44600000e-01  1.22000000e-01  7.27000000e-01
  1.30100000e+01  1.96200000e+00  4.44600000e-01  1.22000000e-01  7.27000000e-01
  1.30100000e+01  1.96200000e+00  4.44600000e-01  1.22000000e-01  7.27000000e-01
  1.30100000e+01  1.96200000e+00  4.44600000e-01  1.22000000e-01  7.27000000e-01
Contraction coefficients                   R   N=         140
  6.91583963e-04  5.32579615e-03  2.70607210e-02  1.01656846e-01  2.74574824e-01
  4.48294319e-01  2.84902611e-01  1.51948592e-02 -2.93269653e-04 -2.31803547e-03
 -1.14997860e-02 -4.68267270e-02 -1.28466169e-01 -3.01266272e-01 -2.55630702e-01
  1.09379336e+00  1.00000000e+00  5.69792516e-02  3.13207212e-01  7.60376742e-01
  1.00000000e+00  1.00000000e+00  6.91583963e-04  5.32579615e-03  2.70607210e-02
  1.01656846e-01  2.74574824e-01  4.48294319e-01  2.84902611e-01  1.51948592e-02
 -2.93269653e-04 -2.31803547e-03 -1.14997860e-02 -4.68267270e-02 -1.28466169e-01
 -3.01266272e-01 -2.55630702e-01  1.09379336e+00  1.00000000e+00  5.69792516e-02
  3.13207212e-01  7.60376742e-01  1.00000000e+00  1.00000000e+00  6.91583963e-04
  5.32579615e-03  2.70607210e-02  1.01656846e-01  2.74574824e-01  4.48294319e-01
  2.84902611e-01  1.51948592e-02 -2.93269653e-04 -2.31803547e-03 -1.14997860e-02
 -4.68267270e-02 -1.28466169e-01 -3.01266272e-01 -2.55630702e-01  1.09379336e+00
  1.00000000e+00  5.69792516e-02  3.13207212e-01  7.60376742e-01  1.00000000e+00
  1.00000000e+00  6.91583963e-04  5.32579615e-03  2.70607210e-02  1.01656846e-01
  2.74574824e-01  4.48294319e-01  2.84902611e-01  1.51948592e-02 -2.93269653e-04
 -2.31803547e-03 -1.14997860e-02 -4.68267270e-02 -1.28466169e-01 -3.01266272e-01
 -2.55630702e-01  1.09379336e+00  1.00000000e+00  5.69792516e-02  3.13207212e-01
  7.60376742e-01  1.00000000e+00  1.00000000e+00  7.09645947e-04  5.46727229e-03
  2.78231186e-02  1.04747740e-01  2.82920846e-01  4.48495239e-01  2.70816885e-01
  1.54502916e-02 -3.14443412e-04 -2.48213768e-03 -1.23163554e-02 -5.05389173e-02
 -1.39384903e-01 -3.25077495e-01 -2.29848308e-01  1.09537935e+00  1.00000000e+00
  6.26791663e-02  3.33536566e-01  7.41239642e-01  1.00000000e+00  1.00000000e+00
  3.34987264e-02  2.34800801e-01  8.13682958e-01  1.00000000e+00  1.00000000e+00
  3.34987264e-02  2.34800801e-01  8.13682958e-01  1.00000000e+00  1.00000000e+00
  3.34987264e-02  2.34800801e-01  8.13682958e-01  1.00000000e+00  1.00000000e+00
  3.34987264e-02  2.34800801e-01  8.13682958e-01  1.00000000e+00  1.00000000e+00
  3.34987264e-02  2.34800801e-01  8.13682958e-01  1.00000000e+00  1.00000000e+00
  3.34987264e-02  2.34800801e-01  8.13682958e-01  1.00000000e+00  1.00000000e+00
Coordinates of each shell                  R   N=         144
  1.64429316e+00  3.00410494e+00  3.03203065e-01  1.64429316e+00  3.00410494e+00
  3.03203065e-01  1.64429316e+00  3.00410494e+00  3.03203065e-01  1.64429316e+00
  3.00410494e+00  3.03203065e-01  1.64429316e+00  3.00410494e+00  3.03203065e-01
  1.64429316e+00  3.00410494e+00  3.03203065e-01 -7.89943210e-01  2.41118818e+00
 -1.66056277e-01 -7.89943210e-01  2.41118818e+00 -1.66056277e-01 -7.89943210e-01
  2.41118818e+00 -1.66056277e-01 -7.89943210e-01  2.41118818e+00 -1.66056277e-01
 -7.89943210e-01  2.41118818e+00 -1.66056277e-01 -7.89943210e-01  2.41118818e+00
 -1.66056277e-01 -2.04598095e+00 -1.42772341e-02  2.91698375e-01 -2.04598095e+00
 -1.42772341e-02  2.91698375e-01 -2.04598095e+00 -1.42772341e-02  2.91698375e-01
 -2.04598095e+00 -1.42772341e-02  2.91698375e-01 -2.04598095e+00 -1.42772341e-02
  2.91698375e-01 -2.04598095e+00 -1.42772341e-02  2.91698375e-01 -8.90391338e-01
 -2.28083693e+00  1.02142990e-01 -8.90391338e-01 -2.28083693e+00  1.02142990e-01
 -8.90391338e-01 -2.28083693e+00  1.02142990e-01 -8.90391338e-01 -2.28083693e+00
  1.02142990e-01 -8.90391338e-01 -2.28083693e+00  1.02142990e-01 -8.90391338e-01
 -2.28083693e+00  1.02142990e-01  1.57915908e+00 -2.67455455e+00 -4.10411169e-01
  1.57915908e+00 -2.67455455e+00 -4.10411169e-01  1.57915908e+00 -2.67455455e+00
 -4.10411169e-01  1.57915908e+00 -2.67455455e+00 -4.10411169e-01  1.57915908e+00
 -2.67455455e+00 -4.10411169e-01  1.57915908e+00 -2.67455455e+00 -4.10411169e-01
  2.35602267e+00 -1.03060492e+00 -6.93603391e-01  2.35602267e+00 -1.03060492e+00
 -6.93603391e-01  2.35602267e+00 -1.03060492e+00 -6.93603391e-01  2.43142356e+00
  4.82608061e+00 -2.70286389e-01  2.43142356e+00  4.82608061e+00 -2.70286389e-01
  2.43142356e+00  4.82608061e+00 -2.70286389e-01  2.90250335e+00  1.74198052e+00
  1.35706474e+00  2.90250335e+00  1.74198052e+00  1.35706474e+00  2.90250335e+00
  1.74198052e+00  1.35706474e+00 -1.91915389e+00 -4.07316195e+00  2.60643636e-01
 -1.91915389e+00 -4.07316195e+00  2.60643636e-01 -1.91915389e+00 -4.07316195e+00
  2.60643636e-01 -4.07901068e+00 -1.88845375e-02  6.28999106e-01 -4.07901068e+00
 -1.88845375e-02  6.28999106e-01 -4.07901068e+00 -1.88845375e-02  6.28999106e-01
 -1.96390210e+00  3.85027568e+00 -1.09167958e+00 -1.96390210e+00  3.85027568e+00
 -1.09167958e+00 -1.96390210e+00  3.85027568e+00 -1.09167958e+00
Total Energy                               R     -2.312256130149100e+02
Alpha Orbital Energies                     R   N=         100
 -1.91740964e+01 -1.02506462e+01 -1.02062440e+01 -1.01907840e+01 -1.01823685e+01
 -1.06561190e+00 -8.01754887e-01 -7.31794456e-01 -6.28781174e-01 -5.79242566e-01
 -4.99272656e-01 -4.78292891e-01 -4.47412564e-01 -4.09489546e-01 -3.94537680e-01
 -3.76486465e-01 -3.47323270e-01 -2.99938983e-01 -2.18553984e-01 -2.54563455e-02
  5.63746992e-02  7.28573019e-02  8.06387396e-02  1.00655168e-01  1.25781296e-01
  1.41606873e-01  1.64809073e-01  2.21106599e-01  3.00875830e-01  3.21306166e-01
  3.49799082e-01  4.33729709e-01  4.45167429e-01  4.74599765e-01  4.77990395e-01
  4.94736942e-01  5.11634352e-01  5.34890952e-01  5.55353511e-01  5.66081207e-01
  5.81839028e-01  6.12683497e-01  6.27560932e-01  6.58293037e-01  6.74347722e-01
  7.19994214e-01  7.68388831e-01  7.94098909e-01  8.79724205e-01  9.07461471e-01
  9.40694420e-01  9.55624517e-01  9.63568696e-01  1.00124804e+00  1.03828638e+00
  1.05189580e+00  1.09449136e+00  1.10430789e+00  1.16333972e+00  1.19141402e+00
  1.22032604e+00  1.31902827e+00  1.36509744e+00  1.43364141e+00  1.45320348e+00
  1.48252993e+00  1.50491054e+00  1.52894102e+00  1.55538927e+00  1.58766877e+00
  1.60420645e+00  1.64641768e+00  1.68434712e+00  1.71581466e+00  1.73237715e+00
  1.75332448e+00  1.75797617e+00  1.82272385e+00  1.89591365e+00  1.92338268e+00
  1.98050525e+00  1.98772388e+00  2.03607927e+00  2.07798912e+00  2.09942166e+00
  2.17304305e+00  2.22263405e+00  2.26342036e+00  2.38801269e+00  2.39737313e+00
  2.42304471e+00  2.57424874e+00  2.73474383e+00  2.77952553e+00  2.87868495e+00
  2.95794129e+00  3.02129472e+00  3.17710844e+00  3.43800683e+00  3.70038324e+00
Alpha MO coefficients                      R   N=       10000
 -8.07145715e-05 -1.38924865e-04  1.23814064e-03 -1.03360089e-04  7.59573052e-05
  2.31608485e-05 -2.56235641e-04 -1.36407889e-03  1.58261297e-04 -7.08688585e-05
  1.32140342e-05  4.14850532e-05 -5.04359195e-05  7.73570685e-05  2.14288804e-04
  3.69354705e-04 -5.59694121e-03 -5.58875110e-06  4.33592086e-06  6.53340167e-05
  2.15398822e-04  2.97078208e-03 -8.96017332e-04  6.88079173e-05 -1.26331936e-04
  1.03299223e-04 -6.42955744e-06  2.11256337e-05 -1.89781286e-04 -2.75858112e-04
  4.79433591e-03  5.44235644e-05 -2.67730910e-04  7.52149411e-06  4.66437263e-03
  3.12253108e-03 -1.06831369e-03 -1.58925056e-04 -1.40741910e-04  6.76743940e-05
  3.91704871e-04 -3.96604608e-04 -1.94683211e-04 -3.54162048e-04 -5.72002628e-03
 -3.28367987e-04  2.13959238e-04  1.00729735e-04 -5.85686641e-03 -1.49572669e-03
  1.20552488e-03  4.03764508e-04  3.45187322e-06  7.02011170e-05  7.13904130e-04
 -4.01628664e-04 -1.00408588e+00 -9.36548583e-03  1.40390611e-02  8.86677334e-04
 -1.45865551e-03 -6.66044164e-05 -3.23327699e-03  1.40400096e-03  6.14827241e-04
  2.56800043e-05  1.58651705e-06  8.36615723e-05  1.51374970e-04 -2.68619219e-04
 -2.36361185e-04 -3.42144965e-04 -2.35126158e-04 -9.99483001e-04  5.64987440e-05
  5.55861070e-05  3.02221264e-04  3.76261215e-05  6.28868384e-05  7.99767894e-06
 -2.35378409e-04 -1.92503836e-04  2.93444155e-06 -2.78423639e-05 -1.58411615e-05
  4.01643440e-04 -8.95524249e-04  6.32437027e-04  1.48407981e-04 -1.25338958e-04
  1.65527912e-04  1.25901621e-03 -2.27354183e-04 -2.08701469e-04  6.31340712e-05
  8.89318081e-05 -6.16474850e-04 -3.46725206e-05 -1.08285349e-04  2.81334998e-05
 -2.79580167e-04 -3.42233067e-04  1.11603674e-03  1.44741049e-04  7.89476038e-05
  7.23492579e-05 -1.27322923e-03  5.00998914e-04 -6.38020807e-04 -7.47430912e-05
 -1.50699917e-05 -2.78183202e-05  5.50280494e-05 -3.84063743e-05 -4.96016804e-04
 -7.08501533e-04  4.84037244e-03 -1.15830685e-04  1.41337880e-05  1.52502970e-06
 -2.39951785e-03 -4.13992897e-03  7.53620855e-04 -3.52388276e-04 -9.41875619e-05
 -1.02805339e-04  3.59855631e-06  1.84341213e-04  4.64191746e-03 -1.02541640e-03
  1.99322477e-04 -5.79358718e-04  1.36209086e-03  9.53151469e-05 -1.93300649e-03
 -6.48171340e-03  7.55939055e-04  1.07497259e-03  2.39640221e-04 -5.50635769e-05
  5.62845291e-04  9.00392534e-04  1.00590426e+00  1.52799646e-02 -1.25669988e-02
  5.81147888e-04 -4.42104312e-04 -1.89277021e-04  5.06889440e-03 -2.38763663e-03
 -1.00837559e-03 -1.63276331e-03 -5.07192953e-04  4.51753669e-05 -3.14173203e-04
 -2.80247472e-05  7.18217001e-04  1.29667258e-03 -4.93248513e-03  2.65532985e-04
 -2.09180866e-04 -3.50699884e-05  3.26998197e-03 -2.45629275e-04 -7.05668821e-04
  6.95561280e-04  4.32377968e-04 -1.99463164e-05 -7.66266087e-04  1.92706081e-04
  5.15455987e-04 -4.48481821e-04 -6.25974787e-04 -2.36172078e-05  1.19889607e-04
 -5.58070372e-05  1.64613131e-04 -2.58463265e-05 -5.48440718e-05  3.06693349e-05
  6.16127476e-06  9.42827007e-04  1.03489625e-05  6.27682773e-05 -2.95719422e-05
 -2.13309713e-03  2.29786089e-03 -1.52826612e-03 -1.58988062e-03  2.54501053e-04
 -1.34477784e-04 -2.53492214e-04  3.07775367e-04  2.92845975e-04 -7.64104977e-05
 -5.56281860e-05  5.46487807e-04  1.71339360e-04  1.30457641e-04 -3.09343549e-05
  2.21959337e-02 -1.13093068e-03  4.79585778e-03  1.33393453e-03  3.38153039e-04
  1.63849724e-04 -2.07708332e-03 -1.81245141e-03  3.77059453e-04  7.61158582e-04
 -5.33749094e-04 -2.62470714e-05 -1.06472328e-03 -4.03153507e-04  1.00618087e+00
  1.62552061e-02 -1.92150550e-02 -1.18494091e-04  2.12996070e-04 -2.58022383e-04
 -1.71726456e-03  3.20033799e-03 -1.72938431e-03 -7.46267954e-04  7.05796850e-04
 -6.49544047e-04  2.38845809e-04 -3.11336323e-05  5.41095887e-03 -4.36340989e-04
  1.09855519e-03 -4.61585318e-04 -6.15596740e-04  1.41629495e-04  7.84566574e-04
  3.86086066e-03  2.72567523e-04  7.94603574e-04  3.29610811e-05  5.78540996e-04
  1.09999979e-03 -9.59439349e-04 -3.55129776e-04 -7.03871206e-04  4.11257538e-03
 -1.06560969e-04 -1.63528367e-04  1.28855078e-04 -6.17321906e-04  2.77295783e-03
 -2.63299036e-04 -4.29664260e-04 -3.16501275e-04  6.17368676e-05  4.13400276e-04
 -3.13050916e-04  8.76113654e-05  1.27554649e-04 -1.22540549e-03  1.64023125e-04
 -4.20704933e-05 -2.63741592e-05  1.36139447e-04 -6.82174394e-04  8.32525903e-05
  8.31133114e-05  2.55397291e-05  1.83209282e-05 -1.54422935e-05  1.58902160e-05
  2.89230628e-04  6.05588549e-04 -2.78244346e-04 -7.94761238e-05 -2.08259830e-05
 -4.95172117e-05  8.97631566e-04  1.43526819e-04 -1.14564053e-04  7.70156089e-05
 -2.66923810e-04 -2.11330367e-04  3.62228369e-05  2.40329174e-04 -1.10151628e-04
  1.01836427e-04  7.92120977e-04  1.79763945e-04 -5.30634371e-05  2.55543840e-06
 -3.00434750e-04  4.21588593e-04 -7.28909476e-05 -3.87385194e-04 -5.81740790e-05
 -2.28970077e-03  1.20302208e-03 -1.14973211e-03  1.50737808e-03 -9.49382301e-04
  1.00617758e+00  1.63540795e-02 -1.52674106e-02  2.75140173e-04 -5.63410824e-05
  2.87911128e-05  2.20918646e-03  7.37677218e-04  7.35913287e-04 -1.04220704e-03
  7.24713450e-04 -1.18762210e-03  5.14574246e-05  3.27797581e-04 -2.34269903e-02
 -1.45555163e-03  1.04477499e-03 -1.34120563e-03 -3.32896019e-04 -2.73125204e-04
  2.92416294e-03  2.47028417e-03 -3.12380401e-05  1.00030196e-03 -5.86042518e-04
  1.85139244e-04 -9.94640021e-04 -7.69009123e-04 -1.02702455e-03 -5.16811747e-04
  3.46847196e-03 -8.36920838e-05  5.03608643e-05 -6.51164673e-05  1.92010243e-03
  2.45659579e-03 -4.99345748e-04 -3.73006533e-04  7.62140000e-05 -2.42921583e-04
 -3.37432931e-04  3.14704858e-05  1.04251098e-05 -2.06562220e-04 -6.30953392e-04
 -2.26676665e-07 -1.33798011e-04 -5.10373351e-05 -1.31028715e-03 -1.58705914e-04
  3.00422704e-04  5.91070596e-05  9.88962156e-05 -8.94726732e-05 -4.73422385e-05
  1.05067293e-04  1.16046675e-05  3.62997827e-05  4.07475739e-04  1.20720125e-04
  6.76465192e-05 -3.70798470e-05 -6.61117648e-04 -1.68968618e-04  1.00778264e-04
 -3.20009787e-05 -3.33978380e-05 -2.70496804e-05  7.90790995e-05  5.62862353e-05
  1.68301795e-04  1.27402133e-03 -1.19802746e-04  4.27718182e-04  8.58716935e-05
 -2.30564331e-03  1.89010176e-03  7.49242521e-04  2.01540690e-03 -7.04539711e-04
 -2.12585737e-03  1.49110196e-03  1.21847287e-03 -1.48720262e-03  1.21576148e-03
 -8.16460193e-05 -3.49752452e-05  3.98493717e-05  1.90947177e-05 -1.99112220e-05
  1.10598060e-04  5.76040014e-04  1.29154067e-05 -1.30663833e-04  4.39218189e-05
  8.35224759e-05  2.59929385e-04  1.84681270e-05 -3.17182013e-04  1.09638710e-04
  3.16029803e-04 -4.48056493e-04  2.76740762e-03  7.34338269e-05  1.05615148e-04
 -8.61924202e-05 -2.07461157e-03 -4.09868605e-04 -4.38169005e-05 -2.54417403e-04
  5.21096504e-04 -3.00754490e-04  2.73064798e-04 -4.85596690e-04 -5.78837807e-03
 -6.78772714e-04  3.03281717e-03  2.05253520e-04  6.92802159e-04 -1.75619345e-04
 -2.06965068e-03 -3.86016864e-03 -3.24362846e-05  9.03415173e-04  4.96258652e-04
  3.51164294e-04  5.58589763e-04 -1.31034521e-03  1.00665126e+00  1.67555862e-02
 -2.18705911e-02 -2.34046064e-04 -1.71345132e-04 -1.00509471e-04 -5.15710879e-03
 -2.47204215e-04  1.56343198e-03 -1.07783685e-03 -3.97390161e-04 -1.68347958e-06
  2.96274886e-04 -2.24419733e-04 -5.91445554e-03 -1.60910475e-03  6.77677512e-03
  6.43035704e-04 -1.24262812e-03 -9.31987232e-05  3.04730200e-04  4.20596654e-03
 -3.32403844e-04  8.43547248e-04  1.60819997e-04 -2.04665288e-04  7.04042208e-04
  1.01200676e-03  3.30368788e-05  4.61513921e-05 -9.64759399e-04  2.92680612e-05
 -5.88204575e-05 -2.78284326e-06 -1.04901606e-04 -7.01349867e-04  6.58441474e-05
 -5.78726055e-05 -4.15529436e-05 -1.13564763e-05  9.43991551e-05  7.96716301e-05
  2.71190337e-04  3.95019761e-05 -1.38903955e-04 -1.60528339e-04  2.27923921e-05
  1.13968410e-04  5.03578053e-04  1.40082517e-04 -1.47676697e-04  5.05929001e-05
 -6.99298524e-04  5.07308538e-04  1.87997091e-04 -1.23779170e-04  1.19991396e-04
  1.51830438e-04  1.20547316e-03  2.86970689e-04 -1.85020653e-05 -1.63747530e-05
 -2.40455149e-03  8.39745300e-04 -2.12218091e-03 -5.94304481e-05  2.81357912e-04
 -3.41165482e-04  7.09407242e-04  1.99290291e-04  2.89482329e-04  7.12483955e-05
  1.55809487e-04  8.47918202e-03 -4.75504123e-03 -1.87763896e-03 -5.12438924e-03
 -6.69321906e-04  2.80054176e-03  5.35179088e-03 -1.91070309e-03 -2.45323714e-04
 -5.71456366e-04  6.98159048e-04 -8.15038413e-04  9.67824222e-04 -1.14991125e-04
  1.30816664e-02  2.41676060e-03  1.55546502e-03 -8.63072826e-03  9.45778771e-04
  6.26950857e-03  3.06515369e-03  2.65162156e-04 -1.40265401e-03 -1.51144211e-04
 -4.23686428e-04 -1.32219184e-03  4.20705158e-04 -1.27996458e-03  3.52841980e-02
 -5.15945784e-03  2.12967383e-02 -1.81293404e-02 -4.30199516e-03  5.01219010e-03
  1.53598809e-02 -2.05757341e-03 -2.21393276e-03 -1.09074485e-03  1.53948136e-03
  2.18336416e-03 -8.05030643e-03 -1.27064097e-02  1.53953649e-01  8.57149662e-02
  1.25970809e-01 -5.29361309e-03 -2.71465492e-02  4.90219651e-03  2.45683177e-02
 -1.11584541e-03 -1.11060080e-02 -1.07891697e-02  8.62262441e-04  2.83872327e-02
 -4.71051357e-03 -6.73397302e-03  4.23939072e-01  3.71930994e-01 -7.27415955e-02
  9.05008846e-02  9.61634311e-03 -3.11628425e-02 -2.08760159e-03  6.77956028e-03
 -6.35428067e-03 -3.35688335e-03 -3.19794268e-04  3.94953909e-03 -1.75900464e-03
  1.72436275e-01  5.01700419e-03 -1.89616835e-02 -2.99162550e-02  6.74278679e-03
  1.86375880e-05 -3.98851130e-03  5.22280427e-05  1.03883174e-04 -1.62339826e-04
  7.59201367e-03  4.59598360e-03 -1.14884644e-03 -6.35848191e-04 -9.08760756e-04
  3.40908501e-02  5.49842814e-03  8.24181511e-03  4.52530263e-03 -1.49679871e-03
  5.08749420e-03  1.88673733e-03  4.36579689e-04 -2.29951535e-03  1.29270790e-05
  1.65311335e-03 -1.05968440e-03 -3.04077081e-04 -4.47346779e-04 -8.78936708e-05
  1.47662511e-02 -1.92478220e-01 -1.04488401e-01  8.31485220e-02  2.91957538e-02
  1.38791328e-02  8.62907061e-03 -2.90306710e-03  8.28595777e-03  4.80432231e-03
 -2.29712254e-03 -3.31751874e-03 -7.81903711e-03 -6.00257020e-03  1.93458996e-02
 -2.77588612e-01 -1.77825492e-01 -3.84339464e-02  3.98268432e-02 -1.87213683e-02
 -1.87456465e-02  2.06370252e-02 -1.37778502e-02  1.04842336e-02 -8.46334938e-04
  1.26768995e-03 -1.55072750e-03 -1.09735586e-02  1.82378893e-02 -2.40817663e-01
 -1.42446928e-01 -5.44625064e-02 -1.48558988e-02  1.50939645e-02 -1.96152127e-02
 -1.18471478e-02  9.63234070e-03  8.65925768e-03  1.69069698e-03  2.56371287e-03
  9.46903412e-03 -5.26551784e-03  5.48051251e-03 -1.24699894e-01 -6.67407142e-02
  6.09810756e-02 -8.58165609e-02 -1.01197200e-02  2.35646512e-02 -1.22717978e-02
 -6.76013549e-03  3.36267880e-03 -1.65493380e-03 -5.41628898e-04  1.21145757e-02
  4.14595102e-03  1.10272483e-03  8.83047661e-02  8.11718830e-02  2.70038415e-02
  2.41689723e-03 -7.26746452e-03  1.64215916e-02 -7.95414570e-03 -3.34019157e-03
  7.93352954e-04  4.11445533e-04 -6.96445340e-04 -1.07533361e-03  2.93204377e-03
  3.41403628e-02  3.72031889e-03 -1.98609837e-03 -9.21583263e-03  2.53473378e-04
 -5.98300595e-02 -5.38392313e-04  5.87276034e-03  8.82960787e-03 -2.17446592e-03
 -6.94632243e-02 -4.65815710e-03  8.17661055e-03 -5.58539727e-03  5.83706197e-03
 -3.28245597e-02  1.20696302e-03 -4.87530976e-04 -5.81883753e-03  2.10252562e-04
 -8.15481473e-02 -8.73024533e-03 -1.30806436e-02 -9.14104559e-04  2.06991170e-03
 -9.53634927e-02 -1.21985748e-02 -8.50386961e-03  1.07546487e-02 -6.38771498e-03
  1.62865609e-02 -2.27188363e-01 -1.26790713e-01  5.45447558e-02  9.32080065e-03
  1.38107620e-02  2.61058042e-03  1.01767405e-03  2.86149317e-03  3.11284716e-03
 -2.58776254e-03 -2.24917109e-03 -5.48669225e-03  4.61824551e-05  8.87803947e-03
 -1.34738453e-01 -1.01632208e-01 -1.09646494e-01 -7.64454653e-02 -6.65537600e-03
 -4.76196639e-02 -1.26328166e-02 -6.56421519e-03  2.36733215e-03 -4.14464622e-03
 -2.56600778e-03 -1.45167205e-02  3.95268115e-04 -1.34188519e-02  1.98814217e-01
  1.29797201e-01  1.02195132e-02 -1.19878437e-01 -4.49563692e-03  1.88812731e-02
 -3.33182586e-02 -2.94473379e-04 -3.36430972e-03  1.79760270e-04  1.99890099e-03
 -6.79041083e-03 -1.21398393e-02 -9.97733055e-03  2.51655515e-01  1.40154190e-01
 -7.26384606e-02  5.98949595e-02  1.11297487e-02 -2.26707429e-02  9.42733867e-03
  2.68784897e-03 -5.34728384e-03 -3.34860898e-04  1.35585450e-03 -5.29369343e-03
 -1.10307692e-02 -1.97023519e-03 -8.74385721e-02 -7.68318787e-02 -1.09421722e-01
 -4.51600504e-02  2.53232649e-02 -5.01575515e-02 -3.10406929e-03  1.01138473e-02
 -1.50652586e-03 -1.44701298e-03  1.31839124e-03  5.97957498e-03 -5.07307116e-03
 -1.08766483e-01 -2.03733493e-02  4.92887524e-03  1.15783206e-02 -3.17848629e-03
 -9.58082145e-02 -9.57566775e-03  6.08207207e-03  1.25951229e-02 -3.51701809e-03
 -9.55674557e-02 -1.22742585e-02  9.12885454e-03 -6.70827351e-03  7.84883572e-03
  1.07526734e-01  9.25076790e-03  5.18682744e-03  1.39031829e-02 -7.65728886e-04
  9.00070437e-02  1.38199272e-02  1.22911334e-02 -3.08069707e-03 -2.23717896e-03
 -5.77263321e-02 -1.17310527e-02 -6.76863554e-03  3.47034829e-03 -3.61998422e-03
  1.04036467e-02 -1.88580896e-01 -1.22648965e-01 -2.21651047e-02 -3.04689633e-02
  2.57520312e-04 -2.12836156e-02  4.62643991e-03 -8.51312808e-03 -1.52882475e-03
 -3.12283185e-04  4.96615659e-04  4.71834229e-04  2.27104964e-03 -2.68618999e-03
  8.37931275e-02  4.14858707e-02 -1.46780518e-01 -9.45378012e-02 -8.98147502e-03
 -4.90969027e-02 -4.04750770e-02 -8.22521679e-04 -9.89417632e-04 -4.58624716e-03
 -2.60252492e-03 -9.51188993e-03  1.46140359e-03 -6.02544403e-03  1.58698704e-01
  9.23385976e-02 -1.78886407e-02  1.17683231e-01 -1.29358860e-02  4.99255850e-03
  4.36626594e-02 -5.16850748e-03 -8.17792164e-04 -1.07346608e-03 -4.05428340e-03
 -2.24402153e-03  7.45872133e-03  3.07758228e-03 -2.07521067e-01 -1.26581366e-01
 -5.03214230e-02  1.44427471e-01  4.92777504e-03 -1.99051072e-02  3.55861232e-02
  1.01008900e-03  2.00099226e-03  2.33392573e-03 -2.94869164e-03 -9.00234410e-03
  9.63301299e-03  5.04681593e-04  5.32365988e-02  5.14367525e-02  2.38147532e-01
  1.42343626e-01 -6.17070222e-02  1.03513979e-01  4.35157744e-02 -2.56713456e-02
  1.23344353e-03  2.84448141e-03 -1.64670555e-03 -1.20159470e-02  3.87222765e-03
  1.91436503e-01  3.84848414e-02 -8.24392631e-03 -2.35276196e-02  2.94735891e-03
 -1.22555458e-01 -2.65397262e-02  5.08399898e-03  1.25820521e-02 -4.29217041e-03
 -9.16982766e-02 -5.99744481e-03  6.42702149e-03 -9.37493790e-03  5.79466961e-03
 -1.62569113e-01 -3.04610466e-02 -9.40231404e-03 -1.40815129e-02  1.22838158e-03
  9.45042410e-02  2.02911498e-02  1.06062638e-02  2.64579346e-03 -2.11792339e-03
  5.64901200e-02  1.12413677e-02  4.88649732e-04 -6.32217146e-03  2.35702086e-03
  6.76232221e-03 -1.39624260e-01 -8.51169502e-02 -1.40596910e-01  2.22564987e-02
 -4.25826981e-02 -5.61746130e-02  1.28624997e-02 -1.45635329e-02 -3.09250943e-03
  3.42963496e-03 -1.68753736e-05  1.08889440e-02  2.95376528e-03 -4.30662424e-03
  2.12566274e-01  1.22094943e-01 -1.06051108e-01  5.03479982e-02 -4.11237529e-02
 -4.48495283e-02  7.37753351e-03 -1.19698684e-02  4.17351833e-03 -2.60945309e-03
 -6.46108635e-04 -2.21710366e-03 -1.71500699e-04  1.91766371e-03 -7.63208627e-02
 -1.96939325e-02 -5.07303168e-03  1.85937049e-01 -2.04888256e-02  1.84336513e-03
  4.21527557e-02 -9.14023810e-03 -1.42797032e-03 -1.38813722e-03 -4.77848644e-03
 -3.62699283e-03  6.15312052e-03  2.71234458e-03 -1.50556235e-02 -1.76084530e-02
  1.58525692e-01 -1.73753649e-01 -3.56967288e-02  4.74339418e-02 -6.26501420e-02
 -1.05794094e-02 -2.26189483e-03 -2.68566351e-03  1.13771030e-03  1.02250703e-02
 -9.88320887e-03  1.27568232e-03  3.90535279e-02  6.06260134e-02 -1.96469631e-01
 -1.75356322e-01  4.52263679e-02 -7.56764449e-02 -7.08246986e-02  1.48753181e-02
  1.04216781e-03 -1.33867170e-03  9.17866275e-04  1.06416530e-02 -1.72759735e-03
 -1.87563089e-01 -4.73352028e-02  5.92601276e-03  1.24660813e-02 -5.41274457e-03
 -9.61066543e-02 -2.31808785e-02  3.34589685e-04  1.02919914e-02 -4.10979300e-03
 -1.68846816e-01 -3.63405061e-02  7.33331237e-03 -7.10402998e-03  1.01524804e-02
  2.86967986e-02  3.37112989e-03  3.49541498e-03  2.71148576e-04 -7.47500256e-04
 -4.18503081e-02 -9.52233307e-03 -5.27232283e-03  3.91216404e-03  4.70067036e-04
  1.87205850e-01  3.96472359e-02  9.31659675e-03 -1.30203348e-02  8.54573340e-03
 -7.69790870e-04  3.68378421e-02  4.25233726e-02  6.60334668e-02  1.43175367e-01
 -2.80089061e-02  1.22184097e-02  5.77979998e-02 -1.16276790e-02  2.19194862e-03
 -1.43504138e-03 -2.35429096e-03 -5.59953279e-04 -3.89579672e-03 -3.12000409e-04
 -3.06201575e-02 -1.66305557e-02 -9.05707398e-02  1.48660108e-01 -4.89139847e-02
 -5.36385757e-02  4.62680118e-02 -1.16672923e-02  9.54388898e-04 -1.78050819e-03
 -8.95760949e-04  7.00629259e-03  8.61443364e-03 -4.23574042e-03  3.13259080e-02