Generated by Psi4
        SP                           RHF                       CC-PVDZ
Number of atoms                            I               11
Charge                                     I                0
Multiplicity                               I                1
Number of electrons                        I               38
Number of alpha electrons                  I               19
Number of beta electrons                   I               19
Number of basis functions                  I              100
Number of independent functions            I              100
Atomic numbers                             I   N=          11
           6           6           6           6           8           1
           1           1           1           1           1
Nuclear charges                            R   N=          11
  6.00000000e+00  6.00000000e+00  6.00000000e+00  6.00000000e+00  8.00000000e+00
  1.00000000e+00  1.00000000e+00  1.00000000e+00  1.00000000e+00  1.00000000e+00
  1.00000000e+00
Current cartesian coordinates              R   N=          33
  2.02279251e+00  2.71125984e+00 -2.19767359e-01 -7.87707373e-01  2.38315272e+00
 -1.07473162e-01 -2.08926229e+00  1.89806846e-01  1.25110489e-02 -9.23047177e-01
 -2.34296279e+00  7.15828105e-02  1.33824023e+00 -2.76068081e+00  2.22085834e-01
  2.94575892e+00  1.18206163e+00 -1.26954127e+00  2.52665025e+00  4.56825976e+00
 -1.00722104e+00  2.81425708e+00  2.61787930e+00  1.71590328e+00 -2.30316560e+00
 -3.95194585e+00 -2.93189459e-02 -4.15697134e+00  2.44323914e-01  6.25340459e-02
 -1.90426725e+00  4.13239056e+00 -1.01913777e-01
Integer atomic weights                     I   N=          11
          12          12          12          12          16           1
           1           1           1           1           1
Real atomic weights                        R   N=          11
  1.20000000e+01  1.20000000e+01  1.20000000e+01  1.20000000e+01  1.59949146e+01
  1.00782503e+00  1.00782503e+00  1.00782503e+00  1.00782503e+00  1.00782503e+00
  1.00782503e+00
Number of primitive shells                 I              140
Number of contracted shells                I               48
Pure/Cartesian d shells                    I                0
Pure/Cartesian f shells                    I                0
Highest angular momentum                   I                2
Largest degree of contraction              I                8
Shell types                                I   N=          48
           0           0           0           1           1          -2
           0           0           0           1           1          -2
           0           0           0           1           1          -2
           0           0           0           1           1          -2
           0           0           0           1           1          -2
           0           0           1           0           0           1
           0           0           1           0           0           1
           0           0           1           0           0           1
Number of primitives per shell             I   N=          48
           8           8           1           3           1           1
           8           8           1           3           1           1
           8           8           1           3           1           1
           8           8           1           3           1           1
           8           8           1           3           1           1
           3           1           1           3           1           1
           3           1           1           3           1           1
           3           1           1           3           1           1
Shell to atom map                          I   N=          48
           1           1           1           1           1           1
           2           2           2           2           2           2
           3           3           3           3           3           3
           4           4           4           4           4           4
           5           5           5           5           5           5
           6           6           6           7           7           7
           8           8           8           9           9           9
          10          10          10          11          11          11
Primitive exponents                        R   N=         140
  6.66500000e+03  1.00000000e+03  2.28000000e+02  6.47100000e+01  2.10600000e+01
  7.49500000e+00  2.79700000e+00  5.21500000e-01  6.66500000e+03  1.00000000e+03
  2.28000000e+02  6.47100000e+01  2.10600000e+01  7.49500000e+00  2.79700000e+00
  5.21500000e-01  1.59600000e-01  9.43900000e+00  2.00200000e+00  5.45600000e-01
  1.51700000e-01  5.50000000e-01  6.66500000e+03  1.00000000e+03  2.28000000e+02
  6.47100000e+01  2.10600000e+01  7.49500000e+00  2.79700000e+00  5.21500000e-01
  6.66500000e+03  1.00000000e+03  2.28000000e+02  6.47100000e+01  2.10600000e+01
  7.49500000e+00  2.79700000e+00  5.21500000e-01  1.59600000e-01  9.43900000e+00
  2.00200000e+00  5.45600000e-01  1.51700000e-01  5.50000000e-01  6.66500000e+03
  1.00000000e+03  2.28000000e+02  6.47100000e+01  2.10600000e+01  7.49500000e+00
  2.79700000e+00  5.21500000e-01  6.66500000e+03  1.00000000e+03  2.28000000e+02
  6.47100000e+01  2.10600000e+01  7.49500000e+00  2.79700000e+00  5.21500000e-01
  1.59600000e-01  9.43900000e+00  2.00200000e+00  5.45600000e-01  1.51700000e-01
  5.50000000e-01  6.66500000e+03  1.00000000e+03  2.28000000e+02  6.47100000e+01
  2.10600000e+01  7.49500000e+00  2.79700000e+00  5.21500000e-01  6.66500000e+03
  1.00000000e+03  2.28000000e+02  6.47100000e+01  2.10600000e+01  7.49500000e+00
  2.79700000e+00  5.21500000e-01  1.59600000e-01  9.43900000e+00  2.00200000e+00
  5.45600000e-01  1.51700000e-01  5.50000000e-01  1.17200000e+04  1.75900000e+03
  4.00800000e+02  1.13700000e+02  3.70300000e+01  1.32700000e+01  5.02500000e+00
  1.01300000e+00  1.17200000e+04  1.75900000e+03  4.00800000e+02  1.13700000e+02
  3.70300000e+01  1.32700000e+01  5.02500000e+00  1.01300000e+00  3.02300000e-01
  1.77000000e+01  3.85400000e+00  1.04600000e+00  2.75300000e-01  1.18500000e+00
  1.30100000e+01  1.96200000e+00  4.44600000e-01  1.22000000e-01  7.27000000e-01
  1.30100000e+01  1.96200000e+00  4.44600000e-01  1.22000000e-01  7.27000000e-01
  1.30100000e+01  1.96200000e+00  4.44600000e-01  1.22000000e-01  7.27000000e-01
  1.30100000e+01  1.96200000e+00  4.44600000e-01  1.22000000e-01  7.27000000e-01
  1.30100000e+01  1.96200000e+00  4.44600000e-01  1.22000000e-01  7.27000000e-01
  1.30100000e+01  1.96200000e+00  4.44600000e-01  1.22000000e-01  7.27000000e-01
Contraction coefficients                   R   N=         140
  6.91583963e-04  5.32579615e-03  2.70607210e-02  1.01656846e-01  2.74574824e-01
  4.48294319e-01  2.84902611e-01  1.51948592e-02 -2.93269653e-04 -2.31803547e-03
 -1.14997860e-02 -4.68267270e-02 -1.28466169e-01 -3.01266272e-01 -2.55630702e-01
  1.09379336e+00  1.00000000e+00  5.69792516e-02  3.13207212e-01  7.60376742e-01
  1.00000000e+00  1.00000000e+00  6.91583963e-04  5.32579615e-03  2.70607210e-02
  1.01656846e-01  2.74574824e-01  4.48294319e-01  2.84902611e-01  1.51948592e-02
 -2.93269653e-04 -2.31803547e-03 -1.14997860e-02 -4.68267270e-02 -1.28466169e-01
 -3.01266272e-01 -2.55630702e-01  1.09379336e+00  1.00000000e+00  5.69792516e-02
  3.13207212e-01  7.60376742e-01  1.00000000e+00  1.00000000e+00  6.91583963e-04
  5.32579615e-03  2.70607210e-02  1.01656846e-01  2.74574824e-01  4.48294319e-01
  2.84902611e-01  1.51948592e-02 -2.93269653e-04 -2.31803547e-03 -1.14997860e-02
 -4.68267270e-02 -1.28466169e-01 -3.01266272e-01 -2.55630702e-01  1.09379336e+00
  1.00000000e+00  5.69792516e-02  3.13207212e-01  7.60376742e-01  1.00000000e+00
  1.00000000e+00  6.91583963e-04  5.32579615e-03  2.70607210e-02  1.01656846e-01
  2.74574824e-01  4.48294319e-01  2.84902611e-01  1.51948592e-02 -2.93269653e-04
 -2.31803547e-03 -1.14997860e-02 -4.68267270e-02 -1.28466169e-01 -3.01266272e-01
 -2.55630702e-01  1.09379336e+00  1.00000000e+00  5.69792516e-02  3.13207212e-01
  7.60376742e-01  1.00000000e+00  1.00000000e+00  7.09645947e-04  5.46727229e-03
  2.78231186e-02  1.04747740e-01  2.82920846e-01  4.48495239e-01  2.70816885e-01
  1.54502916e-02 -3.14443412e-04 -2.48213768e-03 -1.23163554e-02 -5.05389173e-02
 -1.39384903e-01 -3.25077495e-01 -2.29848308e-01  1.09537935e+00  1.00000000e+00
  6.26791663e-02  3.33536566e-01  7.41239642e-01  1.00000000e+00  1.00000000e+00
  3.34987264e-02  2.34800801e-01  8.13682958e-01  1.00000000e+00  1.00000000e+00
  3.34987264e-02  2.34800801e-01  8.13682958e-01  1.00000000e+00  1.00000000e+00
  3.34987264e-02  2.34800801e-01  8.13682958e-01  1.00000000e+00  1.00000000e+00
  3.34987264e-02  2.34800801e-01  8.13682958e-01  1.00000000e+00  1.00000000e+00
  3.34987264e-02  2.34800801e-01  8.13682958e-01  1.00000000e+00  1.00000000e+00
  3.34987264e-02  2.34800801e-01  8.13682958e-01  1.00000000e+00  1.00000000e+00
Coordinates of each shell                  R   N=         144
  2.02279251e+00  2.71125984e+00 -2.19767359e-01  2.02279251e+00  2.71125984e+00
 -2.19767359e-01  2.02279251e+00  2.71125984e+00 -2.19767359e-01  2.02279251e+00
  2.71125984e+00 -2.19767359e-01  2.02279251e+00  2.71125984e+00 -2.19767359e-01
  2.02279251e+00  2.71125984e+00 -2.19767359e-01 -7.87707373e-01  2.38315272e+00
 -1.07473162e-01 -7.87707373e-01  2.38315272e+00 -1.07473162e-01 -7.87707373e-01
  2.38315272e+00 -1.07473162e-01 -7.87707373e-01  2.38315272e+00 -1.07473162e-01
 -7.87707373e-01  2.38315272e+00 -1.07473162e-01 -7.87707373e-01  2.38315272e+00
 -1.07473162e-01 -2.08926229e+00  1.89806846e-01  1.25110489e-02 -2.08926229e+00
  1.89806846e-01  1.25110489e-02 -2.08926229e+00  1.89806846e-01  1.25110489e-02
 -2.08926229e+00  1.89806846e-01  1.25110489e-02 -2.08926229e+00  1.89806846e-01
  1.25110489e-02 -2.08926229e+00  1.89806846e-01  1.25110489e-02 -9.23047177e-01
 -2.34296279e+00  7.15828105e-02 -9.23047177e-01 -2.34296279e+00  7.15828105e-02
 -9.23047177e-01 -2.34296279e+00  7.15828105e-02 -9.23047177e-01 -2.34296279e+00
  7.15828105e-02 -9.23047177e-01 -2.34296279e+00  7.15828105e-02 -9.23047177e-01
 -2.34296279e+00  7.15828105e-02  1.33824023e+00 -2.76068081e+00  2.22085834e-01
  1.33824023e+00 -2.76068081e+00  2.22085834e-01  1.33824023e+00 -2.76068081e+00
  2.22085834e-01  1.33824023e+00 -2.76068081e+00  2.22085834e-01  1.33824023e+00
 -2.76068081e+00  2.22085834e-01  1.33824023e+00 -2.76068081e+00  2.22085834e-01
  2.94575892e+00  1.18206163e+00 -1.26954127e+00  2.94575892e+00  1.18206163e+00
 -1.26954127e+00  2.94575892e+00  1.18206163e+00 -1.26954127e+00  2.52665025e+00
  4.56825976e+00 -1.00722104e+00  2.52665025e+00  4.56825976e+00 -1.00722104e+00
  2.52665025e+00  4.56825976e+00 -1.00722104e+00  2.81425708e+00  2.61787930e+00
  1.71590328e+00  2.81425708e+00  2.61787930e+00  1.71590328e+00  2.81425708e+00
  2.61787930e+00  1.71590328e+00 -2.30316560e+00 -3.95194585e+00 -2.93189459e-02
 -2.30316560e+00 -3.95194585e+00 -2.93189459e-02 -2.30316560e+00 -3.95194585e+00
 -2.93189459e-02 -4.15697134e+00  2.44323914e-01  6.25340459e-02 -4.15697134e+00
  2.44323914e-01  6.25340459e-02 -4.15697134e+00  2.44323914e-01  6.25340459e-02
 -1.90426725e+00  4.13239056e+00 -1.01913777e-01 -1.90426725e+00  4.13239056e+00
 -1.01913777e-01 -1.90426725e+00  4.13239056e+00 -1.01913777e-01
Total Energy                               R     -2.312415925236602e+02
Alpha Orbital Energies                     R   N=         100
 -1.91348405e+01 -1.02730232e+01 -1.02228370e+01 -1.01974348e+01 -1.01924474e+01
 -1.03894328e+00 -8.08896832e-01 -7.18018624e-01 -6.28853895e-01 -5.32520220e-01
 -4.96172990e-01 -4.41935211e-01 -4.31477505e-01 -4.20888059e-01 -3.86114260e-01
 -3.79633025e-01 -3.74594848e-01 -2.73512066e-01 -2.49930438e-01 -6.55609660e-02
  5.58485750e-02  6.15214225e-02  8.81006660e-02  1.04247234e-01  1.29591829e-01
  1.45905225e-01  1.55003987e-01  2.16166095e-01  2.59840388e-01  3.23565100e-01
  3.40192626e-01  4.29522942e-01  4.38070987e-01  4.52308231e-01  4.76882276e-01
  4.83975802e-01  5.08454093e-01  5.26173774e-01  5.62098955e-01  6.04447234e-01
  6.13229556e-01  6.26564240e-01  6.34520585e-01  6.48467655e-01  6.62980356e-01
  6.85533037e-01  7.01004771e-01  7.65458015e-01  8.28285793e-01  8.54956577e-01
  9.11480731e-01  9.34472022e-01  9.78646722e-01  9.90593128e-01  1.02015453e+00
  1.03704920e+00  1.07763603e+00  1.15645064e+00  1.18126829e+00  1.19819646e+00
  1.29796554e+00  1.36440567e+00  1.38814251e+00  1.44503801e+00  1.47406200e+00
  1.49346024e+00  1.54660140e+00  1.56470443e+00  1.61825898e+00  1.62101879e+00
  1.64738830e+00  1.66439099e+00  1.67024494e+00  1.68856668e+00  1.72779719e+00
  1.75161495e+00  1.78841323e+00  1.80456100e+00  1.84656278e+00  1.91764721e+00
  1.95690695e+00  1.97642455e+00  2.01500763e+00  2.06556134e+00  2.11131962e+00
  2.22553632e+00  2.30936842e+00  2.33281916e+00  2.39456534e+00  2.41209832e+00
  2.42479094e+00  2.49098194e+00  2.57851830e+00  2.65061307e+00  2.69484545e+00
  2.78579710e+00  2.96307613e+00  3.06605180e+00  3.42040246e+00  3.48038582e+00
Alpha MO coefficients                      R   N=       10000
 -4.45823916e-05 -1.00142124e-04 -1.89628246e-05  6.46310728e-05  2.28356693e-05
  1.46846637e-05 -6.15877953e-06  7.96430614e-05  1.88456210e-04  5.20172759e-05
  2.67216192e-05  5.93664006e-05  5.91436668e-05 -1.05149789e-04 -2.28685992e-04
 -4.06161655e-04  5.87936196e-03 -1.93798857e-05 -1.11682554e-05 -2.16113211e-05
 -1.12261418e-03 -2.60021746e-03  1.91833292e-04 -4.31854528e-05 -9.76380511e-06
  5.42808840e-07 -4.41685069e-05 -3.64686029e-05  2.25152653e-04  3.45949981e-04
 -4.62877068e-03  1.93367426e-05  2.92387012e-04 -1.71710348e-05 -4.82403623e-03
 -3.61417617e-03  4.75727408e-05  1.45851393e-04 -5.37606784e-06  5.72345660e-05
 -3.20609372e-04  5.11425989e-04  4.40303308e-04  5.73993566e-04  5.50605546e-03
 -1.10036736e-04 -1.70197980e-04 -7.10274366e-06  6.69644932e-03  6.74830648e-04
  3.63702643e-04 -4.27515336e-05 -5.46638859e-05  2.72616712e-05 -1.14773835e-03
  5.22583509e-04  1.00417113e+00  9.47246388e-03 -1.51693804e-02 -1.82907226e-03
  3.60373692e-04 -1.38213338e-04  3.50316062e-03 -8.64371821e-04  2.55542078e-04
 -2.08206858e-05  8.37134637e-06  2.81277301e-08  6.56750835e-05  8.70215594e-06
 -8.21799690e-05 -2.51227528e-05  5.49990319e-05  4.03004475e-05 -5.52724523e-06
  1.06115032e-04  2.79803321e-04 -6.60289929e-05 -8.03261848e-05  2.73852291e-05
 -5.60884014e-05 -2.36830005e-04  5.64414236e-05  3.64477423e-05  4.34597545e-05
 -1.17408010e-04  9.75006009e-04 -7.61240813e-04  1.22717018e-04 -4.25494070e-05
 -2.69286861e-04 -1.36574668e-03  1.88794934e-04  2.61244265e-04  1.10760486e-05
 -1.73024122e-04  2.95145704e-04  5.84374319e-05  8.90987557e-05 -1.19795589e-05
 -3.30340130e-04 -4.25340801e-04  8.43684946e-04  2.96464502e-04  5.53367919e-05
 -1.03733730e-05 -5.82919158e-04  2.94678386e-04  1.15565989e-04  1.80726989e-05
 -1.11787497e-05  3.39417202e-05 -1.25614251e-04 -8.03449767e-05 -4.27850073e-04
 -6.32430107e-04  7.01297588e-03 -2.66452715e-04 -2.46319035e-05  1.19005266e-05
 -2.40810238e-03 -4.12760679e-03  2.33705708e-04 -4.43059999e-04 -7.46076007e-05
 -4.69682317e-05  3.37259331e-04  3.86626320e-04  1.61805758e-03 -2.30240191e-04
 -2.44854406e-03 -3.37367535e-04  7.41753134e-04 -1.27411952e-05 -2.81405502e-03
 -6.28808003e-03  2.25453727e-04  1.05430494e-03 -4.71666792e-05  6.45657600e-05
  1.17237850e-03  8.00012083e-04  1.00591921e+00  1.52348249e-02 -1.08210240e-02
  7.27142732e-04 -4.86856423e-04  5.39696526e-05  5.46206042e-03 -2.10361789e-03
  2.53817937e-04 -1.63736198e-03  2.65720810e-04  1.02120486e-05  8.25153752e-04
  3.80690901e-05  3.66531222e-04  9.12982806e-04 -5.95070348e-03  7.35510079e-04
 -2.21830290e-04  3.95692936e-05  3.38073548e-03 -2.36245761e-04  2.58727951e-04
  5.58468474e-04 -1.10228133e-04  1.63391552e-05 -7.06078097e-04  2.70892726e-04
 -7.49400307e-05  7.28845662e-05  7.82624787e-05  3.18918690e-05 -1.55279348e-05
 -4.28096031e-05  2.63023965e-04 -5.86012816e-05 -4.66031921e-05 -2.92305863e-06
 -5.03439381e-05 -6.25473896e-05  8.30240818e-05  2.05854579e-05 -2.28610003e-05
 -1.63712127e-03  2.49361708e-03 -1.46017140e-03 -1.44333184e-03 -9.60791359e-05
 -4.81926912e-04 -4.66695677e-04  6.78350308e-05  3.29102066e-04 -1.68758871e-05
 -3.45138743e-05  6.54301441e-04  2.39787182e-04  1.08437011e-04 -1.18038745e-05
  3.31770974e-03 -4.59973547e-04  4.35606922e-03  7.47787448e-04  9.65247605e-05
  5.67179032e-05 -2.30340309e-03 -1.11209837e-03 -4.93578738e-04  7.91733757e-04
  1.31051341e-04 -5.76040681e-06 -1.04390415e-03 -2.15419210e-06  1.00627748e+00
  1.60506274e-02 -1.97513317e-02 -5.43389971e-04  2.34638667e-04  3.77619656e-05
 -2.15057179e-03  3.56079813e-03  6.21929634e-05 -1.08982706e-03 -4.00433336e-06
 -3.80656153e-05 -5.12874687e-04 -2.14294256e-04  1.29214571e-02 -1.30066587e-03
  4.64893294e-03 -7.81900681e-04 -1.10346831e-03  7.75016340e-05  2.66529000e-03
  2.30401471e-03 -2.24908955e-04  8.89628872e-04  7.27852037e-05  1.13725360e-04
  5.74765808e-04 -9.76668777e-04 -2.60406809e-04 -5.10447717e-04  1.02769131e-03
 -4.13480293e-05 -2.07261117e-04  1.10643310e-05 -1.63216439e-04  1.03631816e-03
  2.03611815e-05 -3.42538509e-04 -7.53959197e-06 -9.35663089e-06  1.92696956e-04
 -1.01142262e-04 -3.27851031e-05 -7.23873613e-05 -2.53597302e-04  1.24792395e-04
 -3.16641132e-06  1.76921518e-05 -4.27949743e-05 -2.55204628e-04 -1.16538367e-06
  1.09490023e-05 -1.42994430e-05  4.13562198e-06 -1.22149353e-05  1.34026477e-05
 -4.30866599e-04  1.20835954e-04 -2.48835958e-05  3.91126668e-05  7.78691883e-05
 -3.52590407e-04  2.95603735e-04  7.38395827e-05  8.27567282e-05  6.37874531e-05
 -4.73871240e-04  1.20087843e-03 -1.34070494e-04  1.69988588e-05  2.02273548e-05
 -1.98586124e-05  4.18811444e-04  5.39777235e-05 -5.23056637e-05 -7.46380238e-06
  9.42155931e-05  9.23527116e-04  1.21007361e-04 -2.30151291e-04  1.55125059e-05
 -2.31996975e-03  1.20837143e-03 -1.20346119e-03  1.77131942e-03  1.26383609e-05
  1.66751893e-03  3.93951602e-04 -5.15173301e-07 -8.40111397e-05 -1.11061923e-04
  7.90417889e-05  7.11765735e-04 -1.96029340e-04 -1.21400691e-04  3.13788731e-04
  7.72979937e-05 -2.47205876e-05 -8.61565788e-05  2.22990100e-04  1.44477318e-02
  1.79698638e-03 -6.82606872e-03 -6.08320992e-04 -1.20963156e-03  6.62974480e-05
  5.97904773e-04  4.19596523e-03 -1.37935512e-04 -9.31489250e-04 -4.57138095e-05
 -9.72033138e-05 -5.10227182e-04  1.03248553e-03 -1.00648358e+00 -1.65445343e-02
  2.15683064e-02  3.28726145e-04 -3.08327730e-04  3.18318571e-05  5.58214628e-03
  3.61781418e-04 -1.76044859e-04  1.08475976e-03  8.01718103e-05  6.78809503e-05
 -3.85401580e-04 -3.86460010e-04  1.93418316e-03  8.05892370e-04 -5.78983328e-03
 -2.52189560e-04  7.42774963e-04 -1.66573177e-07 -6.83213515e-04 -3.50154445e-03
  4.78184721e-05 -6.88605105e-04 -3.20566907e-05 -6.48880297e-05 -6.39607298e-04
 -1.18444261e-03 -4.51317786e-05 -7.81181791e-05  9.36614263e-04 -2.87468169e-05
  7.49549362e-05  2.20244831e-05  9.19428283e-05  5.95363995e-04 -4.75952950e-05
  1.31610100e-04 -3.30519562e-05 -1.65158906e-05 -7.15024198e-05 -2.17281698e-04
  1.67155374e-04 -3.92146492e-04 -2.60154874e-05 -3.97634058e-05  5.74702188e-05
 -4.87310722e-05 -2.03779759e-04 -3.53216569e-05  6.95105884e-05  1.41515015e-05
 -5.04457086e-05 -1.26171637e-04 -5.08190121e-05 -6.02334478e-05  1.39321873e-04
  2.47034761e-04 -9.99290868e-04 -7.31040348e-05  2.05190465e-04 -2.27585135e-05
  2.45273228e-03 -7.76998090e-04  2.14031241e-03 -1.73281987e-04 -4.45068967e-05
 -9.51377832e-05 -1.01015474e-03 -2.60401116e-04  2.67178992e-05  1.31306506e-05
  1.00698460e+00  1.74233836e-02 -1.94688749e-02  4.52148328e-04  1.26046014e-04
  1.28136384e-04  2.94938488e-03  1.99406121e-04 -5.72798190e-04  2.04367699e-04
  2.26033246e-05 -4.95404159e-05 -6.02465983e-04 -1.51344635e-04 -3.56827744e-03
 -3.06476779e-04  1.86989410e-03 -4.95055153e-04  5.82103332e-05  2.51302904e-05
  4.53061336e-03  2.33151336e-03 -1.69326026e-04  6.14374085e-04  1.28429743e-04
  2.22175974e-05 -1.33710828e-03 -5.78395945e-04  1.10644521e-03 -5.28961581e-04
  3.45462265e-03 -1.89928050e-04  9.30106666e-05  1.09821218e-05  8.99477233e-04
  2.65583706e-03 -1.63930193e-04 -3.43646837e-04  7.35974141e-06 -2.42882735e-05
 -5.65101875e-04 -2.03815130e-04 -1.02584523e-04 -4.59027185e-04  6.58975570e-04
 -3.32314919e-05 -2.72723190e-04 -8.48044758e-06 -1.11567458e-04  5.27252188e-04
  3.92116456e-05 -1.50263934e-05 -2.25477737e-05  3.70689794e-06  4.04994058e-05
  3.71758737e-05 -7.28908533e-05 -1.45473890e-04  1.64053404e-04  8.41009521e-06
 -1.16329634e-04 -1.01768748e-05 -1.09173153e-04  2.26578270e-04  4.09793737e-05
 -4.36039336e-05  1.55759786e-06  1.53721058e-06  1.37994031e-06 -6.46725185e-07
 -1.25522407e-03  1.92218850e-03  7.05625815e-04 -1.45377151e-03 -1.00580396e-03
 -1.35350522e-03  1.92432160e-03  4.37909319e-04  1.80972197e-03 -7.54449120e-04
 -1.06501666e-03  2.33750656e-03  5.50422616e-04 -9.67269159e-05  1.80472605e-03
  1.56930040e-05  3.86382808e-04  5.89654370e-06  6.92808109e-05 -7.53233876e-06
  5.56588904e-05  3.60134189e-04  9.75897631e-05 -2.05173614e-04  9.87623946e-06
 -4.33228900e-04  2.48671687e-04 -3.66650701e-04 -1.12642739e-04  2.05856411e-05
 -4.85475026e-04  6.37761112e-03  5.65248342e-03 -3.05368972e-03 -3.06193334e-03
 -2.61144301e-05 -3.04159609e-03 -2.59726601e-03  1.00773522e-03 -6.16025549e-04
 -2.03188124e-04 -2.26293142e-04  1.77860089e-04  9.23306645e-04  5.92416572e-04
  1.65837522e-02 -1.32569724e-02 -1.73317669e-04 -1.05756216e-02  5.64372147e-04
 -2.11559167e-03  1.00553494e-02 -5.83166983e-04 -4.53417578e-04 -1.16945738e-04
 -2.60479218e-04 -1.67126415e-03  7.34810008e-04 -3.62421669e-03  3.67841071e-02
  3.28113509e-02  2.08464145e-02 -2.05647123e-02  9.30362148e-04  2.01926932e-02
  1.46428227e-03 -1.51284424e-04 -3.79313268e-03  2.39027761e-04 -5.84552200e-04
 -1.07331989e-03 -9.02889077e-03 -1.45621633e-02  2.24874985e-01  9.45091267e-02
  1.84373163e-01 -2.55392203e-02  1.22109805e-02  1.19909899e-02 -3.11123337e-03
  1.08864854e-03 -1.34638163e-02  3.49526481e-03 -1.03936060e-03  3.10265351e-02
 -1.40213058e-02 -9.12272803e-03  4.02260754e-01  3.60300572e-01 -1.55040270e-01
  3.17409819e-02 -1.07331872e-02 -3.16349880e-02  7.21870492e-03 -2.60004566e-03
 -5.22292616e-03  1.39634788e-03 -5.01501563e-04  1.20948812e-02 -5.13409459e-03
  4.94811486e-03  2.92426307e-03 -6.41436265e-04 -4.85482701e-04  5.88045640e-04
  9.81918211e-04  6.43667847e-05  2.69441559e-05  1.34136741e-05 -4.12506366e-05
  1.82310411e-03  8.42175606e-04 -2.66508086e-04 -1.91009582e-04 -4.41186271e-04
  3.92231257e-02 -3.65758942e-03  1.01712641e-02  5.85206948e-03  6.71751731e-04
  7.19510531e-03  6.04935951e-03  9.54712692e-04 -1.95642668e-03 -1.48764530e-05
  1.80008759e-03 -3.26976301e-03 -2.27764999e-04 -8.33150001e-04  6.78898231e-05
  1.10014152e-02 -1.81566707e-01 -7.51166354e-02  6.55027156e-02  1.30591170e-02
 -4.90638065e-03  3.00937763e-03 -8.53648767e-03  1.04156486e-03  5.60187532e-03
  8.59176402e-04  4.19594629e-05 -9.78431284e-03 -3.63372434e-03  1.97469445e-02
 -2.91543109e-01 -2.01521957e-01 -6.41448101e-04  6.57079384e-02 -2.56735194e-03
 -3.25032848e-02  2.08874182e-02  1.48791283e-04  9.98816001e-03  8.65201474e-04
  8.60972891e-04 -2.74736224e-03 -1.13844832e-02  1.70508154e-02 -2.53978398e-01
 -1.41990566e-01 -5.82020948e-02 -5.75278563e-02  4.55319653e-03 -3.09986490e-03
 -2.39758855e-02  1.16163333e-03  6.92461501e-03  6.45652801e-04  8.78134722e-04
  8.69500865e-03 -9.16970202e-03  2.43935464e-03 -6.37698991e-02 -5.14797411e-02
  6.90063793e-02 -8.01939920e-02  5.29698552e-03  2.51031196e-02 -2.23427297e-02
  1.41042545e-03  2.64205522e-03  6.60471224e-04  3.21631713e-04  1.35557568e-02
  2.67281885e-03 -3.31180578e-04  7.51937330e-02  7.16135313e-02 -1.13597375e-02
 -1.62866486e-02 -2.15456576e-04  1.65678730e-03 -6.74355896e-03  5.72312066e-04
  1.84611967e-04  6.35896042e-05  1.79066220e-04  1.60207234e-03  1.59230861e-03
 -6.73338861e-02 -3.38215172e-03  5.13536804e-03 -7.27236138e-03 -5.30044878e-03
 -6.30996394e-02 -1.47403248e-03  4.08266677e-03  8.78758953e-03 -3.69568406e-03
 -6.76769332e-02 -3.62551840e-03  4.69020108e-03  2.74749358e-04  9.04042789e-03
 -1.80042894e-02  1.00327607e-03  2.59090367e-05 -3.37006717e-03  3.57333163e-05
 -8.44119498e-02 -2.52550874e-03 -1.43808855e-02 -1.43441498e-03  4.65169721e-04
 -1.02027935e-01 -1.28218454e-02 -7.10660296e-03  1.42665155e-02 -9.39262510e-06
  1.40049687e-02 -2.87242954e-01 -1.19374140e-01  1.90709744e-02 -1.05905175e-02
 -4.85170429e-03 -1.76054753e-02 -8.62643098e-03  5.39533962e-04  1.43796712e-03
  2.03643569e-04 -1.86105933e-04 -3.07593205e-03  2.21521841e-03  5.25300045e-03
 -4.75742867e-02 -8.43061957e-02 -1.39193504e-01 -9.50757393e-02  7.08423179e-03
 -9.39974587e-02 -9.12857339e-03  3.00644756e-03  3.84892785e-03  5.75175336e-04
 -3.84521609e-04 -1.71034455e-02  3.11123517e-03 -1.39795784e-02  2.28627106e-01
  1.66740831e-01 -5.67429881e-03 -5.40011028e-02  1.05857010e-03  3.64767402e-02
 -4.06217057e-02  1.29149877e-04 -4.83208459e-03  1.48433474e-04 -3.38511505e-04
 -1.00182540e-02 -4.86736803e-03 -3.03200446e-03  1.51370629e-01  6.14141360e-02
 -1.06565223e-01  7.89271201e-02 -5.44752411e-03 -3.73374034e-02  7.78114350e-03
 -1.77601969e-03 -1.67116440e-03 -5.55620724e-04 -1.23658567e-04 -1.01907166e-02
 -5.10715680e-03 -2.80369497e-04 -8.42908849e-02 -8.34832165e-02 -1.81979340e-02
  1.00989993e-02  3.54139509e-04 -2.04463359e-02  3.51198582e-03 -7.17304803e-04
 -9.63071956e-04  1.49759816e-04  5.80578249e-05  8.83425153e-04 -2.03935989e-03
 -1.22092003e-01 -1.68272459e-02  7.37004602e-03 -1.25073087e-02 -8.49989327e-03
 -1.34804606e-01 -1.60058148e-02  4.61591662e-03  1.60168619e-02 -7.19852240e-03
 -1.30138614e-01 -1.60519713e-02  6.46938566e-03 -1.38285676e-03  1.61109511e-02
  6.99143329e-02  2.43748495e-03  3.50554741e-03  8.55289025e-03  3.02625873e-04
  1.15299042e-01  2.33899832e-02  1.46229750e-02 -1.44991607e-03 -3.19683027e-04
 -2.92801279e-02 -1.63552411e-02 -4.15456494e-03  8.28794011e-04  2.43910977e-04
  5.30807081e-03 -1.74867259e-01 -9.60374035e-02 -7.44700927e-02 -6.82359507e-03
 -1.68290986e-03 -3.82445693e-02 -6.71838919e-03  6.67034062e-03 -4.89731059e-03
 -8.86103344e-04 -1.88484331e-04  7.29620314e-03  1.03015192e-03 -5.22050332e-03
  2.09144571e-01  9.85327056e-02 -1.38540661e-01 -1.53513495e-02  5.69579307e-03
 -4.13850146e-02 -9.97880586e-04 -6.99314188e-05  2.51509722e-03 -2.10872476e-04
 -2.69643799e-04 -4.94667116e-03  2.91253460e-03 -1.31057456e-03 -1.60219518e-03
  9.60930234e-03  1.50410665e-02  2.48899014e-01 -7.60024322e-03  8.08851120e-03
  7.63954750e-02 -1.45862313e-03  4.82444948e-04 -1.75273508e-04 -6.92995212e-04
  2.01241674e-03  1.12468386e-02  2.29590990e-03 -2.37927772e-01 -1.55232526e-01
  1.56062854e-01 -2.89825206e-02  9.03808887e-03  4.87086990e-02 -1.85587283e-02
  3.17916355e-03 -1.08343099e-03  8.99065545e-04 -2.12107823e-05  6.08030678e-03
  2.05577153e-03  9.49766904e-04  1.23533740e-01  1.44339674e-01  5.39946384e-02
 -9.51388998e-03  3.85038721e-03  4.06207778e-02 -6.01397324e-03  3.13484507e-03
  2.56208481e-03 -4.01590353e-04  1.28081451e-04 -2.41559304e-03  7.84244518e-04
 -1.01513813e-01 -8.45553414e-03  3.77306249e-03 -9.71058092e-03 -6.00385924e-03
 -1.01315648e-01 -1.58288181e-02  1.00569766e-03  1.03586713e-02 -4.91460639e-03
 -1.05140925e-01 -2.01989725e-02  3.28986424e-03 -6.91859232e-04  1.10709012e-02
 -1.60051879e-01 -2.82451082e-02 -8.39558338e-03 -1.42772260e-02 -6.54084156e-04
 -5.98124101e-03 -3.08100016e-04 -2.34531365e-04  5.05677888e-03 -1.61137369e-04
  1.45003701e-01  2.50895670e-02  6.55648415e-03 -1.47258649e-02  1.95443513e-04
  1.67981032e-03 -5.10698142e-02 -3.82137008e-02 -1.26046449e-01  8.37994028e-02
  5.81149688e-04 -3.80864139e-02  3.48470790e-02 -1.80587599e-03 -5.53746001e-03
 -5.07892961e-04 -1.59029218e-03  9.98878623e-03 -5.62951936e-03 -2.01476158e-03
  1.43349559e-01  9.42485814e-02  2.03269410e-03  2.23444693e-01 -7.78574999e-03
  2.46547884e-02  7.21270105e-02 -3.26687124e-03  4.27056725e-03  5.27962317e-04
  5.15933936e-04 -9.40155731e-05 -7.04556965e-03  2.66130116e-03 -1.53540054e-01
 -1.02082550e-01 -1.68423778e-02  2.13864523e-03 -2.18008788e-03 -1.71312615e-02
  3.20017626e-02 -1.74635759e-03 -4.31287390e-03  8.74042823e-05 -3.22371933e-04
 -1.34064785e-02  1.73236370e-03  5.83131200e-04  1.57985836e-01  1.20683928e-01
 -6.51144908e-02 -2.36517232e-01 -3.63602694e-03 -4.93101714e-02 -5.41619806e-02
 -2.64969216e-03  5.30456606e-03 -9.54382026e-05  6.72793196e-05  2.36667879e-05
  1.47013167e-03  2.00457188e-04 -8.66578211e-02 -1.19588124e-01 -1.39383914e-01
 -1.08091113e-01 -5.99645205e-03 -8.29485367e-02 -5.92999668e-02 -3.33213721e-03
 -3.54468600e-03  1.02423925e-03  7.23170650e-04  8.81490869e-03  6.72149909e-03
 -1.14065241e-01 -3.56556158e-02  2.00809447e-03 -5.28050404e-03 -6.34428419e-03
 -7.15750340e-04 -5.16345690e-03 -3.63487053e-03  2.45987290e-03 -1.05820428e-05
 -6.45456338e-02 -2.03147059e-02 -7.83990618e-04  2.32776056e-03  6.10333457e-03
  2.28786810e-01  5.99568841e-02  1.19765870e-02  1.26734936e-02  9.85698385e-04
 -8.33653313e-02 -2.94597601e-02 -8.66658896e-03 -5.03403325e-04  1.88257586e-04
  2.16102885e-01  6.32806570e-02  1.07611993e-02 -1.21378493e-02 -2.23507300e-04
  3.09507297e-03 -4.50180810e-02 -5.27794680e-02 -1.43823499e-01 -1.00067029e-01
  5.40848637e-03 -3.09269062e-02 -4.00151700e-02 -4.33293718e-03 -5.11805065e-03
 -1.31746669e-03  1.94515897e-03  7.54892344e-03  4.80270635e-03  8.60580274e-04
  8.91147039e-02  5.36789054e-02  1.40980006e-01 -1.11328572e-01 -1.87426989e-03
  9.15489064e-02 -2.57008970e-02 -1.26626678e-03  1.93529102e-03  8.29979294e-04
  2.90447039e-04 -9.69012453e-03 -1.04126440e-02  5.41124479e-03 -7.08598491e-02