[Molden Format]
[Atoms] (AU)
C    1    6           1.9586571197         2.6275014759        -0.1969407867
C    2    6          -0.8548430462         2.3957189322        -0.1477939613
C    3    6          -2.0997843375         0.1885096147         0.1632476646
C    4    6          -0.8611127984        -2.3006248821         0.0743408692
O    5    8           1.4099393855        -2.7003829891         0.1232512521
H    6    1           2.7712198894         0.9861582690        -1.1997557971
H    7    1           2.6438205823         4.4247608643        -0.9728049618
H    8    1           2.6687150973         2.4279180512         1.7472521022
H    9    1          -2.2022935706        -3.9130052394        -0.1718231896
H   10    1          -4.1623048845         0.1490923654         0.2965293301
H   11    1          -1.9839484535         4.1200831557        -0.3797126788
[GTO]
  1 0
 s    8  1.00
     6665.0000000000         0.0006920000
     1000.0000000000         0.0053290000
      228.0000000000         0.0270770000
       64.7100000000         0.1017180000
       21.0600000000         0.2747400000
        7.4950000000         0.4485640000
        2.7970000000         0.2850740000
        0.5215000000         0.0152040000
 s    8  1.00
     6665.0000000000        -0.0001460000
     1000.0000000000        -0.0011540000
      228.0000000000        -0.0057250000
       64.7100000000        -0.0233120000
       21.0600000000        -0.0639550000
        7.4950000000        -0.1499810000
        2.7970000000        -0.1272620000
        0.5215000000         0.5445290000
 s    1  1.00
        0.1596000000         1.0000000000
 p    3  1.00
        9.4390000000         0.0381090000
        2.0020000000         0.2094800000
        0.5456000000         0.5085570000
 p    1  1.00
        0.1517000000         1.0000000000
 d    1  1.00
        0.5500000000         1.0000000000

  2 0
 s    8  1.00
     6665.0000000000         0.0006920000
     1000.0000000000         0.0053290000
      228.0000000000         0.0270770000
       64.7100000000         0.1017180000
       21.0600000000         0.2747400000
        7.4950000000         0.4485640000
        2.7970000000         0.2850740000
        0.5215000000         0.0152040000
 s    8  1.00
     6665.0000000000        -0.0001460000
     1000.0000000000        -0.0011540000
      228.0000000000        -0.0057250000
       64.7100000000        -0.0233120000
       21.0600000000        -0.0639550000
        7.4950000000        -0.1499810000
        2.7970000000        -0.1272620000
        0.5215000000         0.5445290000
 s    1  1.00
        0.1596000000         1.0000000000
 p    3  1.00
        9.4390000000         0.0381090000
        2.0020000000         0.2094800000
        0.5456000000         0.5085570000
 p    1  1.00
        0.1517000000         1.0000000000
 d    1  1.00
        0.5500000000         1.0000000000

  3 0
 s    8  1.00
     6665.0000000000         0.0006920000
     1000.0000000000         0.0053290000
      228.0000000000         0.0270770000
       64.7100000000         0.1017180000
       21.0600000000         0.2747400000
        7.4950000000         0.4485640000
        2.7970000000         0.2850740000
        0.5215000000         0.0152040000
 s    8  1.00
     6665.0000000000        -0.0001460000
     1000.0000000000        -0.0011540000
      228.0000000000        -0.0057250000
       64.7100000000        -0.0233120000
       21.0600000000        -0.0639550000
        7.4950000000        -0.1499810000
        2.7970000000        -0.1272620000
        0.5215000000         0.5445290000
 s    1  1.00
        0.1596000000         1.0000000000
 p    3  1.00
        9.4390000000         0.0381090000
        2.0020000000         0.2094800000
        0.5456000000         0.5085570000
 p    1  1.00
        0.1517000000         1.0000000000
 d    1  1.00
        0.5500000000         1.0000000000

  4 0
 s    8  1.00
     6665.0000000000         0.0006920000
     1000.0000000000         0.0053290000
      228.0000000000         0.0270770000
       64.7100000000         0.1017180000
       21.0600000000         0.2747400000
        7.4950000000         0.4485640000
        2.7970000000         0.2850740000
        0.5215000000         0.0152040000
 s    8  1.00
     6665.0000000000        -0.0001460000
     1000.0000000000        -0.0011540000
      228.0000000000        -0.0057250000
       64.7100000000        -0.0233120000
       21.0600000000        -0.0639550000
        7.4950000000        -0.1499810000
        2.7970000000        -0.1272620000
        0.5215000000         0.5445290000
 s    1  1.00
        0.1596000000         1.0000000000
 p    3  1.00
        9.4390000000         0.0381090000
        2.0020000000         0.2094800000
        0.5456000000         0.5085570000
 p    1  1.00
        0.1517000000         1.0000000000
 d    1  1.00
        0.5500000000         1.0000000000

  5 0
 s    8  1.00
    11720.0000000000         0.0007100000
     1759.0000000000         0.0054700000
      400.8000000000         0.0278370000
      113.7000000000         0.1048000000
       37.0300000000         0.2830620000
       13.2700000000         0.4487190000
        5.0250000000         0.2709520000
        1.0130000000         0.0154580000
 s    8  1.00
    11720.0000000000        -0.0001600000
     1759.0000000000        -0.0012630000
      400.8000000000        -0.0062670000
      113.7000000000        -0.0257160000
       37.0300000000        -0.0709240000
       13.2700000000        -0.1654110000
        5.0250000000        -0.1169550000
        1.0130000000         0.5573680000
 s    1  1.00
        0.3023000000         1.0000000000
 p    3  1.00
       17.7000000000         0.0430180000
        3.8540000000         0.2289130000
        1.0460000000         0.5087280000
 p    1  1.00
        0.2753000000         1.0000000000
 d    1  1.00
        1.1850000000         1.0000000000

  6 0
 s    3  1.00
       13.0100000000         0.0196850000
        1.9620000000         0.1379770000
        0.4446000000         0.4781480000
 s    1  1.00
        0.1220000000         1.0000000000
 p    1  1.00
        0.7270000000         1.0000000000

  7 0
 s    3  1.00
       13.0100000000         0.0196850000
        1.9620000000         0.1379770000
        0.4446000000         0.4781480000
 s    1  1.00
        0.1220000000         1.0000000000
 p    1  1.00
        0.7270000000         1.0000000000

  8 0
 s    3  1.00
       13.0100000000         0.0196850000
        1.9620000000         0.1379770000
        0.4446000000         0.4781480000
 s    1  1.00
        0.1220000000         1.0000000000
 p    1  1.00
        0.7270000000         1.0000000000

  9 0
 s    3  1.00
       13.0100000000         0.0196850000
        1.9620000000         0.1379770000
        0.4446000000         0.4781480000
 s    1  1.00
        0.1220000000         1.0000000000
 p    1  1.00
        0.7270000000         1.0000000000

  10 0
 s    3  1.00
       13.0100000000         0.0196850000
        1.9620000000         0.1379770000
        0.4446000000         0.4781480000
 s    1  1.00
        0.1220000000         1.0000000000
 p    1  1.00
        0.7270000000         1.0000000000

  11 0
 s    3  1.00
       13.0100000000         0.0196850000
        1.9620000000         0.1379770000
        0.4446000000         0.4781480000
 s    1  1.00
        0.1220000000         1.0000000000
 p    1  1.00
        0.7270000000         1.0000000000

[5D7F]
[9G]

[MO]
 Sym= A
 Ene=        -1.9134945733e+01
 Spin= Alpha
 Occup=         2.0000000000e+00
  1        -6.9084943541e-05
  2        -1.4423129580e-04
  3         7.3563767051e-05
  4         6.5123028275e-05
  5         4.2488388862e-05
  6         1.0247597373e-05
  7        -4.0464618188e-05
  8        -1.4728591350e-04
  9         1.6216070241e-04
 10         7.4985036213e-05
 11         3.3096540871e-05
 12         3.5291443034e-05
 13         7.6427592491e-05
 14        -1.0042205971e-04
 15        -2.0337414923e-04
 16        -3.6299977045e-04
 17         5.3386174602e-03
 18        -2.2464881450e-05
 19        -1.8506343071e-05
 20        -5.8789439457e-05
 21        -9.4755769839e-04
 22        -2.2021432878e-03
 23         4.9173122488e-04
 24        -3.0402124734e-05
 25         3.0555305018e-05
 26        -2.0410979003e-05
 27        -4.9924457793e-05
 28        -5.1946654748e-05
 29         2.0365319830e-04
 30         3.1255579898e-04
 31        -3.8842654707e-03
 32         2.4213977271e-05
 33         2.7769904858e-04
 34        -1.1957252382e-05
 35        -4.4921267690e-03
 36        -3.5588318530e-03
 37         2.9466621968e-04
 38         1.2762629043e-04
 39         5.1041616844e-05
 40         8.8094725141e-05
 41        -3.9436915380e-04
 42         4.9756825766e-04
 43         4.5408845169e-04
 44         5.9610232461e-04
 45         5.3270209934e-03
 46        -9.6664285257e-05
 47        -1.7958300802e-04
 48        -3.2455735965e-05
 49         6.6159056082e-03
 50         5.6778173244e-04
 51         1.2867359069e-04
 52        -1.3330372764e-05
 53         1.1209088097e-05
 54         8.9706073158e-05
 55        -1.1601782300e-03
 56         5.1117787858e-04
 57         1.0041672523e+00
 58         9.4674738555e-03
 59        -1.5089016009e-02
 60        -1.8370540300e-03
 61         3.5497305159e-04
 62        -5.8427709375e-05
 63         3.5056717850e-03
 64        -8.3102766508e-04
 65         9.5131478855e-05
 66        -1.8868113540e-05
 67         1.9778425747e-06
 68        -3.4404006834e-06
 69         6.7611846115e-05
 70         9.7195122548e-06
 71        -1.1600799374e-04
 72        -1.1593560227e-04
 73         3.3110925347e-05
 74        -2.0269355347e-05
 75         2.9650050761e-05
 76         1.2215302605e-04
 77         3.5648338658e-04
 78        -7.4308321780e-05
 79        -6.8799760465e-05
 80         4.3837331814e-05
 81        -1.0754153262e-04
 82        -2.4637135334e-04
 83         6.8137596234e-05
 84         6.3034361844e-05
 85         5.8229352991e-05
 86        -1.5592756835e-04
 87         9.1007161111e-04
 88        -7.6738391967e-04
 89         1.1134557766e-04
 90        -3.4033302053e-06
 91        -2.8142445776e-04
 92        -1.3160221027e-03
 93         1.8439609787e-04
 94         2.5004533488e-04
 95        -3.7263531960e-07
 96        -1.7976576394e-04
 97         2.2675414807e-04
 98         4.2332187538e-05
 99         8.1253304541e-05
100        -2.8682593298e-05
 Sym= A
 Ene=        -1.0272398555e+01
 Spin= Alpha
 Occup=         2.0000000000e+00
  1        -3.6999096452e-04
  2        -4.8973220599e-04
  3         8.9083731981e-04
  4         2.8800711721e-04
  5         7.1417140837e-05
  6         9.3169675885e-07
  7        -6.2160555209e-04
  8         6.0092964663e-05
  9         1.7671157131e-05
 10        -1.6804469444e-05
 11        -6.9588189409e-05
 12         1.7396731129e-06
 13        -1.1568876372e-04
 14        -4.1468679289e-05
 15        -4.3146553830e-04
 16        -6.3212825532e-04
 17         6.5024030196e-03
 18        -2.7137537214e-04
 19        -2.5553791722e-05
 20         4.9907142199e-05
 21        -2.1140992027e-03
 22        -3.8098836893e-03
 23         6.0583563658e-04
 24        -3.9739533581e-04
 25        -1.9221169526e-04
 26        -9.6551060534e-05
 27         2.9117206794e-04
 28         3.5756226248e-04
 29         1.6614158172e-03
 30        -2.5851059691e-04
 31        -1.9332644338e-03
 32        -3.5180841122e-04
 33         7.6760963477e-04
 34         4.5425778100e-05
 35        -2.5963437128e-03
 36        -5.9703581894e-03
 37         4.1432136835e-04
 38         1.0435908910e-03
 39         3.2669139628e-06
 40        -1.6965152056e-05
 41         1.1195165538e-03
 42         8.6158103103e-04
 43         1.0059467788e+00
 44         1.5298240861e-02
 45        -1.0727808614e-02
 46         7.2094979491e-04
 47        -4.8905910762e-04
 48        -9.8862794058e-05
 49         5.4202731540e-03
 50        -2.0519394659e-03
 51         1.4622408299e-05
 52        -1.6396472748e-03
 53         2.1921951928e-04
 54         1.9601148217e-04
 55         8.4333511502e-04
 56         9.2520224059e-06
 57         3.6749974315e-04
 58         9.1004305247e-04
 59        -5.9339667044e-03
 60         7.4342027612e-04
 61        -2.0962563178e-04
 62         1.6700367064e-06
 63         3.4052005651e-03
 64        -2.0563029811e-04
 65         9.5849719444e-05
 66         5.6897655600e-04
 67        -2.7700881810e-05
 68        -1.8542502377e-05
 69        -7.2678194333e-04
 70         2.5457363844e-04
 71        -1.1210962539e-04
 72        -6.3132966100e-05
 73         2.7328303885e-05
 74         2.4853451431e-06
 75        -1.3905241733e-05
 76        -5.1890404149e-05
 77         3.5613592732e-04
 78        -5.2836339266e-05
 79        -2.6383878463e-05
 80         8.9600749956e-06
 81        -6.2911001707e-05
 82        -8.0042884629e-06
 83         1.0491803929e-04
 84         5.2436431395e-05
 85        -4.4938410894e-05
 86        -1.6939502669e-03
 87         2.4828678714e-03
 88        -1.4351361320e-03
 89        -1.4616994655e-03
 90        -2.3066005027e-04
 91        -5.2865940283e-04
 92        -4.9539838292e-04
 93         4.9670660922e-05
 94         2.8145310139e-04
 95        -3.1116060252e-05
 96        -2.8378220979e-05
 97         6.1544368896e-04
 98         2.2528437790e-04
 99         1.0308656543e-04
100        -3.3283685876e-05
 Sym= A
 Ene=        -1.0223527931e+01
 Spin= Alpha
 Occup=         2.0000000000e+00
  1         3.1006553756e-03
  2        -4.0320036708e-04
  3         4.3690670750e-03
  4         7.2306668141e-04
  5         4.4041662694e-05
  6         6.0426406369e-05
  7        -2.4222306454e-03
  8        -8.4020767685e-04
  9        -3.3997053652e-04
 10         7.8851663820e-04
 11         7.7119785303e-05
 12         3.0146294066e-05
 13        -9.8274894735e-04
 14        -5.7915915851e-05
 15         1.0063429928e+00
 16         1.6162509481e-02
 17        -2.0245943803e-02
 18        -5.1562182366e-04
 19         1.8711993220e-04
 20        -1.5625545160e-05
 21        -2.2809427562e-03
 22         3.9072409808e-03
 23        -4.7510592426e-04
 24        -1.0385332992e-03
 25         1.0929662574e-04
 26        -3.2210346489e-04
 27        -5.4880481398e-04
 28        -4.1834535384e-04
 29         1.2433471096e-02
 30        -1.2382255054e-03
 31         4.8459790023e-03
 32        -7.1997096137e-04
 33        -1.0774720688e-03
 34         1.6382735088e-04
 35         2.7226122253e-03
 36         2.6579893169e-03
 37        -2.9129236460e-04
 38         8.7044050001e-04
 39         1.3840107678e-04
 40         3.0128516485e-04
 41         5.0901947635e-04
 42        -9.6797199153e-04
 43        -2.7873557015e-04
 44        -5.5733386129e-04
 45         1.1573604588e-03
 46        -2.1266458426e-05
 47        -2.0866082953e-04
 48         3.9692604836e-05
 49        -4.5093118669e-04
 50         1.0515353821e-03
 51        -6.0549506172e-05
 52        -3.2775843566e-04
 53        -9.8202036605e-05
 54        -1.1805841819e-05
 55         1.6506174557e-04
 56        -1.0574854843e-05
 57        -3.4175300203e-05
 58        -7.2336242643e-05
 59        -1.1751729767e-04
 60         1.2145345677e-04
 61         1.4112062157e-05
 62         1.6891802282e-05
 63        -1.2273773626e-04
 64        -3.3621594235e-04
 65         2.9540136538e-05
 66         1.1273826423e-05
 67        -2.6227268030e-05
 68         3.4556587683e-06
 69         3.4769023007e-06
 70         2.4247963541e-05
 71        -4.2751360686e-04
 72         4.0853222974e-04
 73        -1.3030466481e-04
 74        -9.7316407790e-06
 75         5.0975362891e-05
 76        -2.7260935455e-04
 77         2.1176059576e-04
 78         1.4563748830e-04
 79         1.8733066103e-05
 80         7.4648921279e-05
 81        -4.7349953923e-04
 82         1.1607155251e-03
 83        -1.9218599292e-04
 84         5.2811490772e-06
 85         2.4310262222e-05
 86        -8.6057415510e-05
 87         3.3191510831e-04
 88         4.5955944375e-05
 89        -7.2390613960e-05
 90        -1.5428742676e-05
 91         1.6810934541e-04
 92         9.4988441911e-04
 93         1.5917723237e-04
 94        -2.6280487785e-04
 95        -6.7382616162e-07
 96        -2.4499543644e-03
 97         1.0949639874e-03
 98        -1.2439628668e-03
 99         1.7960031469e-03
100        -2.3719303079e-04
 Sym= A
 Ene=        -1.0197018486e+01
 Spin= Alpha
 Occup=         2.0000000000e+00
  1         1.2312243400e-03
  2         4.7828623739e-04
  3        -2.6778674254e-04
  4        -1.0751129344e-04
  5        -1.3670761250e-04
  6         1.0558336765e-04
  7         8.9052809347e-04
  8         7.3541759110e-05
  9        -2.8169070374e-04
 10         3.0196477798e-04
 11         2.4548212098e-05
 12         6.0673244748e-05
 13        -4.8153724402e-05
 14         1.2529453555e-04
 15         1.3892386447e-02
 16         1.7318972791e-03
 17        -6.1956832925e-03
 18        -5.9286923822e-04
 19        -1.2136919648e-03
 20         1.7634635646e-04
 21         7.0915701606e-04
 22         3.7401459850e-03
 23        -1.9344552141e-04
 24        -9.1403479104e-04
 25        -1.8980264701e-04
 26        -3.2081952830e-04
 27        -6.0595583336e-04
 28         9.2735641115e-04
 29        -1.0065052125e+00
 30        -1.6586751140e-02
 31         2.1164750557e-02
 32         3.3021085923e-04
 33        -2.4462794259e-04
 34         1.6005923550e-04
 35         5.2904377477e-03
 36         2.9331225731e-04
 37        -9.2111133482e-04
 38         1.0955355636e-03
 39         1.8495554215e-04
 40         1.1724811697e-04
 41        -4.3757284181e-04
 42        -5.0010682137e-04
 43         1.9825901466e-03
 44         7.8359771463e-04
 45        -5.6881316665e-03
 46        -2.6578948345e-04
 47         7.1600048857e-04
 48         5.3865225958e-05
 49        -3.5550774727e-04
 50        -3.4364159370e-03
 51         4.9734052077e-05
 52        -7.0343491872e-04
 53        -1.6358665216e-04
 54         6.8875471974e-05
 55        -5.6123690731e-04
 56        -1.2176592967e-03
 57        -3.6930640237e-05
 58        -6.4023353347e-05
 59         7.4806299431e-04
 60        -1.7041484912e-05
 61         6.3623086288e-05
 62         4.0898867938e-05
 63         1.3469855155e-04
 64         6.2931512941e-04
 65        -5.3245859648e-05
 66         1.2866199637e-04
 67        -4.1622096149e-05
 68        -1.2293737837e-05
 69        -8.0506828819e-05
 70        -2.1922314726e-04
 71         1.3711568439e-04
 72        -3.2550452195e-04
 73        -1.8886792390e-05
 74        -7.4766092295e-05
 75         5.2906656982e-05
 76        -3.7337660721e-05
 77        -3.5438022715e-04
 78        -4.5453884027e-05
 79         4.9388347406e-05
 80         2.8428562923e-05
 81         7.7666840915e-05
 82        -1.9617649596e-04
 83        -4.1775401545e-05
 84        -8.4258732272e-05
 85         1.3427258422e-04
 86         2.8953897977e-04
 87        -9.6626008773e-04
 88        -7.0773220424e-05
 89         1.9391842100e-04
 90        -3.4545609663e-05
 91         2.4997840697e-03
 92        -8.3457998323e-04
 93         2.1845003298e-03
 94        -9.3795103168e-05
 95        -7.5050387522e-05
 96        -1.0685329172e-04
 97        -8.5206692580e-04
 98        -2.9056714100e-04
 99         3.7122943165e-05
100        -4.0972377749e-05
 Sym= A
 Ene=        -1.0189256117e+01
 Spin= Alpha
 Occup=         2.0000000000e+00
  1         1.0070229719e+00
  2         1.7507418841e-02
  3        -1.9309022755e-02
  4         4.0586756912e-04
  5         2.8016682219e-05
  6         2.2233694799e-04
  7         2.8909199571e-03
  8         4.9711000566e-04
  9        -5.1425073097e-04
 10         1.9547972158e-04
 11         7.3787130943e-06
 12        -1.6501357734e-04
 13        -6.5179117403e-04
 14         8.3636251258e-05
 15        -3.2886147527e-03
 16        -2.5947530968e-04
 17         1.5825070514e-03
 18        -4.9084147424e-04
 19         5.1599308943e-05
 20         3.6061757863e-07
 21         4.1635201025e-03
 22         2.3794719455e-03
 23        -3.0082809196e-04
 24         6.4081006075e-04
 25         1.0081630121e-04
 26        -1.0289408255e-05
 27        -1.3277380944e-03
 28        -3.9761060350e-04
 29         5.5150699394e-04
 30        -6.6103134747e-04
 31         3.6890135949e-03
 32        -2.3683941199e-04
 33         3.6279025399e-05
 34        -3.4141037329e-06
 35         1.2306011359e-03
 36         2.5923474484e-03
 37        -3.7867194651e-04
 38        -3.7102927783e-04
 39         2.7673485728e-05
 40        -1.0855027493e-04
 41        -4.1999769563e-04
 42        -2.1386543514e-04
 43        -1.2684965000e-04
 44        -5.0633925607e-04
 45         3.5858573590e-04
 46        -7.2459172794e-05
 47        -2.6969153738e-04
 48        -3.9997626905e-05
 49        -2.2269822216e-04
 50         4.7549101734e-04
 51         1.3025133646e-04
 52        -3.6054619419e-05
 53        -2.9260156628e-05
 54        -2.9162096577e-05
 55         3.1549150415e-05
 56         5.1373332754e-05
 57        -1.0356572479e-04
 58        -2.0085374786e-04
 59         3.5337151755e-04
 60         3.1078434682e-05
 61        -1.1191581522e-04
 62        -2.2914990612e-05
 63        -2.5164178390e-04
 64         2.4515975346e-04
 65         6.6248858294e-05
 66        -5.6895941752e-05
 67         5.3066576625e-07
 68         6.5713836579e-06
 69         1.6267256373e-06
 70        -1.7548207949e-06
 71        -1.0560685076e-03
 72         2.0818984612e-03
 73         5.9282367645e-04
 74        -1.4726546281e-03
 75        -9.1692246940e-04
 76        -1.5301615341e-03
 77         1.7476804059e-03
 78         6.1312786940e-04
 79         1.8095466195e-03
 80        -7.8117682463e-04
 81        -1.0921179699e-03
 82         2.3976392534e-03
 83         4.8326561340e-04
 84        -2.1496176109e-04
 85         1.8420718359e-03
 86         1.8178886524e-05
 87         3.7721081549e-04
 88         1.1497563496e-05
 89         6.0447436449e-05
 90        -1.5674056997e-05
 91         3.7826996879e-05
 92         4.9597702258e-04
 93         6.1697181374e-05
 94        -1.9118970801e-04
 95         2.8138462896e-05
 96        -3.8675051883e-04
 97         1.3922904271e-04
 98        -3.8888882266e-04
 99        -1.7175637115e-04
100         2.5548351626e-05
 Sym= A
 Ene=        -1.0393382519e+00
 Spin= Alpha
 Occup=         2.0000000000e+00
  1        -5.0620572723e-04
  2         8.0966845399e-03
  3         5.0320812781e-03
  4        -3.3648847688e-03
  5        -3.9119531308e-03
  6        -3.4546257897e-05
  7        -2.7658709922e-03
  8        -1.3853419688e-03
  9         8.1081955648e-04
 10        -7.1947939630e-04
 11        -1.1559738768e-04
 12        -1.6228260268e-04
 13         1.0049527740e-04
 14         8.9745540859e-04
 15         4.6188013569e-04
 16         1.7102753580e-02
 17        -1.1772410785e-02
 18         4.0134708149e-04
 19        -1.0796164081e-02
 20         1.1244391364e-03
 21        -1.8565872119e-03
 22         9.1868112054e-03
 23        -1.2039437635e-03
 24        -5.1245146129e-04
 25        -2.0620776107e-04
 26        -4.7131557861e-04
 27        -1.5227948710e-03
 28         7.2722151684e-04
 29        -3.7148015155e-03
 30         3.6602847726e-02
 31         3.1792715377e-02
 32         2.1394038376e-02
 33        -1.9632384308e-02
 34        -1.0864061491e-03
 35         1.9840780005e-02
 36         1.8974968619e-03
 37        -1.9126049102e-03
 38        -3.7348423791e-03
 39        -4.6539526872e-04
 40        -8.0622985365e-05
 41        -2.8399547470e-04
 42        -9.0928306167e-03
 43        -1.4782855111e-02
 44         2.2420132054e-01
 45         9.4505542767e-02
 46         1.8406451462e-01
 47        -2.3880167468e-02
 48         3.9434241266e-03
 49         1.2436905832e-02
 50        -2.4573197368e-03
 51         9.4227110992e-04
 52        -1.3834224807e-02
 53         4.8376850589e-04
 54        -1.4790653275e-03
 55         3.1355654556e-02
 56        -1.3464633171e-02
 57        -9.2315699571e-03
 58         4.0196427570e-01
 59         3.6096917036e-01
 60        -1.5493809012e-01
 61         3.0888753977e-02
 62        -3.9752113788e-03
 63        -3.1769306960e-02
 64         7.5841289172e-03
 65        -1.5404558576e-03
 66        -5.3937716863e-03
 67         3.2175906468e-04
 68        -7.6257834041e-04
 69         1.2068942328e-02
 70        -4.9200384705e-03
 71         7.7177837270e-03
 72         3.9607654902e-03
 73        -7.0494278756e-04
 74        -3.6264421704e-04
 75         7.0127944674e-04
 76         1.1177310188e-03
 77        -4.3219591389e-04
 78         2.4058680438e-05
 79        -5.1927753016e-05
 80        -7.4727779665e-05
 81         2.8206541902e-03
 82         7.8188505872e-04
 83        -3.2840305830e-04
 84        -3.5792535746e-04
 85        -5.5954117849e-04
 86         4.0168506706e-02
 87        -3.3502988234e-03
 88         1.0089464433e-02
 89         6.0728197934e-03
 90         1.0508461798e-03
 91         7.2916099609e-03
 92         6.0758433283e-03
 93         1.0410167742e-03
 94        -1.8896146119e-03
 95        -9.0230411598e-05
 96         1.9118546727e-03
 97        -2.9888455508e-03
 98        -1.7663637391e-04
 99        -8.4321720233e-04
100         1.3830376419e-04
 Sym= A
 Ene=        -8.1175020052e-01
 Spin= Alpha
 Occup=         2.0000000000e+00
  1         1.1257254624e-02
  2        -1.8052572836e-01
  3        -7.4433314873e-02
  4         6.7466279784e-02
  5         1.4256385977e-02
  6        -5.1136769359e-03
  7         2.0944887916e-03
  8        -9.0516257667e-03
  9         2.7007975410e-03
 10         5.7440558876e-03
 11         6.0240074668e-04
 12        -1.0057471606e-04
 13        -1.0066036976e-02
 14        -3.2343867575e-03
 15         1.9960637446e-02
 16        -2.8938726033e-01
 17        -2.0351074059e-01
 18        -4.6877915412e-03
 19         7.0897274731e-02
 20        -8.9511489193e-03
 21        -3.2472112812e-02
 22         2.5088233262e-02
 23        -3.7937820236e-03
 24         1.0010103065e-02
 25         1.2768440083e-03
 26         1.8733064944e-03
 27        -2.1805552033e-03
 28        -1.0009254590e-02
 29         1.7366547917e-02
 30        -2.5409427841e-01
 31        -1.3838025522e-01
 32        -5.9139855399e-02
 33        -5.6583046273e-02
 34         1.4888780803e-02
 35        -2.3778008111e-03
 36        -2.1519845606e-02
 37         3.8639930379e-03
 38         6.8431813187e-03
 39         1.5850384766e-03
 40         2.0820685505e-03
 41         8.8142826507e-03
 42        -8.6064638453e-03
 43         2.6089570531e-03
 44        -6.4567910200e-02
 45        -5.1440507335e-02
 46         7.2998230402e-02
 47        -8.1085502317e-02
 48         1.2164205406e-03
 49         2.3776494873e-02
 50        -2.3013852327e-02
 51        -1.1202693934e-03
 52         2.7129526983e-03
 53         4.3104031573e-04
 54        -3.0598464077e-04
 55         1.3474080169e-02
 56         3.1845884504e-03
 57        -3.6725115843e-04
 58         7.7821785646e-02
 59         7.5051937508e-02
 60        -1.2510813563e-02
 61        -1.6772166529e-02
 62         1.0688960085e-04
 63         1.1493630607e-03
 64        -7.2679990516e-03
 65         5.9610473271e-04
 66         1.7062669314e-04
 67         9.1921978469e-06
 68         3.1763675183e-05
 69         1.7278112476e-03
 70         1.6072335376e-03
 71        -6.7443126688e-02
 72        -2.1077252306e-03
 73         4.5962299516e-03
 74        -7.8572071825e-03
 75        -5.1811193385e-03
 76        -5.9403217527e-02
 77        -5.6219838113e-04
 78         4.8393610493e-03
 79         8.1348238016e-03
 80        -3.4771444465e-03
 81        -6.9350490075e-02
 82        -3.5512365356e-03
 83         4.3694276418e-03
 84        -1.2956395441e-04
 85         9.2699453888e-03
 86        -1.8846418343e-02
 87         3.2579274031e-06
 88         6.4743673028e-05
 89        -3.5306507507e-03
 90        -1.3292168326e-04
 91        -8.2718969391e-02
 92        -2.3600295267e-03
 93        -1.4102120409e-02
 94        -1.9389452419e-03
 95         1.1687704914e-03
 96        -9.8391050957e-02
 97        -1.3487639599e-02
 98        -6.9790785821e-03
 99         1.3639467653e-02
100        -1.7465886935e-03
 Sym= A
 Ene=        -7.1717802751e-01
 Spin= Alpha
 Occup=         2.0000000000e+00
  1         1.4377534933e-02
  2        -2.8335716257e-01
  3        -1.2102845525e-01
  4         2.0052359462e-02
  5        -7.2871435588e-03
  6        -5.4598241602e-03
  7        -1.5777814700e-02
  8        -7.7843414473e-03
  9         6.2587196608e-04
 10         1.4763948513e-03
 11        -9.5005112893e-05
 12        -1.5571803974e-04
 13        -3.1151453872e-03
 14         2.2869217454e-03
 15         5.4191204033e-03
 16        -5.3384681426e-02
 17        -8.7663382283e-02
 18        -1.3697376330e-01
 19        -8.9438654444e-02
 20         1.0009728122e-02
 21        -8.9177984197e-02
 22        -6.4797956610e-03
 23         1.4606267105e-03
 24         3.8247308278e-03
 25        -4.4501098932e-04
 26        -1.1047545695e-03
 27        -1.7653026586e-02
 28         4.2004889830e-03
 29        -1.3800984523e-02
 30         2.2710992113e-01
 31         1.6600173746e-01
 32        -6.6512668367e-03
 33        -6.2389776647e-02
 34        -4.6709022531e-03
 35         3.4325689276e-02
 36        -3.6752354801e-02
 37        -1.4677169638e-03
 38        -4.3831549410e-03
 39        -6.5552217535e-05
 40         4.4914716081e-04
 41        -9.7585166670e-03
 42        -6.0882801914e-03
 43        -3.3148945613e-03
 44         1.5928529038e-01
 45         7.0484835654e-02
 46        -1.1141244648e-01
 47         7.5229383716e-02
 48         1.0316323701e-04
 49        -3.9077642529e-02
 50         9.0977526168e-03
 51        -1.3411670796e-03