Generated by Psi4
        SP                           RHF                       CC-PVDZ
Number of atoms                            I               11
Charge                                     I                0
Multiplicity                               I                1
Number of electrons                        I               38
Number of alpha electrons                  I               19
Number of beta electrons                   I               19
Number of basis functions                  I              100
Number of independent functions            I              100
Atomic numbers                             I   N=          11
           6           6           6           6           8           1
           1           1           1           1           1
Nuclear charges                            R   N=          11
  6.00000000e+00  6.00000000e+00  6.00000000e+00  6.00000000e+00  8.00000000e+00
  1.00000000e+00  1.00000000e+00  1.00000000e+00  1.00000000e+00  1.00000000e+00
  1.00000000e+00
Current cartesian coordinates              R   N=          33
  1.64042219e+00  3.01074026e+00  3.00560450e-01 -7.92132474e-01  2.41505265e+00
 -1.75551550e-01 -2.04087187e+00 -6.08529114e-03  2.79030422e-01 -8.87278975e-01
 -2.27781897e+00  1.13188756e-01  1.58027751e+00 -2.69460428e+00 -3.99453917e-01
  2.35757660e+00 -1.06108590e+00 -7.59258754e-01  2.41340349e+00  4.84271250e+00
 -2.49176508e-01  2.90357481e+00  1.76799952e+00  1.36941540e+00 -1.92962598e+00
 -4.05147318e+00  3.00035087e-01 -4.08192717e+00 -8.82284289e-03  5.84271779e-01
 -1.97860250e+00  3.86606542e+00 -1.06420957e+00
Integer atomic weights                     I   N=          11
          12          12          12          12          16           1
           1           1           1           1           1
Real atomic weights                        R   N=          11
  1.20000000e+01  1.20000000e+01  1.20000000e+01  1.20000000e+01  1.59949146e+01
  1.00782503e+00  1.00782503e+00  1.00782503e+00  1.00782503e+00  1.00782503e+00
  1.00782503e+00
Number of primitive shells                 I              140
Number of contracted shells                I               48
Pure/Cartesian d shells                    I                0
Pure/Cartesian f shells                    I                0
Highest angular momentum                   I                2
Largest degree of contraction              I                8
Shell types                                I   N=          48
           0           0           0           1           1          -2
           0           0           0           1           1          -2
           0           0           0           1           1          -2
           0           0           0           1           1          -2
           0           0           0           1           1          -2
           0           0           1           0           0           1
           0           0           1           0           0           1
           0           0           1           0           0           1
Number of primitives per shell             I   N=          48
           8           8           1           3           1           1
           8           8           1           3           1           1
           8           8           1           3           1           1
           8           8           1           3           1           1
           8           8           1           3           1           1
           3           1           1           3           1           1
           3           1           1           3           1           1
           3           1           1           3           1           1
Shell to atom map                          I   N=          48
           1           1           1           1           1           1
           2           2           2           2           2           2
           3           3           3           3           3           3
           4           4           4           4           4           4
           5           5           5           5           5           5
           6           6           6           7           7           7
           8           8           8           9           9           9
          10          10          10          11          11          11
Primitive exponents                        R   N=         140
  6.66500000e+03  1.00000000e+03  2.28000000e+02  6.47100000e+01  2.10600000e+01
  7.49500000e+00  2.79700000e+00  5.21500000e-01  6.66500000e+03  1.00000000e+03
  2.28000000e+02  6.47100000e+01  2.10600000e+01  7.49500000e+00  2.79700000e+00
  5.21500000e-01  1.59600000e-01  9.43900000e+00  2.00200000e+00  5.45600000e-01
  1.51700000e-01  5.50000000e-01  6.66500000e+03  1.00000000e+03  2.28000000e+02
  6.47100000e+01  2.10600000e+01  7.49500000e+00  2.79700000e+00  5.21500000e-01
  6.66500000e+03  1.00000000e+03  2.28000000e+02  6.47100000e+01  2.10600000e+01
  7.49500000e+00  2.79700000e+00  5.21500000e-01  1.59600000e-01  9.43900000e+00
  2.00200000e+00  5.45600000e-01  1.51700000e-01  5.50000000e-01  6.66500000e+03
  1.00000000e+03  2.28000000e+02  6.47100000e+01  2.10600000e+01  7.49500000e+00
  2.79700000e+00  5.21500000e-01  6.66500000e+03  1.00000000e+03  2.28000000e+02
  6.47100000e+01  2.10600000e+01  7.49500000e+00  2.79700000e+00  5.21500000e-01
  1.59600000e-01  9.43900000e+00  2.00200000e+00  5.45600000e-01  1.51700000e-01
  5.50000000e-01  6.66500000e+03  1.00000000e+03  2.28000000e+02  6.47100000e+01
  2.10600000e+01  7.49500000e+00  2.79700000e+00  5.21500000e-01  6.66500000e+03
  1.00000000e+03  2.28000000e+02  6.47100000e+01  2.10600000e+01  7.49500000e+00
  2.79700000e+00  5.21500000e-01  1.59600000e-01  9.43900000e+00  2.00200000e+00
  5.45600000e-01  1.51700000e-01  5.50000000e-01  1.17200000e+04  1.75900000e+03
  4.00800000e+02  1.13700000e+02  3.70300000e+01  1.32700000e+01  5.02500000e+00
  1.01300000e+00  1.17200000e+04  1.75900000e+03  4.00800000e+02  1.13700000e+02
  3.70300000e+01  1.32700000e+01  5.02500000e+00  1.01300000e+00  3.02300000e-01
  1.77000000e+01  3.85400000e+00  1.04600000e+00  2.75300000e-01  1.18500000e+00
  1.30100000e+01  1.96200000e+00  4.44600000e-01  1.22000000e-01  7.27000000e-01
  1.30100000e+01  1.96200000e+00  4.44600000e-01  1.22000000e-01  7.27000000e-01
  1.30100000e+01  1.96200000e+00  4.44600000e-01  1.22000000e-01  7.27000000e-01
  1.30100000e+01  1.96200000e+00  4.44600000e-01  1.22000000e-01  7.27000000e-01
  1.30100000e+01  1.96200000e+00  4.44600000e-01  1.22000000e-01  7.27000000e-01
  1.30100000e+01  1.96200000e+00  4.44600000e-01  1.22000000e-01  7.27000000e-01
Contraction coefficients                   R   N=         140
  6.91583963e-04  5.32579615e-03  2.70607210e-02  1.01656846e-01  2.74574824e-01
  4.48294319e-01  2.84902611e-01  1.51948592e-02 -2.93269653e-04 -2.31803547e-03
 -1.14997860e-02 -4.68267270e-02 -1.28466169e-01 -3.01266272e-01 -2.55630702e-01
  1.09379336e+00  1.00000000e+00  5.69792516e-02  3.13207212e-01  7.60376742e-01
  1.00000000e+00  1.00000000e+00  6.91583963e-04  5.32579615e-03  2.70607210e-02
  1.01656846e-01  2.74574824e-01  4.48294319e-01  2.84902611e-01  1.51948592e-02
 -2.93269653e-04 -2.31803547e-03 -1.14997860e-02 -4.68267270e-02 -1.28466169e-01
 -3.01266272e-01 -2.55630702e-01  1.09379336e+00  1.00000000e+00  5.69792516e-02
  3.13207212e-01  7.60376742e-01  1.00000000e+00  1.00000000e+00  6.91583963e-04
  5.32579615e-03  2.70607210e-02  1.01656846e-01  2.74574824e-01  4.48294319e-01
  2.84902611e-01  1.51948592e-02 -2.93269653e-04 -2.31803547e-03 -1.14997860e-02
 -4.68267270e-02 -1.28466169e-01 -3.01266272e-01 -2.55630702e-01  1.09379336e+00
  1.00000000e+00  5.69792516e-02  3.13207212e-01  7.60376742e-01  1.00000000e+00
  1.00000000e+00  6.91583963e-04  5.32579615e-03  2.70607210e-02  1.01656846e-01
  2.74574824e-01  4.48294319e-01  2.84902611e-01  1.51948592e-02 -2.93269653e-04
 -2.31803547e-03 -1.14997860e-02 -4.68267270e-02 -1.28466169e-01 -3.01266272e-01
 -2.55630702e-01  1.09379336e+00  1.00000000e+00  5.69792516e-02  3.13207212e-01
  7.60376742e-01  1.00000000e+00  1.00000000e+00  7.09645947e-04  5.46727229e-03
  2.78231186e-02  1.04747740e-01  2.82920846e-01  4.48495239e-01  2.70816885e-01
  1.54502916e-02 -3.14443412e-04 -2.48213768e-03 -1.23163554e-02 -5.05389173e-02
 -1.39384903e-01 -3.25077495e-01 -2.29848308e-01  1.09537935e+00  1.00000000e+00
  6.26791663e-02  3.33536566e-01  7.41239642e-01  1.00000000e+00  1.00000000e+00
  3.34987264e-02  2.34800801e-01  8.13682958e-01  1.00000000e+00  1.00000000e+00
  3.34987264e-02  2.34800801e-01  8.13682958e-01  1.00000000e+00  1.00000000e+00
  3.34987264e-02  2.34800801e-01  8.13682958e-01  1.00000000e+00  1.00000000e+00
  3.34987264e-02  2.34800801e-01  8.13682958e-01  1.00000000e+00  1.00000000e+00
  3.34987264e-02  2.34800801e-01  8.13682958e-01  1.00000000e+00  1.00000000e+00
  3.34987264e-02  2.34800801e-01  8.13682958e-01  1.00000000e+00  1.00000000e+00
Coordinates of each shell                  R   N=         144
  1.64042219e+00  3.01074026e+00  3.00560450e-01  1.64042219e+00  3.01074026e+00
  3.00560450e-01  1.64042219e+00  3.01074026e+00  3.00560450e-01  1.64042219e+00
  3.01074026e+00  3.00560450e-01  1.64042219e+00  3.01074026e+00  3.00560450e-01
  1.64042219e+00  3.01074026e+00  3.00560450e-01 -7.92132474e-01  2.41505265e+00
 -1.75551550e-01 -7.92132474e-01  2.41505265e+00 -1.75551550e-01 -7.92132474e-01
  2.41505265e+00 -1.75551550e-01 -7.92132474e-01  2.41505265e+00 -1.75551550e-01
 -7.92132474e-01  2.41505265e+00 -1.75551550e-01 -7.92132474e-01  2.41505265e+00
 -1.75551550e-01 -2.04087187e+00 -6.08529114e-03  2.79030422e-01 -2.04087187e+00
 -6.08529114e-03  2.79030422e-01 -2.04087187e+00 -6.08529114e-03  2.79030422e-01
 -2.04087187e+00 -6.08529114e-03  2.79030422e-01 -2.04087187e+00 -6.08529114e-03
  2.79030422e-01 -2.04087187e+00 -6.08529114e-03  2.79030422e-01 -8.87278975e-01
 -2.27781897e+00  1.13188756e-01 -8.87278975e-01 -2.27781897e+00  1.13188756e-01
 -8.87278975e-01 -2.27781897e+00  1.13188756e-01 -8.87278975e-01 -2.27781897e+00
  1.13188756e-01 -8.87278975e-01 -2.27781897e+00  1.13188756e-01 -8.87278975e-01
 -2.27781897e+00  1.13188756e-01  1.58027751e+00 -2.69460428e+00 -3.99453917e-01
  1.58027751e+00 -2.69460428e+00 -3.99453917e-01  1.58027751e+00 -2.69460428e+00
 -3.99453917e-01  1.58027751e+00 -2.69460428e+00 -3.99453917e-01  1.58027751e+00
 -2.69460428e+00 -3.99453917e-01  1.58027751e+00 -2.69460428e+00 -3.99453917e-01
  2.35757660e+00 -1.06108590e+00 -7.59258754e-01  2.35757660e+00 -1.06108590e+00
 -7.59258754e-01  2.35757660e+00 -1.06108590e+00 -7.59258754e-01  2.41340349e+00
  4.84271250e+00 -2.49176508e-01  2.41340349e+00  4.84271250e+00 -2.49176508e-01
  2.41340349e+00  4.84271250e+00 -2.49176508e-01  2.90357481e+00  1.76799952e+00
  1.36941540e+00  2.90357481e+00  1.76799952e+00  1.36941540e+00  2.90357481e+00
  1.76799952e+00  1.36941540e+00 -1.92962598e+00 -4.05147318e+00  3.00035087e-01
 -1.92962598e+00 -4.05147318e+00  3.00035087e-01 -1.92962598e+00 -4.05147318e+00
  3.00035087e-01 -4.08192717e+00 -8.82284289e-03  5.84271779e-01 -4.08192717e+00
 -8.82284289e-03  5.84271779e-01 -4.08192717e+00 -8.82284289e-03  5.84271779e-01
 -1.97860250e+00  3.86606542e+00 -1.06420957e+00 -1.97860250e+00  3.86606542e+00
 -1.06420957e+00 -1.97860250e+00  3.86606542e+00 -1.06420957e+00
Total Energy                               R     -2.312259352962103e+02
Alpha Orbital Energies                     R   N=         100
 -1.91748790e+01 -1.02504527e+01 -1.02056266e+01 -1.01898832e+01 -1.01823891e+01
 -1.06511660e+00 -8.01950699e-01 -7.31279210e-01 -6.29234481e-01 -5.78444867e-01
 -4.99379496e-01 -4.78747291e-01 -4.46851761e-01 -4.08986467e-01 -3.93957785e-01
 -3.76453703e-01 -3.47192175e-01 -3.00905548e-01 -2.17915586e-01 -2.59785031e-02
  5.76195271e-02  7.14974995e-02  8.07190745e-02  1.01234594e-01  1.25432785e-01
  1.42463960e-01  1.62719404e-01  2.20592712e-01  3.01554372e-01  3.22049670e-01
  3.50145426e-01  4.34179903e-01  4.44514506e-01  4.75262004e-01  4.79609825e-01
  4.95728636e-01  5.11482390e-01  5.36081660e-01  5.55697832e-01  5.67152597e-01
  5.82363548e-01  6.12718344e-01  6.27094781e-01  6.58189530e-01  6.75113946e-01
  7.19799224e-01  7.69923789e-01  7.98970836e-01  8.80164150e-01  9.01370921e-01
  9.40088185e-01  9.51193748e-01  9.63463248e-01  1.00356895e+00  1.04304490e+00
  1.04944748e+00  1.09398321e+00  1.10344774e+00  1.16213197e+00  1.19090221e+00
  1.21805310e+00  1.31948769e+00  1.37294985e+00  1.43837417e+00  1.45241411e+00
  1.48253850e+00  1.50415183e+00  1.52974773e+00  1.55751008e+00  1.58844617e+00
  1.60242227e+00  1.64563642e+00  1.68275124e+00  1.71852458e+00  1.73557634e+00
  1.75179349e+00  1.76165316e+00  1.82501009e+00  1.89562831e+00  1.92170739e+00
  1.97732010e+00  1.98746934e+00  2.03619647e+00  2.08078986e+00  2.09860901e+00
  2.17266026e+00  2.20981232e+00  2.26961244e+00  2.39181789e+00  2.40302426e+00
  2.42333853e+00  2.57445469e+00  2.73595162e+00  2.77944506e+00  2.87702068e+00
  2.95635027e+00  3.02828240e+00  3.17784762e+00  3.43615434e+00  3.69516925e+00
Alpha MO coefficients                      R   N=       10000
 -7.13602296e-05 -1.22312141e-04  1.12989008e-03 -9.93889190e-05  7.16675707e-05
  2.22792099e-05 -2.07417152e-04 -1.30807920e-03  1.62098494e-04 -6.65067822e-05
  1.09244800e-05  4.00073735e-05 -4.90949864e-05  7.49683873e-05  2.12008585e-04
  3.65075070e-04 -5.58479947e-03 -5.98083153e-06  7.23034106e-06  6.09523052e-05
  2.95916126e-04  2.97159758e-03 -8.60810865e-04  6.54168705e-05 -1.24682478e-04
  1.01660372e-04 -3.08221265e-06  2.58111290e-05 -1.93955741e-04 -2.84286732e-04
  4.72805277e-03  4.73596293e-05 -2.67778668e-04  7.40323991e-06  4.65727627e-03
  3.21823869e-03 -1.07348249e-03 -1.62160142e-04 -1.34754804e-04  7.01775541e-05
  3.94432725e-04 -4.00679635e-04 -2.00926548e-04 -3.66149077e-04 -5.61217931e-03
 -3.27678788e-04  2.24021795e-04  9.76927563e-05 -5.94881276e-03 -1.40226866e-03
  1.24744599e-03  3.98794340e-04  1.32557749e-05  8.49031346e-05  7.05552079e-04
 -4.04628424e-04 -1.00408123e+00 -9.35359517e-03  1.40491949e-02  8.93219899e-04
 -1.45363777e-03 -1.82262034e-05 -3.25506770e-03  1.42050498e-03  5.96849827e-04
  1.65378624e-05  9.94413384e-06  9.36436203e-05  1.48387332e-04 -2.63825381e-04
 -2.41975017e-04 -2.73343570e-04 -2.34902451e-04 -9.77491346e-04  9.54912317e-05
  5.40866887e-05  2.84801284e-04  3.77223573e-05  6.11103903e-05  7.32793160e-06
 -2.25667199e-04 -2.14395744e-04  3.16323465e-06 -1.80583803e-05 -4.80899635e-06
  3.90510032e-04 -9.05967502e-04  6.40495666e-04  1.35549493e-04 -1.30213416e-04
  1.67053775e-04  1.25808726e-03 -2.26670153e-04 -2.10284649e-04  6.58565400e-05
  9.93561257e-05 -5.92368774e-04 -3.56279568e-05 -1.10589475e-04  2.78292645e-05
 -2.84780555e-04 -3.50795097e-04  1.14534009e-03  1.47668459e-04  8.19421774e-05
  7.27016608e-05 -1.28686469e-03  4.63327295e-04 -6.33707516e-04 -7.57428736e-05
 -1.71554851e-05 -2.96767356e-05  5.21682600e-05 -3.63845290e-05 -4.84906860e-04
 -6.97341197e-04  4.86904142e-03 -1.21063091e-04  9.61229611e-06  2.67339496e-06
 -2.42920422e-03 -4.14339125e-03  7.38141064e-04 -3.56091647e-04 -9.53091549e-05
 -1.03156183e-04  1.12879275e-05  1.94993883e-04  4.61985279e-03 -1.01501727e-03
  2.30875038e-04 -5.74444816e-04  1.35366782e-03  8.28921009e-05 -1.92550832e-03
 -6.55740804e-03  7.82926683e-04  1.07620701e-03  2.23938118e-04 -3.04920533e-05
  5.83497868e-04  8.96575758e-04  1.00592022e+00  1.53094647e-02 -1.26866099e-02
  5.58159410e-04 -4.70143053e-04 -1.74406362e-04  5.11597864e-03 -2.43867967e-03
 -9.94968783e-04 -1.62617030e-03 -5.19994120e-04  8.37261835e-06 -2.90749756e-04
 -2.93531019e-05  7.24091277e-04  1.30632890e-03 -4.96713456e-03  2.65475297e-04
 -2.11673958e-04 -2.88446886e-05  3.26881707e-03 -2.82173175e-04 -7.00028242e-04
  6.93651371e-04  4.34817649e-04 -6.35022679e-06 -7.65888499e-04  2.11861526e-04
  5.18014001e-04 -4.30632940e-04 -6.30428359e-04 -2.22053606e-05  1.19800989e-04
 -5.21722996e-05  1.84334505e-04 -2.66131280e-05 -5.49512086e-05  3.06845149e-05
  2.78108586e-06  9.22239193e-04  1.21390695e-05  6.56285401e-05 -3.00360459e-05
 -2.13917441e-03  2.32956618e-03 -1.53829732e-03 -1.57659914e-03  2.81098460e-04
 -1.45804861e-04 -2.60910618e-04  2.98715862e-04  2.91717601e-04 -7.06908008e-05
 -5.82530251e-05  5.43634730e-04  1.72500180e-04  1.30242752e-04 -3.18484190e-05
  2.17454041e-02 -1.13752917e-03  4.80181866e-03  1.33169188e-03  3.41004856e-04
  1.70703916e-04 -2.08440015e-03 -1.80887557e-03  3.69297914e-04  7.62083212e-04
 -5.54651977e-04 -3.44564525e-05 -1.06409414e-03 -4.01358651e-04  1.00619848e+00
  1.62779555e-02 -1.92591570e-02 -1.33278200e-04  2.16230438e-04 -2.30214147e-04
 -1.72021218e-03  3.20703708e-03 -1.75610657e-03 -7.85992837e-04  6.86588496e-04
 -6.27184115e-04  2.31844147e-04 -3.94297629e-05  5.72503490e-03 -4.57396079e-04
  1.16163838e-03 -4.69104843e-04 -6.34473769e-04  1.42159763e-04  8.14707692e-04
  3.88014926e-03  2.59764645e-04  8.01663223e-04  4.14496158e-05  5.83484023e-04
  1.10629480e-03 -9.55106282e-04 -3.53991334e-04 -6.87996317e-04  4.07619515e-03
 -1.09664850e-04 -1.54876191e-04  1.25429194e-04 -6.30358091e-04  2.74258456e-03
 -2.88919807e-04 -4.32858710e-04 -3.07323031e-04  6.14448179e-05  4.13024074e-04
 -3.20842722e-04  8.95510984e-05  1.31386963e-04 -1.21744000e-03  1.63782336e-04
 -3.93037669e-05 -2.77055191e-05  1.26874205e-04 -6.92842098e-04  1.03647658e-04
  8.27071621e-05  2.73270270e-05  2.30534872e-05 -1.59604586e-05  1.71268987e-05
  2.93818163e-04  6.07179314e-04 -2.71920982e-04 -8.22667219e-05 -5.21895216e-06
 -5.47332034e-05  8.96098594e-04  1.44299112e-04 -1.14003225e-04  7.52078335e-05
 -2.56043327e-04 -1.98371377e-04  4.05146829e-05  2.47817544e-04 -1.17281319e-04
  9.69686233e-05  7.83393957e-04  1.80776074e-04 -5.58511556e-05  3.06784131e-06
 -2.91666266e-04  4.26875720e-04 -6.94787906e-05 -3.79517102e-04 -5.64910056e-05
 -2.29294574e-03  1.19080970e-03 -1.16646344e-03  1.52582642e-03 -9.03621264e-04
  1.00619065e+00  1.63621815e-02 -1.51795063e-02  2.64516088e-04 -2.09862219e-05
  5.31462177e-05  2.16343142e-03  6.58763978e-04  7.23135759e-04 -1.04180843e-03
  7.75371300e-04 -1.16339331e-03  5.87100718e-05  3.29802118e-04 -2.29714933e-02
 -1.44419525e-03  8.57382264e-04 -1.34735327e-03 -3.36024624e-04 -2.77115424e-04
  2.87073466e-03  2.55086955e-03 -4.33703636e-05  1.01365094e-03 -5.79497378e-04
  1.82707256e-04 -1.00133930e-03 -7.82747246e-04 -1.09854618e-03 -5.19251347e-04
  3.56104451e-03 -8.38593188e-05  5.78187197e-05 -6.63298841e-05  1.96187431e-03
  2.50189641e-03 -5.04583816e-04 -3.78963286e-04  7.61657455e-05 -2.45335351e-04
 -3.45513416e-04  3.05554013e-05  7.56833616e-06 -2.14627545e-04 -6.26155637e-04
  3.22138662e-06 -1.40431098e-04 -5.22169651e-05 -1.31699173e-03 -1.34966580e-04
  3.05618808e-04  6.11183875e-05  9.73591311e-05 -8.71594363e-05 -4.55743698e-05
  1.10276774e-04  8.75169510e-06  3.00785582e-05  3.99701549e-04  1.14736923e-04
  5.90558058e-05 -4.35033327e-05 -6.65424006e-04 -1.76234489e-04  1.16920136e-04
 -2.44674553e-05 -3.71384765e-05 -2.87198688e-05  8.27884810e-05  4.79301985e-05
  1.58075908e-04  1.27044386e-03 -1.21006648e-04  3.96441808e-04  9.85426318e-05
 -2.30250352e-03  1.91839721e-03  7.32010144e-04  2.03128395e-03 -6.73585420e-04
 -2.15083675e-03  1.50936381e-03  1.21851185e-03 -1.47940829e-03  1.23586153e-03
 -8.02957343e-05 -2.58500870e-05  3.85912537e-05  2.08116190e-05 -1.94130335e-05
  1.09674031e-04  5.84580767e-04  1.12980589e-05 -1.34096337e-04  4.54279875e-05
  7.62823775e-05  2.29248353e-04  1.77958817e-05 -3.18742497e-04  9.91290438e-05
  3.81840852e-04 -4.43600517e-04  2.77279305e-03  7.10647192e-05  1.04336879e-04
 -8.31880160e-05 -2.06372448e-03 -4.10851220e-04 -4.89892655e-05 -2.52931775e-04
  5.21623624e-04 -3.07401320e-04  2.78546010e-04 -4.79103468e-04 -6.13106194e-03
 -7.12231802e-04  3.05327928e-03  2.16709403e-04  7.11584471e-04 -1.77237941e-04
 -2.04247918e-03 -3.85964809e-03 -4.16084624e-05  9.07829784e-04  4.83677650e-04
  3.57437554e-04  5.58725227e-04 -1.32086437e-03  1.00664465e+00  1.67479114e-02
 -2.18420599e-02 -2.29591795e-04 -1.58410428e-04 -1.21213482e-04 -5.13367220e-03
 -2.42354184e-04  1.51856771e-03 -1.09136133e-03 -3.54556397e-04 -1.84581094e-05
  2.68841561e-04 -2.12633297e-04 -5.88210488e-03 -1.60391156e-03  6.72863682e-03
  6.40689209e-04 -1.24417109e-03 -8.06698665e-05  3.19286359e-04  4.18483155e-03
 -3.72359363e-04  8.48257455e-04  1.44511924e-04 -1.88078214e-04  6.93735725e-04
  1.02425763e-03  3.61478420e-05  5.23608883e-05 -9.63295052e-04  2.73813965e-05
 -5.75648534e-05  1.29321403e-06 -1.17507268e-04 -7.08942115e-04  8.10674775e-05
 -5.84453063e-05 -4.36872026e-05 -7.27582408e-06  9.87737080e-05  8.13369360e-05
  2.73709701e-04  5.20249944e-05 -1.34159984e-04 -1.60133758e-04  3.10139082e-05
  1.06547127e-04  4.99515844e-04  1.40248322e-04 -1.43443911e-04  5.00518508e-05
 -6.98400322e-04  4.90433344e-04  1.92823627e-04 -1.19459990e-04  1.26613772e-04
  1.37734614e-04  1.21056363e-03  2.78416205e-04 -2.35966868e-05 -1.98208436e-05
 -2.37381890e-03  8.43149332e-04 -2.11777549e-03 -5.60487635e-05  2.43783664e-04
 -3.26466415e-04  6.99162023e-04  2.01721498e-04  2.83882965e-04  7.23926159e-05
  1.34808191e-04  8.11866774e-03 -4.24481958e-03 -1.86245163e-03 -4.89281658e-03
 -6.71327264e-04  2.38519943e-03  4.95294470e-03 -1.88423940e-03 -2.61324333e-04
 -5.39673950e-04  7.20501835e-04 -8.21210064e-04  9.79704822e-04 -5.65853704e-05
  1.29249020e-02  1.42201401e-03  1.43324161e-03 -8.53904420e-03  9.48045211e-04
  5.75542646e-03  3.34756831e-03  7.30717250e-05 -1.36578198e-03 -1.50461576e-04
 -3.86134977e-04 -1.33993227e-03  4.63311119e-04 -1.31160680e-03  3.48941780e-02
 -4.52496592e-03  2.10009903e-02 -1.80554070e-02 -4.12928039e-03  5.45976568e-03
  1.52167115e-02 -2.04435332e-03 -2.22520926e-03 -1.03344478e-03  1.56070593e-03
  2.19286336e-03 -8.07890979e-03 -1.27335497e-02  1.53731003e-01  8.53277794e-02
  1.25621769e-01 -6.64837672e-03 -2.74912392e-02  4.87319105e-03  2.39369199e-02
 -1.73678333e-03 -1.10310424e-02 -1.09412391e-02  1.08568032e-03  2.82560929e-02
 -5.24887631e-03 -6.70482935e-03  4.24242864e-01  3.73273500e-01 -7.27063015e-02
  9.05743618e-02  6.41197578e-03 -3.11121506e-02 -1.39186101e-03  6.97206878e-03
 -6.27522985e-03 -3.39635813e-03 -5.99046753e-04  3.94552224e-03 -1.91828925e-03
  1.71381473e-01  4.84159706e-03 -1.88033621e-02 -2.95455580e-02  8.10028764e-03
  9.90056640e-06 -3.80652383e-03  6.14769286e-05  1.19657617e-04 -1.66740626e-04
  7.11703008e-03  4.73184380e-03 -1.12467149e-03 -6.95954577e-04 -9.68612350e-04
  3.41564533e-02  5.31688115e-03  8.32191435e-03  4.38413289e-03 -1.57528538e-03
  5.06756139e-03  2.03127155e-03  4.15054204e-04 -2.29898449e-03  2.44277066e-05
  1.61018639e-03 -1.22114404e-03 -2.95666824e-04 -4.44983105e-04 -8.34747026e-05
  1.46659744e-02 -1.90836108e-01 -1.02999770e-01  8.28108883e-02  2.88218691e-02
  1.38045420e-02  8.56277161e-03 -2.98415905e-03  8.12647526e-03  4.77702459e-03
 -2.25766099e-03 -3.31422314e-03 -7.83242282e-03 -5.99887356e-03  1.94022287e-02
 -2.77373844e-01 -1.77838292e-01 -3.70919311e-02  4.05900795e-02 -1.92920396e-02
 -1.87192831e-02  2.08297294e-02 -1.35296850e-02  1.03845927e-02 -8.89259958e-04
  1.30449087e-03 -1.41750522e-03 -1.10630690e-02  1.82606423e-02 -2.42330719e-01
 -1.42534381e-01 -5.45429269e-02 -1.53942872e-02  1.48264008e-02 -1.88569771e-02
 -1.19578640e-02  9.24598224e-03  8.67245240e-03  1.68379727e-03  2.65737501e-03
  9.59219252e-03 -5.24861473e-03  5.57822310e-03 -1.25731531e-01 -6.79653201e-02
  6.06529412e-02 -8.58038143e-02 -9.39220005e-03  2.33397497e-02 -1.30026526e-02
 -6.47310778e-03  3.42098974e-03 -1.72585255e-03 -3.26879466e-04  1.20621200e-02
  4.15376818e-03  1.12280191e-03  8.76592213e-02  8.05568542e-02  2.73198576e-02
  2.54123811e-03 -8.23503940e-03  1.65313018e-02 -7.86989297e-03 -3.44609287e-03
  8.20566989e-04  3.61939180e-04 -7.46112772e-04 -1.07522981e-03  2.95467744e-03
  3.48800483e-02  3.72670542e-03 -2.09122693e-03 -9.00670780e-03  5.73739899e-04
 -5.95054186e-02 -5.73486513e-04  5.79630481e-03  8.83107747e-03 -2.06473207e-03
 -6.84323901e-02 -4.52303525e-03  8.10338379e-03 -5.47708261e-03  5.78989955e-03
 -3.39082304e-02  9.37061907e-04 -5.89597928e-04 -5.95870669e-03  2.92130654e-04
 -8.18876619e-02 -8.41201952e-03 -1.31913366e-02 -9.09536548e-04  1.91023791e-03
 -9.52578307e-02 -1.22428003e-02 -8.53562849e-03  1.08601133e-02 -6.16630306e-03
  1.63956966e-02 -2.27622719e-01 -1.26743520e-01  5.53423687e-02  8.38776557e-03
  1.38047850e-02  3.00521289e-03  1.35324230e-03  2.82801484e-03  3.11071466e-03
 -2.58722152e-03 -2.26140786e-03 -5.60581687e-03 -3.05184152e-05  8.99141769e-03
 -1.36723157e-01 -1.01911934e-01 -1.09125930e-01 -7.67151904e-02 -7.24464159e-03
 -4.79686171e-02 -1.30282976e-02 -6.61715844e-03  2.36305253e-03 -4.17679903e-03
 -2.60832672e-03 -1.44834476e-02  1.77855202e-04 -1.32623349e-02  1.97071348e-01
  1.28323778e-01  9.53538047e-03 -1.20744143e-01 -3.66625664e-03  1.84056859e-02
 -3.44740387e-02  2.48289895e-04 -3.32654128e-03  2.57961067e-04  1.80347405e-03
 -6.78063078e-03 -1.21753456e-02 -1.00042967e-02  2.51395249e-01  1.39460046e-01
 -7.32098394e-02  5.92155800e-02  1.09110255e-02 -2.21067966e-02  9.89035537e-03
  2.45088144e-03 -5.34092196e-03 -6.36734343e-05  1.11602774e-03 -5.28349079e-03
 -1.09370458e-02 -1.94561769e-03 -8.75618995e-02 -7.77248794e-02 -1.08398826e-01
 -4.34440015e-02  2.77928950e-02 -4.99279551e-02 -2.77260554e-03  1.05473224e-02
 -1.59983644e-03 -1.31469186e-03  1.47313817e-03  5.85590221e-03 -5.03926242e-03
 -1.07108696e-01 -2.00509629e-02  4.89454586e-03  1.15738834e-02 -3.74239170e-03
 -9.65894057e-02 -9.98303133e-03  6.04033214e-03  1.27298497e-02 -3.39575484e-03
 -9.46423815e-02 -1.23592000e-02  9.12167825e-03 -6.73024132e-03  7.87468889e-03
  1.09108438e-01  9.73892631e-03  5.37046810e-03  1.39664219e-02 -9.85276768e-04
  8.93340774e-02  1.36791413e-02  1.22254838e-02 -3.09397410e-03 -2.00547144e-03
 -5.88436586e-02 -1.19344574e-02 -6.90941304e-03  3.62652262e-03 -3.56121019e-03
  1.05140148e-02 -1.90312816e-01 -1.22586058e-01 -2.29739959e-02 -3.02461695e-02
 -7.48960930e-04 -2.19162988e-02  4.32744933e-03 -8.47642548e-03 -1.59257650e-03
 -2.71011406e-04  5.02455153e-04  5.95457190e-04  2.33015308e-03 -2.73008038e-03
  8.56239667e-02  4.11955193e-02 -1.48230306e-01 -9.49374355e-02 -9.39708797e-03
 -4.97987200e-02 -4.02342820e-02 -1.56082923e-03 -9.57461338e-04 -4.69489352e-03
 -2.58345966e-03 -9.54511559e-03  1.51895273e-03 -6.00444623e-03  1.58311379e-01
  9.21953662e-02 -1.80244790e-02  1.20004154e-01 -1.44848425e-02  5.04215976e-03
  4.44787592e-02 -5.37642266e-03 -7.83601769e-04 -1.18235869e-03 -3.96871108e-03
 -2.27029981e-03  7.44783260e-03  3.13446775e-03 -2.07460679e-01 -1.25562080e-01
 -4.76192738e-02  1.42612232e-01  1.82108006e-03 -1.97092831e-02  3.48658106e-02
  1.14754478e-05  2.07127090e-03  1.92495747e-03 -2.95436690e-03 -8.73412472e-03
  9.52219469e-03  5.28402586e-04  5.36180055e-02  5.23241785e-02  2.35268559e-01
  1.37255913e-01 -6.77544053e-02  1.02642471e-01  4.17052735e-02 -2.75021810e-02
  1.37020224e-03  2.69998065e-03 -2.03561215e-03 -1.17979116e-02  3.95577631e-03
  1.89149921e-01  3.78426675e-02 -8.18327333e-03 -2.31372977e-02  3.85929609e-03
 -1.23368195e-01 -2.64610455e-02  4.99285487e-03  1.27799368e-02 -4.19698389e-03
 -9.41748275e-02 -6.33612037e-03  6.56711620e-03 -9.40421477e-03  5.93136123e-03
 -1.62546048e-01 -3.05158385e-02 -9.51817290e-03 -1.39573373e-02  1.45736151e-03
  9.41188405e-02  2.01453568e-02  1.05926284e-02  2.68208151e-03 -1.98765198e-03
  5.78672658e-02  1.12738314e-02  5.89624161e-04 -6.50281548e-03  2.32513334e-03
  6.80993476e-03 -1.38848690e-01 -8.48220883e-02 -1.38614717e-01  2.01084704e-02
 -4.25504994e-02 -5.53169813e-02  1.28250839e-02 -1.42865323e-02 -3.15210933e-03
  3.37428118e-03 -7.10311058e-05  1.07421246e-02  2.78676321e-03 -4.23500790e-03
  2.10221477e-01  1.19978402e-01 -1.06080152e-01  5.04446340e-02 -3.96611031e-02
 -4.41709384e-02  7.55584479e-03 -1.20204751e-02  4.15911296e-03 -2.62792832e-03
 -6.40455915e-04 -2.09347947e-03 -4.03785783e-04  1.89873889e-03 -7.77628603e-02
 -2.07752886e-02 -5.30998528e-03  1.85993645e-01 -2.04408760e-02  1.76961892e-03
  4.27802491e-02 -8.88490532e-03 -1.49539771e-03 -1.27647472e-03 -4.71335210e-03
 -3.64347168e-03  6.02236136e-03  2.65546549e-03 -1.25297263e-02 -1.54656714e-02
  1.59329387e-01 -1.77622222e-01 -3.22492561e-02  4.72114915e-02 -6.35726716e-02
 -9.07507600e-03 -2.42328063e-03 -2.31927236e-03  1.32596942e-03  1.01717046e-02
 -1.01426671e-02  1.28660742e-03  3.75359052e-02  5.87123636e-02 -2.00912850e-01
 -1.75154996e-01  5.43566389e-02 -7.80434982e-02 -7.09154526e-02  1.85486924e-02
  8.81407470e-04 -1.34485316e-03  1.42873321e-03  1.07467887e-02 -1.81225434e-03
 -1.89463847e-01 -4.80192162e-02  6.04072463e-03  1.31354839e-02 -6.12948229e-03
 -9.62371477e-02 -2.36124191e-02  3.02554525e-04  1.02919439e-02 -3.99739510e-03
 -1.65885776e-01 -3.58162292e-02  7.25855833e-03 -7.17067004e-03  1.00861433e-02
  3.05944679e-02  3.78285344e-03  3.66182303e-03  3.35089370e-04 -7.48478683e-04
 -4.21499277e-02 -9.68976010e-03 -5.31497314e-03  3.90587003e-03  3.99569339e-04
  1.86025553e-01  3.96563125e-02  9.33672465e-03 -1.30605162e-02  8.15246087e-03
 -7.42674616e-04  3.53484325e-02  4.12644924e-02  6.30301614e-02  1.43042951e-01
 -2.75094494e-02  1.06399061e-02  5.79803878e-02 -1.18726400e-02  2.04135289e-03
 -1.33504365e-03 -2.27631628e-03 -5.25195893e-04 -4.04356474e-03 -4.13436583e-04
 -2.92721330e-02 -1.46452065e-02 -9.06675313e-02  1.52050657e-01 -4.93397743e-02
 -5.40335063e-02  4.60054219e-02 -1.17412853e-02  8.77493225e-04 -1.64972184e-03
 -7.12161034e-04  6.95041615e-03  8.23954058e-03 -4.10112777e-03  2.82118803e-02