Generated by Psi4
        SP                           RHF                       CC-PVDZ
Number of atoms                            I               11
Charge                                     I                0
Multiplicity                               I                1
Number of electrons                        I               38
Number of alpha electrons                  I               19
Number of beta electrons                   I               19
Number of basis functions                  I              100
Number of independent functions            I              100
Atomic numbers                             I   N=          11
           6           6           6           6           8           1
           1           1           1           1           1
Nuclear charges                            R   N=          11
  6.00000000e+00  6.00000000e+00  6.00000000e+00  6.00000000e+00  8.00000000e+00
  1.00000000e+00  1.00000000e+00  1.00000000e+00  1.00000000e+00  1.00000000e+00
  1.00000000e+00
Current cartesian coordinates              R   N=          33
  1.87110073e+00  2.41730683e+00 -1.35473357e-01 -9.34693469e-01  2.37115106e+00
 -7.67083544e-02 -2.16410354e+00  1.71190639e-01  3.72676304e-01 -7.60857525e-01
 -2.21345680e+00  7.40986690e-02  1.52069281e+00 -2.50011298e+00 -1.33841106e-01
  2.34570946e+00  6.13808661e-01 -8.93956851e-01  2.65648703e+00  4.12979577e+00
 -9.52968576e-01  2.71602127e+00  2.08819336e+00  1.75737082e+00 -1.93043892e+00
 -3.91606771e+00 -2.38379432e-01 -4.22800661e+00  4.95897110e-02  4.10327169e-01
 -2.01690124e+00  4.01485308e+00 -7.51499432e-01
Integer atomic weights                     I   N=          11
          12          12          12          12          16           1
           1           1           1           1           1
Real atomic weights                        R   N=          11
  1.20000000e+01  1.20000000e+01  1.20000000e+01  1.20000000e+01  1.59949146e+01
  1.00782503e+00  1.00782503e+00  1.00782503e+00  1.00782503e+00  1.00782503e+00
  1.00782503e+00
Number of primitive shells                 I              140
Number of contracted shells                I               48
Pure/Cartesian d shells                    I                0
Pure/Cartesian f shells                    I                0
Highest angular momentum                   I                2
Largest degree of contraction              I                8
Shell types                                I   N=          48
           0           0           0           1           1          -2
           0           0           0           1           1          -2
           0           0           0           1           1          -2
           0           0           0           1           1          -2
           0           0           0           1           1          -2
           0           0           1           0           0           1
           0           0           1           0           0           1
           0           0           1           0           0           1
Number of primitives per shell             I   N=          48
           8           8           1           3           1           1
           8           8           1           3           1           1
           8           8           1           3           1           1
           8           8           1           3           1           1
           8           8           1           3           1           1
           3           1           1           3           1           1
           3           1           1           3           1           1
           3           1           1           3           1           1
Shell to atom map                          I   N=          48
           1           1           1           1           1           1
           2           2           2           2           2           2
           3           3           3           3           3           3
           4           4           4           4           4           4
           5           5           5           5           5           5
           6           6           6           7           7           7
           8           8           8           9           9           9
          10          10          10          11          11          11
Primitive exponents                        R   N=         140
  6.66500000e+03  1.00000000e+03  2.28000000e+02  6.47100000e+01  2.10600000e+01
  7.49500000e+00  2.79700000e+00  5.21500000e-01  6.66500000e+03  1.00000000e+03
  2.28000000e+02  6.47100000e+01  2.10600000e+01  7.49500000e+00  2.79700000e+00
  5.21500000e-01  1.59600000e-01  9.43900000e+00  2.00200000e+00  5.45600000e-01
  1.51700000e-01  5.50000000e-01  6.66500000e+03  1.00000000e+03  2.28000000e+02
  6.47100000e+01  2.10600000e+01  7.49500000e+00  2.79700000e+00  5.21500000e-01
  6.66500000e+03  1.00000000e+03  2.28000000e+02  6.47100000e+01  2.10600000e+01
  7.49500000e+00  2.79700000e+00  5.21500000e-01  1.59600000e-01  9.43900000e+00
  2.00200000e+00  5.45600000e-01  1.51700000e-01  5.50000000e-01  6.66500000e+03
  1.00000000e+03  2.28000000e+02  6.47100000e+01  2.10600000e+01  7.49500000e+00
  2.79700000e+00  5.21500000e-01  6.66500000e+03  1.00000000e+03  2.28000000e+02
  6.47100000e+01  2.10600000e+01  7.49500000e+00  2.79700000e+00  5.21500000e-01
  1.59600000e-01  9.43900000e+00  2.00200000e+00  5.45600000e-01  1.51700000e-01
  5.50000000e-01  6.66500000e+03  1.00000000e+03  2.28000000e+02  6.47100000e+01
  2.10600000e+01  7.49500000e+00  2.79700000e+00  5.21500000e-01  6.66500000e+03
  1.00000000e+03  2.28000000e+02  6.47100000e+01  2.10600000e+01  7.49500000e+00
  2.79700000e+00  5.21500000e-01  1.59600000e-01  9.43900000e+00  2.00200000e+00
  5.45600000e-01  1.51700000e-01  5.50000000e-01  1.17200000e+04  1.75900000e+03
  4.00800000e+02  1.13700000e+02  3.70300000e+01  1.32700000e+01  5.02500000e+00
  1.01300000e+00  1.17200000e+04  1.75900000e+03  4.00800000e+02  1.13700000e+02
  3.70300000e+01  1.32700000e+01  5.02500000e+00  1.01300000e+00  3.02300000e-01
  1.77000000e+01  3.85400000e+00  1.04600000e+00  2.75300000e-01  1.18500000e+00
  1.30100000e+01  1.96200000e+00  4.44600000e-01  1.22000000e-01  7.27000000e-01
  1.30100000e+01  1.96200000e+00  4.44600000e-01  1.22000000e-01  7.27000000e-01
  1.30100000e+01  1.96200000e+00  4.44600000e-01  1.22000000e-01  7.27000000e-01
  1.30100000e+01  1.96200000e+00  4.44600000e-01  1.22000000e-01  7.27000000e-01
  1.30100000e+01  1.96200000e+00  4.44600000e-01  1.22000000e-01  7.27000000e-01
  1.30100000e+01  1.96200000e+00  4.44600000e-01  1.22000000e-01  7.27000000e-01
Contraction coefficients                   R   N=         140
  6.91583963e-04  5.32579615e-03  2.70607210e-02  1.01656846e-01  2.74574824e-01
  4.48294319e-01  2.84902611e-01  1.51948592e-02 -2.93269653e-04 -2.31803547e-03
 -1.14997860e-02 -4.68267270e-02 -1.28466169e-01 -3.01266272e-01 -2.55630702e-01
  1.09379336e+00  1.00000000e+00  5.69792516e-02  3.13207212e-01  7.60376742e-01
  1.00000000e+00  1.00000000e+00  6.91583963e-04  5.32579615e-03  2.70607210e-02
  1.01656846e-01  2.74574824e-01  4.48294319e-01  2.84902611e-01  1.51948592e-02
 -2.93269653e-04 -2.31803547e-03 -1.14997860e-02 -4.68267270e-02 -1.28466169e-01
 -3.01266272e-01 -2.55630702e-01  1.09379336e+00  1.00000000e+00  5.69792516e-02
  3.13207212e-01  7.60376742e-01  1.00000000e+00  1.00000000e+00  6.91583963e-04
  5.32579615e-03  2.70607210e-02  1.01656846e-01  2.74574824e-01  4.48294319e-01
  2.84902611e-01  1.51948592e-02 -2.93269653e-04 -2.31803547e-03 -1.14997860e-02
 -4.68267270e-02 -1.28466169e-01 -3.01266272e-01 -2.55630702e-01  1.09379336e+00
  1.00000000e+00  5.69792516e-02  3.13207212e-01  7.60376742e-01  1.00000000e+00
  1.00000000e+00  6.91583963e-04  5.32579615e-03  2.70607210e-02  1.01656846e-01
  2.74574824e-01  4.48294319e-01  2.84902611e-01  1.51948592e-02 -2.93269653e-04
 -2.31803547e-03 -1.14997860e-02 -4.68267270e-02 -1.28466169e-01 -3.01266272e-01
 -2.55630702e-01  1.09379336e+00  1.00000000e+00  5.69792516e-02  3.13207212e-01
  7.60376742e-01  1.00000000e+00  1.00000000e+00  7.09645947e-04  5.46727229e-03
  2.78231186e-02  1.04747740e-01  2.82920846e-01  4.48495239e-01  2.70816885e-01
  1.54502916e-02 -3.14443412e-04 -2.48213768e-03 -1.23163554e-02 -5.05389173e-02
 -1.39384903e-01 -3.25077495e-01 -2.29848308e-01  1.09537935e+00  1.00000000e+00
  6.26791663e-02  3.33536566e-01  7.41239642e-01  1.00000000e+00  1.00000000e+00
  3.34987264e-02  2.34800801e-01  8.13682958e-01  1.00000000e+00  1.00000000e+00
  3.34987264e-02  2.34800801e-01  8.13682958e-01  1.00000000e+00  1.00000000e+00
  3.34987264e-02  2.34800801e-01  8.13682958e-01  1.00000000e+00  1.00000000e+00
  3.34987264e-02  2.34800801e-01  8.13682958e-01  1.00000000e+00  1.00000000e+00
  3.34987264e-02  2.34800801e-01  8.13682958e-01  1.00000000e+00  1.00000000e+00
  3.34987264e-02  2.34800801e-01  8.13682958e-01  1.00000000e+00  1.00000000e+00
Coordinates of each shell                  R   N=         144
  1.87110073e+00  2.41730683e+00 -1.35473357e-01  1.87110073e+00  2.41730683e+00
 -1.35473357e-01  1.87110073e+00  2.41730683e+00 -1.35473357e-01  1.87110073e+00
  2.41730683e+00 -1.35473357e-01  1.87110073e+00  2.41730683e+00 -1.35473357e-01
  1.87110073e+00  2.41730683e+00 -1.35473357e-01 -9.34693469e-01  2.37115106e+00
 -7.67083544e-02 -9.34693469e-01  2.37115106e+00 -7.67083544e-02 -9.34693469e-01
  2.37115106e+00 -7.67083544e-02 -9.34693469e-01  2.37115106e+00 -7.67083544e-02
 -9.34693469e-01  2.37115106e+00 -7.67083544e-02 -9.34693469e-01  2.37115106e+00
 -7.67083544e-02 -2.16410354e+00  1.71190639e-01  3.72676304e-01 -2.16410354e+00
  1.71190639e-01  3.72676304e-01 -2.16410354e+00  1.71190639e-01  3.72676304e-01
 -2.16410354e+00  1.71190639e-01  3.72676304e-01 -2.16410354e+00  1.71190639e-01
  3.72676304e-01 -2.16410354e+00  1.71190639e-01  3.72676304e-01 -7.60857525e-01
 -2.21345680e+00  7.40986690e-02 -7.60857525e-01 -2.21345680e+00  7.40986690e-02
 -7.60857525e-01 -2.21345680e+00  7.40986690e-02 -7.60857525e-01 -2.21345680e+00
  7.40986690e-02 -7.60857525e-01 -2.21345680e+00  7.40986690e-02 -7.60857525e-01
 -2.21345680e+00  7.40986690e-02  1.52069281e+00 -2.50011298e+00 -1.33841106e-01
  1.52069281e+00 -2.50011298e+00 -1.33841106e-01  1.52069281e+00 -2.50011298e+00
 -1.33841106e-01  1.52069281e+00 -2.50011298e+00 -1.33841106e-01  1.52069281e+00
 -2.50011298e+00 -1.33841106e-01  1.52069281e+00 -2.50011298e+00 -1.33841106e-01
  2.34570946e+00  6.13808661e-01 -8.93956851e-01  2.34570946e+00  6.13808661e-01
 -8.93956851e-01  2.34570946e+00  6.13808661e-01 -8.93956851e-01  2.65648703e+00
  4.12979577e+00 -9.52968576e-01  2.65648703e+00  4.12979577e+00 -9.52968576e-01
  2.65648703e+00  4.12979577e+00 -9.52968576e-01  2.71602127e+00  2.08819336e+00
  1.75737082e+00  2.71602127e+00  2.08819336e+00  1.75737082e+00  2.71602127e+00
  2.08819336e+00  1.75737082e+00 -1.93043892e+00 -3.91606771e+00 -2.38379432e-01
 -1.93043892e+00 -3.91606771e+00 -2.38379432e-01 -1.93043892e+00 -3.91606771e+00
 -2.38379432e-01 -4.22800661e+00  4.95897110e-02  4.10327169e-01 -4.22800661e+00
  4.95897110e-02  4.10327169e-01 -4.22800661e+00  4.95897110e-02  4.10327169e-01
 -2.01690124e+00  4.01485308e+00 -7.51499432e-01 -2.01690124e+00  4.01485308e+00
 -7.51499432e-01 -2.01690124e+00  4.01485308e+00 -7.51499432e-01
Total Energy                               R     -2.312210303834543e+02
Alpha Orbital Energies                     R   N=         100
 -1.91360026e+01 -1.02731077e+01 -1.02250218e+01 -1.01975891e+01 -1.01756585e+01
 -1.04598115e+00 -8.16858255e-01 -7.16832605e-01 -6.24138097e-01 -5.47080012e-01
 -5.02022295e-01 -4.41383987e-01 -4.39196941e-01 -4.15029286e-01 -3.94254039e-01
 -3.79853273e-01 -3.68246497e-01 -2.75071289e-01 -2.43908794e-01 -6.30370778e-02
  4.05902654e-02  6.46403624e-02  9.63410295e-02  1.08336804e-01  1.28106647e-01
  1.50149834e-01  1.92883079e-01  2.15008980e-01  2.72705293e-01  3.16484724e-01
  3.36003325e-01  4.26702076e-01  4.41300522e-01  4.50092673e-01  4.69590790e-01
  4.84214975e-01  5.15643523e-01  5.27963933e-01  5.71245692e-01  5.86647383e-01
  6.17768416e-01  6.29442537e-01  6.39564757e-01  6.58078223e-01  6.86402792e-01
  6.97127866e-01  7.15775602e-01  7.63058615e-01  7.92432691e-01  8.58599638e-01
  8.92871272e-01  9.18788274e-01  9.60869213e-01  1.02710199e+00  1.04636844e+00
  1.08099845e+00  1.09381827e+00  1.14350986e+00  1.19653746e+00  1.21951090e+00
  1.28543406e+00  1.34529406e+00  1.42858547e+00  1.48885420e+00  1.49085360e+00
  1.52909645e+00  1.55596993e+00  1.57027150e+00  1.61546509e+00  1.63299994e+00
  1.64667856e+00  1.66848700e+00  1.69324869e+00  1.72314897e+00  1.74307630e+00
  1.76548748e+00  1.79050421e+00  1.84578008e+00  1.86273640e+00  1.90280797e+00
  1.95049880e+00  1.97947011e+00  2.02684867e+00  2.05262956e+00  2.14019684e+00
  2.24646803e+00  2.33834995e+00  2.37450974e+00  2.38427195e+00  2.40543358e+00
  2.45479891e+00  2.56512057e+00  2.58730526e+00  2.64921113e+00  2.76974551e+00
  2.85617806e+00  3.03715450e+00  3.06316364e+00  3.41199582e+00  3.48138316e+00
Alpha MO coefficients                      R   N=       10000
 -1.78450214e-05 -3.61030264e-05  1.58069424e-04  1.10317323e-04 -7.76943464e-05
 -1.01490889e-04 -1.18685187e-04 -3.28278155e-04  2.37908330e-04  7.99497807e-05
 -1.15525500e-05  1.32091956e-04  7.65135816e-05 -2.06380036e-04 -1.25630798e-04
 -2.24243870e-04  4.31901788e-03 -1.52395175e-05 -3.29948459e-05 -8.65221449e-05
 -8.82187502e-04 -1.69271372e-03  5.86505935e-04 -2.86916745e-07  6.79300435e-05
 -6.82596348e-05 -8.25206475e-05 -8.08682559e-05  2.03624903e-04  3.14836037e-04
 -3.34940329e-03  2.87574247e-05  2.34039892e-04  1.26802628e-05 -3.97412431e-03
 -3.11185844e-03  4.65678626e-04  1.26615749e-04  1.21423982e-04  7.68254544e-05
 -5.19217838e-04  4.12298292e-04  4.51295956e-04  5.99275038e-04  5.68314574e-03
 -3.36806999e-05 -1.80757460e-04 -6.79374994e-05  5.96069749e-03  7.70256246e-04
 -4.79566105e-04 -1.67830689e-05  1.31263166e-04  1.48421545e-04 -1.17978276e-03
  4.95755181e-04  1.00420326e+00  9.55624350e-03 -1.49908778e-02 -1.80983782e-03
  3.85100789e-04  1.20533676e-04  3.45362412e-03 -9.45984153e-04 -2.44546625e-04
  1.37595535e-05 -1.07014854e-05  2.18893284e-06  8.69107573e-05  3.14426090e-05
 -8.86564134e-05 -5.30516575e-05 -1.12552725e-04 -5.53518378e-04  1.30750171e-04
  2.03930459e-04  4.06170857e-04 -8.39207263e-05 -6.77789730e-05  6.37650617e-05
 -1.45415669e-04 -2.68410595e-04  7.20120176e-05  8.23719190e-05  5.73570757e-05
 -4.13237499e-04  6.48068656e-04 -7.33173760e-04 -4.13274319e-05  5.09262152e-05
 -2.10550059e-04 -1.21403753e-03  1.93671558e-04  2.39607138e-04 -2.92792169e-05
 -1.82742395e-04  1.83970803e-04  2.85686063e-05  7.30206203e-05 -4.49895514e-05
 -3.62467886e-04 -5.10185159e-04  1.19993894e-03  2.79231911e-04  3.13186083e-05
 -4.48902853e-05 -7.73066510e-04 -2.80598787e-04 -4.83305289e-05 -9.08867170e-05
 -1.47436336e-04  8.35593704e-06 -8.24978620e-05 -6.32993702e-05 -4.23450288e-04
 -6.41406017e-04  5.30522386e-03 -1.96941960e-04  5.48480721e-06  3.74566764e-05
 -1.94753280e-03 -3.07407406e-03  7.47337568e-04 -3.20810664e-04 -2.39637144e-04
 -7.46837485e-05  1.82212644e-04  2.02915322e-04  1.65440813e-03 -2.76416244e-04
 -1.12587646e-03 -3.85616375e-04  8.07079223e-04  1.14863861e-04 -2.15726846e-03
 -5.10245555e-03  3.83079139e-04  9.97811240e-04  1.51948064e-04 -1.42480888e-04
  8.63422964e-04  1.02056820e-03  1.00598153e+00  1.53774877e-02 -1.02993588e-02
  8.51308356e-04 -4.75789118e-04 -3.38961832e-04  4.99923570e-03 -1.83613743e-03
 -4.37480928e-04 -1.59055743e-03 -1.14615946e-04  4.09569451e-04  6.93337201e-04
  6.76712796e-05  3.85531959e-04  9.40900105e-04 -5.75360335e-03  7.26020942e-04
 -1.21550750e-04 -7.66109975e-05  3.42437004e-03 -8.90423746e-05 -3.20442052e-04
  5.72276809e-04  1.70365145e-04 -5.34781084e-05 -7.47668625e-04  1.48876042e-04
 -1.05982465e-04 -3.62780827e-04 -2.14275890e-04 -2.20153532e-04  2.27144818e-06
 -4.11360908e-05  4.61750141e-04 -4.13091635e-05  1.77551467e-06  2.95359399e-05
 -6.01363662e-05  1.30120386e-04  8.09451387e-05  7.98538200e-05 -8.39751782e-05
 -1.88089068e-03  2.33289953e-03 -1.34756091e-03 -1.53172186e-03 -2.87625607e-04
 -4.94199156e-04 -4.96873290e-04  5.99240735e-05  2.80282937e-04 -2.85288687e-05
 -5.59188792e-05  4.22245350e-04  1.93357769e-04  9.55272796e-05 -4.72664412e-05
  2.31602171e-03 -3.74932724e-04  4.39657554e-03  7.21301364e-04 -4.87791971e-05
  3.06792218e-05 -2.56050151e-03 -4.28016922e-04  1.05005824e-05  8.16150598e-04
  1.34415632e-04  6.41613137e-05 -9.37614730e-04 -1.14722821e-04  1.00640394e+00
  1.62556484e-02 -2.03150387e-02 -4.71403938e-04  3.77826545e-05 -3.12088019e-04
 -2.32136393e-03  4.06827358e-03 -6.84676756e-04 -7.96186901e-04  3.57163653e-04
 -8.17418410e-04 -5.45168433e-04 -5.38572050e-04  1.18076110e-02 -1.06645628e-03
  4.47882762e-03 -6.42890334e-04 -1.04497237e-03  1.78420474e-04  2.23131180e-03
  2.75582130e-03 -2.68796169e-04  8.73199670e-04  1.40090457e-04  3.62548089e-04
  3.88477589e-04 -1.01566619e-03 -3.26007420e-04 -6.24226977e-04  1.40996521e-03
  3.09255496e-05 -2.09133775e-04  3.16089439e-05 -7.21289321e-04  1.27825915e-03
 -7.29149497e-05 -2.96376724e-04 -1.42631878e-04 -4.52260813e-05  4.54023180e-05
  1.74154530e-04 -8.68039277e-06 -2.08973831e-05 -1.22051942e-04  1.14996470e-04
  3.89784071e-05  1.18020449e-06 -2.53755199e-04 -5.19136011e-04  7.58137316e-05
  9.44867579e-06 -2.45026954e-05 -4.31650202e-06  2.70599500e-05  4.43121754e-05
 -3.51634483e-04  9.17761128e-04 -3.17099281e-04 -7.80938295e-05  4.43723487e-05
 -1.75883852e-04  1.98358780e-04  1.53149815e-04 -6.76443739e-05  8.18110189e-05
 -5.33872781e-04  8.85096023e-04 -8.82248772e-05  1.49182677e-05  2.85563589e-05
 -1.69080673e-04  3.16513489e-04  4.09124757e-05 -1.24628317e-04 -2.97167603e-05
  2.06647800e-04  7.56822016e-04  2.03927065e-04 -2.79960448e-04  1.84191645e-05
 -2.53740275e-03  1.07716364e-03 -1.21133430e-03  1.72027532e-03 -8.18938670e-04
  5.56867177e-04  4.84558906e-04 -6.35173332e-04 -1.40939543e-04 -1.02136006e-04
  1.40790591e-04  1.06458518e-03  2.06012877e-04 -5.25563218e-04  2.75177016e-04
  5.13019705e-05  1.26605967e-04 -8.43048291e-06  3.56681241e-05  1.30620321e-02
  1.53107348e-03 -5.59697668e-03 -5.73442961e-04 -1.12850192e-03  2.40152347e-04
  1.18846471e-03  3.10362882e-03 -1.07872529e-04 -8.70682566e-04 -2.69469187e-04
 -5.50305723e-04 -6.92646507e-04  7.87895092e-04 -1.00656657e+00 -1.66795119e-02
  2.11542521e-02  2.87307784e-04 -1.85949131e-04  4.20273117e-04  4.94825454e-03
  1.96749013e-04 -1.66554686e-03  1.08908618e-03  8.08883217e-05  9.58422594e-05
 -6.79296094e-04 -5.47290544e-04  1.95483605e-03  7.19827569e-04 -5.69033048e-03
 -2.96339735e-04  6.16855760e-04  1.05494432e-04  4.96369624e-04 -3.38476862e-03
 -2.44562830e-05 -6.99555228e-04 -2.77587453e-04  2.69362060e-04 -4.94652246e-04
 -1.20248015e-03 -1.84197230e-05 -3.14843378e-05  4.53693373e-04 -2.38848501e-05
  2.65306906e-05  4.71420490e-05  1.83631761e-04  7.68060453e-04 -7.18598301e-05
  1.22402963e-04 -1.41001097e-05  7.61389139e-06 -6.40253952e-05 -2.29921928e-04
  1.35143430e-04 -4.87697614e-04  5.38737766e-05  9.27789887e-06  4.11715633e-05
 -1.83872901e-07 -4.52461784e-04 -5.01046233e-05  1.48410236e-05  4.94179967e-05
  1.73551421e-04 -1.58834881e-04 -1.62681135e-05 -1.00842732e-04  1.09867864e-04
  2.91142686e-04 -8.41465546e-04 -1.82352695e-04  1.98139401e-04 -2.59909533e-05
  2.51803103e-03 -9.88449670e-04  2.24490099e-03  1.48888434e-05  1.32871425e-04
 -4.72493886e-05 -5.81681215e-04 -3.20912843e-04  2.84759741e-05 -1.47293691e-04
  1.00727388e+00  1.80663578e-02 -1.94352167e-02  4.07737146e-04 -3.10062234e-04
  1.05000442e-04  2.65007702e-03  1.27571780e-03 -4.20656970e-04 -1.53947844e-04
  1.73871589e-04 -3.70094428e-04 -9.59765818e-04  2.82424201e-04 -2.45551215e-03
 -2.16897846e-04  1.78266068e-03 -4.97935933e-04  5.89444132e-05 -3.16217497e-06
  3.49863223e-03  1.69960135e-03 -3.08090738e-04  7.14372477e-04  1.57425365e-04
 -4.77366091e-05 -1.27720360e-03 -1.46281426e-04 -1.17588996e-04 -6.46716284e-04
  2.83517197e-03 -2.40026635e-04 -3.51659146e-05 -2.07209528e-05  1.17503559e-03
  2.22660456e-03 -3.40680303e-04 -3.65563692e-04  1.47212333e-05 -1.30742044e-04
 -2.69837384e-04 -1.91905756e-04 -1.94281929e-04 -5.60874271e-04 -3.91824923e-05
 -1.50910114e-04 -2.32018357e-04 -7.33361418e-05 -5.76695774e-04  6.70961268e-04
  1.95318668e-04 -8.41211773e-05 -4.07346342e-05 -4.24352155e-05 -5.31622576e-05
  2.12747431e-04 -1.04174459e-04 -1.90492284e-04  5.43039962e-04  9.39259330e-05
 -3.98232300e-05 -8.81295705e-05 -7.15898735e-04 -8.44445224e-06  3.34781562e-04
 -7.93612795e-05 -1.21805549e-05  4.42462920e-05  2.25493912e-05  1.22932397e-05
 -1.40365124e-03  3.39038151e-03  4.78167573e-04 -1.72321939e-03 -8.85209805e-04
 -1.95355380e-03  1.51349106e-03  8.77403253e-04  1.79763203e-03 -1.01463992e-03
 -9.50924977e-04  2.17908253e-03  5.34643350e-04 -3.04657645e-04  1.77813033e-03
 -5.17737961e-05  3.96892120e-04  1.51980540e-05 -2.12417002e-05 -3.99285846e-05
  1.97658062e-05  4.80263366e-04  1.66531150e-05 -1.58484101e-04  2.38858856e-05
 -3.00673041e-04  1.37908496e-04 -3.53012631e-04 -1.71823844e-04  5.38332787e-05
  1.09143001e-03 -1.40864381e-02 -1.96608429e-03  4.29153824e-03  7.44911719e-03
  4.30864692e-05  3.19917248e-04 -2.04010967e-03  5.79514348e-04  6.20970893e-04
  2.15491583e-04  1.69478928e-04 -3.69159627e-04 -7.93476961e-04  1.87270980e-04
 -1.93110818e-02  4.89730873e-03 -1.83508066e-03  1.20420522e-02 -1.20243184e-03
 -7.72602149e-04 -6.15576233e-03  9.78126057e-04  9.70521449e-04  4.23966155e-04
  5.24974205e-04  1.00815889e-03 -5.96157573e-04  4.06999892e-03 -3.56112243e-02
 -3.07965318e-02 -2.26426826e-02  1.67077086e-02  4.37170201e-03 -1.87005150e-02
 -1.09861352e-03  3.51753681e-03  3.74839207e-03  1.76301926e-03 -7.89394840e-04
 -1.46568350e-03  8.72954960e-03  1.52364345e-02 -2.21518750e-01 -9.08291527e-02
 -1.82302542e-01  1.39491955e-02  1.70508666e-02 -1.46788756e-02  4.01240440e-04
  1.63446066e-04  1.39527150e-02  6.21875467e-03  1.50462197e-03 -3.19962791e-02
  9.64496241e-03  9.85196499e-03 -4.00016300e-01 -3.62598578e-01  1.53047399e-01
 -2.68944872e-02 -1.24029354e-02  3.19731280e-02 -9.72805680e-03 -1.45957121e-03
  5.84251115e-03  2.19997803e-03  9.60978613e-04 -1.15483542e-02  3.76994615e-03
 -2.25083342e-02 -5.33294605e-03  1.97834223e-03  2.26941525e-04 -1.55438815e-03
 -1.92509397e-03  2.00829385e-03  2.33351072e-04  3.95198066e-04 -1.07274551e-04
 -5.61371036e-03 -1.34027465e-03  5.80601462e-04  7.47038438e-04  8.22457668e-04
 -4.32588600e-02  1.95684410e-03 -9.15651643e-03 -7.37506001e-03 -9.13306952e-04
 -6.40692915e-03 -5.78844529e-03 -8.77896050e-04  1.80028752e-03  1.04147521e-04
 -2.41783398e-03  1.88123308e-03  8.03816345e-05  8.33495497e-04 -1.64953704e-04
  1.27240873e-02 -1.80114814e-01 -7.17291180e-02  7.02451728e-02  1.71643940e-02
 -4.56926699e-03  1.00963851e-03 -1.06872944e-02  6.33369068e-03  5.80732128e-03
  9.02393080e-04 -3.53790194e-04 -1.05962204e-02 -2.53709923e-03  1.99894799e-02
 -2.85807018e-01 -2.06738980e-01 -9.71233641e-03  7.90042844e-02 -8.00947147e-03
 -3.09089942e-02  3.15643147e-02 -7.94224936e-03  1.05249085e-02  2.35918569e-03
  2.27357069e-03 -1.64199991e-03 -7.69520656e-03  1.74569334e-02 -2.50282184e-01
 -1.31032192e-01 -6.45242284e-02 -5.53290504e-02  2.64335157e-02 -2.97946092e-03
 -1.66438542e-02  6.32443634e-03  6.67377545e-03  2.98707627e-03  3.00226942e-03
  7.80303775e-03 -8.01526346e-03  2.74858740e-03 -6.05756194e-02 -4.81786941e-02
  8.14071663e-02 -8.26286481e-02 -8.13542110e-03  2.18731222e-02 -2.41884805e-02
 -4.33249819e-03  3.02962887e-03 -4.05862700e-04 -1.05134524e-03  1.38507009e-02
  3.46226042e-03 -5.64587706e-04  8.58530719e-02  8.48474664e-02 -1.67710368e-02
 -2.16035603e-02  1.82565650e-03 -1.34792405e-04 -8.96977659e-03  1.14875311e-04
  6.00478740e-05 -2.48447052e-04 -3.89413672e-04  2.01726929e-03  1.83763013e-03
 -7.84193864e-02 -2.72082913e-04  4.18203104e-03 -9.95962449e-03 -5.26959587e-03
 -5.74862916e-02  1.45006530e-03  5.57459119e-03  7.79999672e-03 -3.84171260e-03
 -6.70443059e-02 -4.97506223e-03  4.98363804e-03 -3.80591477e-04  8.62682446e-03
 -1.50328071e-02 -1.37274033e-03  7.78900124e-04 -2.89033594e-03 -1.46685030e-04
 -7.79113689e-02 -2.24205164e-03 -1.34332282e-02 -2.50430037e-03  8.44959251e-04
 -9.28950067e-02 -1.40855285e-02 -6.41108531e-03  1.24202331e-02 -4.41231776e-03
  1.58746095e-02 -2.78196010e-01 -1.15217734e-01  1.75852875e-02  4.46088174e-03
 -3.18515178e-03 -1.55919060e-02 -9.88517346e-03  3.72340396e-03  1.17375409e-03
 -5.35106019e-05 -6.11752007e-04 -2.72188753e-03  2.94989986e-03  5.31458641e-03
 -4.92905000e-02 -9.00270375e-02 -1.38668922e-01 -8.05393539e-02  1.60238092e-02
 -8.24761735e-02  6.27681333e-04 -1.41462669e-03  3.72815932e-03 -1.38303379e-04
 -1.20342934e-03 -1.80058822e-02  7.02240242e-03 -1.35776505e-02  2.26622895e-01
  1.68319883e-01 -2.19321231e-03 -6.25066938e-02 -1.38857037e-02  3.13189458e-02
 -2.77314744e-02 -2.90380113e-03 -3.79046111e-03 -3.78254162e-04  1.90691685e-03
 -9.12733884e-03 -7.44951580e-03 -3.70025558e-03  1.72163085e-01  8.62521989e-02
 -1.09631642e-01  5.89413313e-02  1.02895343e-02 -3.83522734e-02  1.00086834e-02
  9.74372119e-04 -1.99645241e-03  3.59089341e-04  8.96031923e-04 -7.87915922e-03
 -9.06944990e-03 -7.26017761e-05 -7.96168895e-02 -8.37073076e-02 -3.59108106e-02
 -7.90403459e-03  4.95458017e-03 -2.57145498e-02 -5.87745353e-03  2.12220240e-03
 -9.29002269e-04 -2.72583389e-04  5.18854510e-04  2.65922139e-03 -1.67989931e-03
 -1.38207593e-01 -2.14080625e-02  5.38571741e-03 -1.40137285e-02 -7.97501917e-03
 -1.27087419e-01 -1.17605779e-02  7.11491050e-03  1.49016596e-02 -7.57578922e-03
 -1.26826727e-01 -1.90123107e-02  6.74408781e-03 -1.92146461e-03  1.53230270e-02
  8.25670929e-02  5.52819750e-03  3.41369800e-03  1.00551558e-02  1.97002296e-03
  1.15120354e-01  2.07898458e-02  1.48723921e-02 -6.53314525e-04 -3.82727559e-04
 -2.55706084e-02 -1.57546424e-02 -3.80599511e-03  1.83737368e-04 -7.20660060e-04
  6.87936509e-03 -1.79146401e-01 -9.71493280e-02 -7.39809843e-02  1.11679866e-02
 -9.39336120e-03 -4.02638900e-02 -4.57461377e-03  4.64629363e-03 -5.39829869e-03
 -7.57361813e-04 -2.10537309e-04  7.57068257e-03  1.27449442e-04 -5.48918398e-03
  2.16089478e-01  1.06154780e-01 -1.47465414e-01 -4.65293332e-03 -1.59157681e-03
 -4.88928695e-02  6.59456904e-03 -2.05422942e-03  3.27394812e-03 -2.13437375e-03
 -1.26841476e-03 -5.70097920e-03  5.31988562e-03 -1.64567968e-03  8.41994378e-03
  2.44196179e-02 -7.04842583e-03  2.41772380e-01 -1.33495872e-02  3.17234161e-03
  7.19000396e-02 -5.18023829e-03  1.20009193e-03 -4.14676705e-04 -7.06586313e-03
  5.75518005e-05  1.22765238e-02  3.30747105e-03 -2.23824060e-01 -1.53433394e-01
  1.54318878e-01 -1.38802674e-02 -7.61973307e-03  4.69251973e-02 -2.33964399e-02
 -5.23137849e-03 -1.12368982e-03 -1.37069493e-05 -1.09384112e-03  6.06424480e-03
 -2.02107200e-04  1.02252057e-03  1.24749222e-01  1.46683401e-01  4.81224198e-02
 -1.45913564e-02 -1.20768475e-03  3.85630694e-02 -6.96152196e-03 -1.92601777e-03
  2.47731588e-03  2.16597726e-04 -3.90994922e-04 -1.96921173e-03  3.06827398e-04
 -1.01559850e-01 -4.04937293e-03  1.70252635e-03 -1.19281882e-02 -5.20179708e-03
 -1.02642180e-01 -1.39308715e-02  2.95086859e-03  1.06947211e-02 -5.72643948e-03
 -1.13916563e-01 -2.19478505e-02  3.99381727e-03 -1.24889819e-03  1.13310336e-02
 -1.55750776e-01 -3.18310075e-02 -6.19719822e-03 -1.38044218e-02 -2.68872080e-03
  1.54260905e-04  6.31017384e-04 -7.30240086e-05  4.82678486e-03 -2.22305703e-04
  1.57257014e-01  2.59480247e-02  6.76429972e-03 -1.49968691e-02  6.10804882e-03
 -5.97654897e-04  1.27570512e-02  5.55747726e-03  8.97146291e-02 -1.28683360e-01
  1.93032624e-02  2.40186886e-02 -3.82809859e-02  1.09466252e-02  3.94377519e-03
 -1.57413508e-03  2.13555066e-03 -8.95453446e-03  5.62626086e-03  3.05287596e-03
 -1.42348044e-01 -1.08132481e-01 -9.15378382e-03 -2.04634652e-01  5.86755822e-02
 -2.81463535e-02 -6.39662636e-02  1.32460101e-02 -3.93350234e-03 -1.84378032e-03
 -5.06071189e-04 -3.61883916e-03  2.52060841e-03 -3.03649249e-03  1.45421212e-01
  1.03190092e-01  1.82005495e-02 -3.40899596e-03  7.39058759e-03  2.41920010e-02
 -2.46455686e-02  1.04897632e-02  2.02723717e-03 -3.94698317e-04  1.46471519e-03
  1.15406808e-02 -7.91370695e-04 -1.16486221e-03 -1.56978260e-01 -1.14404708e-01
  2.76996220e-02  2.39638500e-01  3.35113277e-02  3.48955841e-02  5.08781268e-02
  1.25794259e-03 -4.69548595e-03 -1.68891738e-03 -5.18311244e-04 -5.09309067e-04
  3.11506578e-03 -1.25526013e-03  8.14439535e-02  1.23441368e-01  1.54650010e-01
  1.35253235e-01 -2.23135786e-03  8.46364400e-02  7.63104412e-02  3.67109593e-04
  3.15502731e-03 -1.36155586e-04  5.82846281e-05 -9.79682608e-03 -7.11201065e-03
  1.25429860e-01  4.54055427e-02 -3.39323603e-03  1.47630135e-03  6.32615790e-03
 -4.43356240e-02 -9.07421024e-03  4.12485678e-03 -6.11488762e-05 -1.34440963e-03
  5.58074128e-02  1.46953839e-02  6.24316111e-05 -4.07771129e-03 -4.74475547e-03
 -2.21303778e-01 -5.61819435e-02 -1.03839328e-02 -1.35300257e-02 -3.09652613e-03
  7.77904494e-02  2.81387196e-02  8.07113822e-03  9.90469434e-04 -1.64211961e-04
 -2.04014141e-01 -5.79827886e-02 -1.03506841e-02  1.15238656e-02 -5.45031792e-03
  1.48032418e-03 -6.50006051e-02 -3.99583971e-02 -1.50061727e-01 -9.29324779e-02
  3.37991609e-03 -3.62660326e-02 -4.87583354e-02 -2.98354020e-03 -6.06597410e-03
 -1.71762262e-03  2.18609766e-03  6.55177739e-03  3.92388477e-03  5.28228966e-04
  8.24990663e-02  6.06624421e-02  1.18955072e-01 -1.10406634e-01  1.25598893e-02
  7.01635718e-02 -3.48849577e-02  1.28432947e-03  1.09071921e-03  1.06179799e-03
  1.21152539e-03 -1.09886118e-02 -1.21776923e-02  6.41653892e-03 -8.67136156e-02