Generated by Psi4
        SP                           RHF                       CC-PVDZ
Number of atoms                            I               11
Charge                                     I                0
Multiplicity                               I                1
Number of electrons                        I               38
Number of alpha electrons                  I               19
Number of beta electrons                   I               19
Number of basis functions                  I              100
Number of independent functions            I              100
Atomic numbers                             I   N=          11
           6           6           6           6           8           1
           1           1           1           1           1
Nuclear charges                            R   N=          11
  6.00000000e+00  6.00000000e+00  6.00000000e+00  6.00000000e+00  8.00000000e+00
  1.00000000e+00  1.00000000e+00  1.00000000e+00  1.00000000e+00  1.00000000e+00
  1.00000000e+00
Current cartesian coordinates              R   N=          33
  2.02223593e+00  2.71149941e+00 -2.15721563e-01 -7.88571750e-01  2.38488213e+00
 -1.07815045e-01 -2.08728696e+00  1.89762019e-01  1.20633412e-02 -9.22933545e-01
 -2.34188954e+00  7.06912628e-02  1.33748277e+00 -2.76296837e+00  2.20736481e-01
  2.94649660e+00  1.18167444e+00 -1.27131449e+00  2.52722694e+00  4.56752176e+00
 -1.00864942e+00  2.81458102e+00  2.61894023e+00  1.71430295e+00 -2.30165737e+00
 -3.94990775e+00 -2.94565118e-02 -4.15598298e+00  2.44025108e-01  6.21243028e-02
 -1.90433461e+00  4.13133094e+00 -1.03304911e-01
Integer atomic weights                     I   N=          11
          12          12          12          12          16           1
           1           1           1           1           1
Real atomic weights                        R   N=          11
  1.20000000e+01  1.20000000e+01  1.20000000e+01  1.20000000e+01  1.59949146e+01
  1.00782503e+00  1.00782503e+00  1.00782503e+00  1.00782503e+00  1.00782503e+00
  1.00782503e+00
Number of primitive shells                 I              140
Number of contracted shells                I               48
Pure/Cartesian d shells                    I                0
Pure/Cartesian f shells                    I                0
Highest angular momentum                   I                2
Largest degree of contraction              I                8
Shell types                                I   N=          48
           0           0           0           1           1          -2
           0           0           0           1           1          -2
           0           0           0           1           1          -2
           0           0           0           1           1          -2
           0           0           0           1           1          -2
           0           0           1           0           0           1
           0           0           1           0           0           1
           0           0           1           0           0           1
Number of primitives per shell             I   N=          48
           8           8           1           3           1           1
           8           8           1           3           1           1
           8           8           1           3           1           1
           8           8           1           3           1           1
           8           8           1           3           1           1
           3           1           1           3           1           1
           3           1           1           3           1           1
           3           1           1           3           1           1
Shell to atom map                          I   N=          48
           1           1           1           1           1           1
           2           2           2           2           2           2
           3           3           3           3           3           3
           4           4           4           4           4           4
           5           5           5           5           5           5
           6           6           6           7           7           7
           8           8           8           9           9           9
          10          10          10          11          11          11
Primitive exponents                        R   N=         140
  6.66500000e+03  1.00000000e+03  2.28000000e+02  6.47100000e+01  2.10600000e+01
  7.49500000e+00  2.79700000e+00  5.21500000e-01  6.66500000e+03  1.00000000e+03
  2.28000000e+02  6.47100000e+01  2.10600000e+01  7.49500000e+00  2.79700000e+00
  5.21500000e-01  1.59600000e-01  9.43900000e+00  2.00200000e+00  5.45600000e-01
  1.51700000e-01  5.50000000e-01  6.66500000e+03  1.00000000e+03  2.28000000e+02
  6.47100000e+01  2.10600000e+01  7.49500000e+00  2.79700000e+00  5.21500000e-01
  6.66500000e+03  1.00000000e+03  2.28000000e+02  6.47100000e+01  2.10600000e+01
  7.49500000e+00  2.79700000e+00  5.21500000e-01  1.59600000e-01  9.43900000e+00
  2.00200000e+00  5.45600000e-01  1.51700000e-01  5.50000000e-01  6.66500000e+03
  1.00000000e+03  2.28000000e+02  6.47100000e+01  2.10600000e+01  7.49500000e+00
  2.79700000e+00  5.21500000e-01  6.66500000e+03  1.00000000e+03  2.28000000e+02
  6.47100000e+01  2.10600000e+01  7.49500000e+00  2.79700000e+00  5.21500000e-01
  1.59600000e-01  9.43900000e+00  2.00200000e+00  5.45600000e-01  1.51700000e-01
  5.50000000e-01  6.66500000e+03  1.00000000e+03  2.28000000e+02  6.47100000e+01
  2.10600000e+01  7.49500000e+00  2.79700000e+00  5.21500000e-01  6.66500000e+03
  1.00000000e+03  2.28000000e+02  6.47100000e+01  2.10600000e+01  7.49500000e+00
  2.79700000e+00  5.21500000e-01  1.59600000e-01  9.43900000e+00  2.00200000e+00
  5.45600000e-01  1.51700000e-01  5.50000000e-01  1.17200000e+04  1.75900000e+03
  4.00800000e+02  1.13700000e+02  3.70300000e+01  1.32700000e+01  5.02500000e+00
  1.01300000e+00  1.17200000e+04  1.75900000e+03  4.00800000e+02  1.13700000e+02
  3.70300000e+01  1.32700000e+01  5.02500000e+00  1.01300000e+00  3.02300000e-01
  1.77000000e+01  3.85400000e+00  1.04600000e+00  2.75300000e-01  1.18500000e+00
  1.30100000e+01  1.96200000e+00  4.44600000e-01  1.22000000e-01  7.27000000e-01
  1.30100000e+01  1.96200000e+00  4.44600000e-01  1.22000000e-01  7.27000000e-01
  1.30100000e+01  1.96200000e+00  4.44600000e-01  1.22000000e-01  7.27000000e-01
  1.30100000e+01  1.96200000e+00  4.44600000e-01  1.22000000e-01  7.27000000e-01
  1.30100000e+01  1.96200000e+00  4.44600000e-01  1.22000000e-01  7.27000000e-01
  1.30100000e+01  1.96200000e+00  4.44600000e-01  1.22000000e-01  7.27000000e-01
Contraction coefficients                   R   N=         140
  6.91583963e-04  5.32579615e-03  2.70607210e-02  1.01656846e-01  2.74574824e-01
  4.48294319e-01  2.84902611e-01  1.51948592e-02 -2.93269653e-04 -2.31803547e-03
 -1.14997860e-02 -4.68267270e-02 -1.28466169e-01 -3.01266272e-01 -2.55630702e-01
  1.09379336e+00  1.00000000e+00  5.69792516e-02  3.13207212e-01  7.60376742e-01
  1.00000000e+00  1.00000000e+00  6.91583963e-04  5.32579615e-03  2.70607210e-02
  1.01656846e-01  2.74574824e-01  4.48294319e-01  2.84902611e-01  1.51948592e-02
 -2.93269653e-04 -2.31803547e-03 -1.14997860e-02 -4.68267270e-02 -1.28466169e-01
 -3.01266272e-01 -2.55630702e-01  1.09379336e+00  1.00000000e+00  5.69792516e-02
  3.13207212e-01  7.60376742e-01  1.00000000e+00  1.00000000e+00  6.91583963e-04
  5.32579615e-03  2.70607210e-02  1.01656846e-01  2.74574824e-01  4.48294319e-01
  2.84902611e-01  1.51948592e-02 -2.93269653e-04 -2.31803547e-03 -1.14997860e-02
 -4.68267270e-02 -1.28466169e-01 -3.01266272e-01 -2.55630702e-01  1.09379336e+00
  1.00000000e+00  5.69792516e-02  3.13207212e-01  7.60376742e-01  1.00000000e+00
  1.00000000e+00  6.91583963e-04  5.32579615e-03  2.70607210e-02  1.01656846e-01
  2.74574824e-01  4.48294319e-01  2.84902611e-01  1.51948592e-02 -2.93269653e-04
 -2.31803547e-03 -1.14997860e-02 -4.68267270e-02 -1.28466169e-01 -3.01266272e-01
 -2.55630702e-01  1.09379336e+00  1.00000000e+00  5.69792516e-02  3.13207212e-01
  7.60376742e-01  1.00000000e+00  1.00000000e+00  7.09645947e-04  5.46727229e-03
  2.78231186e-02  1.04747740e-01  2.82920846e-01  4.48495239e-01  2.70816885e-01
  1.54502916e-02 -3.14443412e-04 -2.48213768e-03 -1.23163554e-02 -5.05389173e-02
 -1.39384903e-01 -3.25077495e-01 -2.29848308e-01  1.09537935e+00  1.00000000e+00
  6.26791663e-02  3.33536566e-01  7.41239642e-01  1.00000000e+00  1.00000000e+00
  3.34987264e-02  2.34800801e-01  8.13682958e-01  1.00000000e+00  1.00000000e+00
  3.34987264e-02  2.34800801e-01  8.13682958e-01  1.00000000e+00  1.00000000e+00
  3.34987264e-02  2.34800801e-01  8.13682958e-01  1.00000000e+00  1.00000000e+00
  3.34987264e-02  2.34800801e-01  8.13682958e-01  1.00000000e+00  1.00000000e+00
  3.34987264e-02  2.34800801e-01  8.13682958e-01  1.00000000e+00  1.00000000e+00
  3.34987264e-02  2.34800801e-01  8.13682958e-01  1.00000000e+00  1.00000000e+00
Coordinates of each shell                  R   N=         144
  2.02223593e+00  2.71149941e+00 -2.15721563e-01  2.02223593e+00  2.71149941e+00
 -2.15721563e-01  2.02223593e+00  2.71149941e+00 -2.15721563e-01  2.02223593e+00
  2.71149941e+00 -2.15721563e-01  2.02223593e+00  2.71149941e+00 -2.15721563e-01
  2.02223593e+00  2.71149941e+00 -2.15721563e-01 -7.88571750e-01  2.38488213e+00
 -1.07815045e-01 -7.88571750e-01  2.38488213e+00 -1.07815045e-01 -7.88571750e-01
  2.38488213e+00 -1.07815045e-01 -7.88571750e-01  2.38488213e+00 -1.07815045e-01
 -7.88571750e-01  2.38488213e+00 -1.07815045e-01 -7.88571750e-01  2.38488213e+00
 -1.07815045e-01 -2.08728696e+00  1.89762019e-01  1.20633412e-02 -2.08728696e+00
  1.89762019e-01  1.20633412e-02 -2.08728696e+00  1.89762019e-01  1.20633412e-02
 -2.08728696e+00  1.89762019e-01  1.20633412e-02 -2.08728696e+00  1.89762019e-01
  1.20633412e-02 -2.08728696e+00  1.89762019e-01  1.20633412e-02 -9.22933545e-01
 -2.34188954e+00  7.06912628e-02 -9.22933545e-01 -2.34188954e+00  7.06912628e-02
 -9.22933545e-01 -2.34188954e+00  7.06912628e-02 -9.22933545e-01 -2.34188954e+00
  7.06912628e-02 -9.22933545e-01 -2.34188954e+00  7.06912628e-02 -9.22933545e-01
 -2.34188954e+00  7.06912628e-02  1.33748277e+00 -2.76296837e+00  2.20736481e-01
  1.33748277e+00 -2.76296837e+00  2.20736481e-01  1.33748277e+00 -2.76296837e+00
  2.20736481e-01  1.33748277e+00 -2.76296837e+00  2.20736481e-01  1.33748277e+00
 -2.76296837e+00  2.20736481e-01  1.33748277e+00 -2.76296837e+00  2.20736481e-01
  2.94649660e+00  1.18167444e+00 -1.27131449e+00  2.94649660e+00  1.18167444e+00
 -1.27131449e+00  2.94649660e+00  1.18167444e+00 -1.27131449e+00  2.52722694e+00
  4.56752176e+00 -1.00864942e+00  2.52722694e+00  4.56752176e+00 -1.00864942e+00
  2.52722694e+00  4.56752176e+00 -1.00864942e+00  2.81458102e+00  2.61894023e+00
  1.71430295e+00  2.81458102e+00  2.61894023e+00  1.71430295e+00  2.81458102e+00
  2.61894023e+00  1.71430295e+00 -2.30165737e+00 -3.94990775e+00 -2.94565118e-02
 -2.30165737e+00 -3.94990775e+00 -2.94565118e-02 -2.30165737e+00 -3.94990775e+00
 -2.94565118e-02 -4.15598298e+00  2.44025108e-01  6.21243028e-02 -4.15598298e+00
  2.44025108e-01  6.21243028e-02 -4.15598298e+00  2.44025108e-01  6.21243028e-02
 -1.90433461e+00  4.13133094e+00 -1.03304911e-01 -1.90433461e+00  4.13133094e+00
 -1.03304911e-01 -1.90433461e+00  4.13133094e+00 -1.03304911e-01
Total Energy                               R     -2.312416122582966e+02
Alpha Orbital Energies                     R   N=         100
 -1.91347496e+01 -1.02728511e+01 -1.02227683e+01 -1.01974702e+01 -1.01924047e+01
 -1.03897198e+00 -8.09008324e-01 -7.18047496e-01 -6.29073296e-01 -5.32701836e-01
 -4.96119537e-01 -4.42057355e-01 -4.31419792e-01 -4.21170175e-01 -3.86266240e-01
 -3.79180060e-01 -3.74618404e-01 -2.73622385e-01 -2.49883091e-01 -6.56634973e-02
  5.59155068e-02  6.16913594e-02  8.81445943e-02  1.04365088e-01  1.29703524e-01
  1.45995146e-01  1.54821086e-01  2.16200552e-01  2.59931644e-01  3.23801578e-01
  3.40500843e-01  4.29674809e-01  4.38259209e-01  4.52548525e-01  4.77144576e-01
  4.84054219e-01  5.08160731e-01  5.26140213e-01  5.61514503e-01  6.04448397e-01
  6.13452199e-01  6.26425258e-01  6.35536268e-01  6.48671309e-01  6.62647576e-01
  6.85311920e-01  7.00883684e-01  7.65501468e-01  8.28131424e-01  8.55179098e-01
  9.11690433e-01  9.34798950e-01  9.78481918e-01  9.90467906e-01  1.02017791e+00
  1.03714941e+00  1.07791958e+00  1.15652717e+00  1.18134557e+00  1.19858222e+00
  1.29776953e+00  1.36415759e+00  1.38838087e+00  1.44539461e+00  1.47402841e+00
  1.49333047e+00  1.54712027e+00  1.56459730e+00  1.61837758e+00  1.62154035e+00
  1.64765899e+00  1.66461435e+00  1.67093878e+00  1.68902489e+00  1.72790938e+00
  1.75198749e+00  1.78850882e+00  1.80455933e+00  1.84695794e+00  1.91867077e+00
  1.95740562e+00  1.97708798e+00  2.01494634e+00  2.06532033e+00  2.11086485e+00
  2.22585070e+00  2.31037789e+00  2.33323723e+00  2.39629224e+00  2.41276801e+00
  2.42521456e+00  2.48963650e+00  2.57734919e+00  2.65096249e+00  2.69508177e+00
  2.78683292e+00  2.96444844e+00  3.06636994e+00  3.42068458e+00  3.48083676e+00
Alpha MO coefficients                      R   N=       10000
 -4.39683641e-05 -9.90825025e-05 -2.92201638e-05  6.51321238e-05  2.30366278e-05
  1.49389646e-05 -5.76611832e-07  8.05622434e-05  1.86839056e-04  5.14702746e-05
  2.69132366e-05  5.94119977e-05  5.84062802e-05 -1.05156606e-04 -2.29583119e-04
 -4.07677618e-04  5.88611298e-03 -1.92927300e-05 -1.03208637e-05 -2.15976346e-05
 -1.10843882e-03 -2.60211405e-03  1.91792886e-04 -4.36901109e-05 -9.34513256e-06
  4.78481499e-07 -4.36900387e-05 -3.79021112e-05  2.24808257e-04  3.45491884e-04
 -4.61680602e-03  1.91672019e-05  2.92620771e-04 -1.71277346e-05 -4.82194547e-03
 -3.62080945e-03  4.75476051e-05  1.45224338e-04 -5.32194408e-06  5.71631370e-05
 -3.22606701e-04  5.12789348e-04  4.41199926e-04  5.75342566e-04  5.49882263e-03
 -1.11303613e-04 -1.71030370e-04 -7.08256300e-06  6.69960425e-03  6.58791296e-04
  3.62578407e-04 -4.26008009e-05 -5.46074481e-05  2.74531550e-05 -1.14979437e-03
  5.27552331e-04  1.00417176e+00  9.47385058e-03 -1.51696946e-02 -1.82952342e-03
  3.63260642e-04 -1.37945307e-04  3.50114147e-03 -8.67824938e-04  2.54743752e-04
 -2.10245617e-05  8.42100220e-06 -2.12783147e-08  6.61954800e-05  8.12969028e-06
 -8.17127480e-05 -2.66524113e-05  5.52555641e-05  4.04726541e-05 -5.84329685e-06
  1.05970652e-04  2.78817266e-04 -6.59789153e-05 -7.98925847e-05  2.75846922e-05
 -5.53074669e-05 -2.36398456e-04  5.60531349e-05  3.61112179e-05  4.31354039e-05
 -1.22629940e-04  9.72166235e-04 -7.62203864e-04  1.21827995e-04 -4.25003843e-05
 -2.69414985e-04 -1.36315698e-03  1.89056871e-04  2.61170861e-04  1.10300974e-05
 -1.73371887e-04  2.98025915e-04  5.79801760e-05  8.92584006e-05 -1.19530999e-05
 -3.30691971e-04 -4.25463968e-04  8.33352938e-04  2.96980201e-04  5.55453348e-05
 -1.03040276e-05 -5.79046581e-04  2.91994863e-04  1.14167943e-04  1.79783389e-05
 -1.24487003e-05  3.39571982e-05 -1.26380629e-04 -7.91063278e-05 -4.26556132e-04
 -6.30634938e-04  7.01922342e-03 -2.68255600e-04 -2.73142808e-05  1.21315662e-05
 -2.39547711e-03 -4.12933791e-03  2.32665886e-04 -4.43556893e-04 -7.46676537e-05
 -4.71524911e-05  3.37761695e-04  3.89430587e-04  1.63118640e-03 -2.34933411e-04
 -2.44519574e-03 -3.39324056e-04  7.47686170e-04 -1.26944334e-05 -2.81392785e-03
 -6.29355347e-03  2.25418354e-04  1.05772261e-03 -4.69354434e-05  6.44189768e-05
  1.17692710e-03  8.01210491e-04  1.00592471e+00  1.52478231e-02 -1.08279118e-02
  7.22505632e-04 -4.88418238e-04  5.36988309e-05  5.46494381e-03 -2.10951355e-03
  2.52335507e-04 -1.64129550e-03  2.64748734e-04  9.58248671e-06  8.19064243e-04
  3.14634138e-05  3.66666329e-04  9.13681741e-04 -5.95492256e-03  7.35385051e-04
 -2.22510258e-04  3.94205647e-05  3.38116359e-03 -2.39521422e-04  2.58441558e-04
  5.58507898e-04 -1.09975983e-04  1.63439964e-05 -7.05245752e-04  2.71362409e-04
 -7.48811343e-05  7.16112782e-05  7.82643086e-05  3.16050725e-05 -1.52598807e-05
 -4.21245252e-05  2.64614372e-04 -5.90816043e-05 -4.61834616e-05 -2.76929957e-06
 -4.91350646e-05 -6.16734697e-05  8.31395690e-05  2.05672677e-05 -2.39264647e-05
 -1.64374831e-03  2.49651981e-03 -1.46238838e-03 -1.44390306e-03 -9.55019183e-05
 -4.81945744e-04 -4.65053611e-04  6.77275508e-05  3.27768794e-04 -1.68136335e-05
 -3.30116860e-05  6.56320268e-04  2.40237395e-04  1.08224191e-04 -1.17191005e-05
  3.32369562e-03 -4.58001883e-04  4.36063401e-03  7.46798631e-04  9.53795689e-05
  5.78620681e-05 -2.31038696e-03 -1.10535865e-03 -4.92867397e-04  7.95393689e-04
  1.25131078e-04 -6.68925519e-06 -1.04104885e-03 -3.33788482e-06  1.00628368e+00
  1.60650617e-02 -1.97649521e-02 -5.48881731e-04  2.42463824e-04  3.73798510e-05
 -2.15713076e-03  3.56303064e-03  5.55952307e-05 -1.09225762e-03 -3.20315307e-06
 -3.84101380e-05 -5.18734642e-04 -2.24223936e-04  1.29750858e-02 -1.29791788e-03
  4.64681299e-03 -7.80516156e-04 -1.10326532e-03  7.73659030e-05  2.66241336e-03
  2.31418636e-03 -2.22107825e-04  8.90628025e-04  7.27739005e-05  1.14337752e-04
  5.75245158e-04 -9.77222404e-04 -2.60614231e-04 -5.09445520e-04  1.03319576e-03
 -4.12644292e-05 -2.06655220e-04  1.12861060e-05 -1.71003181e-04  1.03735422e-03
  1.89919694e-05 -3.42613055e-04 -7.74314214e-06 -9.23204915e-06  1.93680225e-04
 -1.02047402e-04 -3.28904179e-05 -7.25432765e-05 -2.50926607e-04  1.25011212e-04
 -2.65606344e-06  1.75746544e-05 -4.31592155e-05 -2.57727775e-04 -5.92137302e-07
  1.13019679e-05 -1.43868448e-05  4.19492532e-06 -1.21480562e-05  1.37084055e-05
 -4.31455476e-04  1.27328109e-04 -2.58876011e-05  3.64531933e-05  7.75921835e-05
 -3.52772277e-04  2.93367253e-04  7.35683056e-05  8.30616373e-05  6.46102474e-05
 -4.75879192e-04  1.20032622e-03 -1.28674344e-04  1.75820947e-05  1.78532280e-05
 -2.05093808e-05  4.17163404e-04  5.45165093e-05 -5.25740853e-05 -7.36471066e-06
  9.45798154e-05  9.21199031e-04  1.21001136e-04 -2.30522495e-04  1.52011889e-05
 -2.33882325e-03  1.21229044e-03 -1.20838160e-03  1.77635641e-03  1.19683480e-05
  1.65064995e-03  3.95302276e-04  8.59744101e-06 -8.35925539e-05 -1.11958448e-04
  7.94404419e-05  7.09002673e-04 -1.91436180e-04 -1.22982756e-04  3.14182994e-04
  7.59758525e-05 -2.35286611e-05 -8.58687873e-05  2.21336604e-04  1.45007122e-02
  1.79867847e-03 -6.81859558e-03 -6.07534653e-04 -1.20966108e-03  6.62804664e-05
  5.80000669e-04  4.19553408e-03 -1.36126586e-04 -9.31259026e-04 -4.57660681e-05
 -9.70624722e-05 -5.10059866e-04  1.03213661e-03 -1.00648213e+00 -1.65439024e-02
  2.15702237e-02  3.24415212e-04 -3.03900001e-04  3.23119083e-05  5.58163098e-03
  3.54695976e-04 -1.76911198e-04  1.08546652e-03  7.97642050e-05  6.79710188e-05
 -3.74705900e-04 -3.83119630e-04  1.95238661e-03  8.12098395e-04 -5.79322951e-03
 -2.53899076e-04  7.48462081e-04 -1.69897044e-07 -6.85747758e-04 -3.51047023e-03
  4.80789521e-05 -6.91219114e-04 -3.19456548e-05 -6.45617020e-05 -6.40459526e-04
 -1.18818437e-03 -4.51003012e-05 -7.81689076e-05  9.31693548e-04 -2.74638582e-05
  7.50000314e-05  2.20942615e-05  9.54338578e-05  5.97386861e-04 -4.73127550e-05
  1.32066064e-04 -3.31787039e-05 -1.64882304e-05 -7.32730474e-05 -2.17694407e-04
  1.65350588e-04 -3.90663413e-04 -2.57282458e-05 -4.09814483e-05  5.69852950e-05
 -4.96859906e-05 -2.05916177e-04 -3.51609448e-05  6.93389526e-05  1.39300181e-05
 -5.15479202e-05 -1.25911179e-04 -4.99869337e-05 -6.07825308e-05  1.39200343e-04
  2.46325265e-04 -1.00510112e-03 -7.38941348e-05  2.04922829e-04 -2.27935609e-05
  2.44374915e-03 -7.74693360e-04  2.13693705e-03 -1.71473536e-04 -4.44190389e-05
 -9.66660938e-05 -1.01547479e-03 -2.60388356e-04  2.72398090e-05  1.27473378e-05
  1.00698208e+00  1.74185490e-02 -1.94504765e-02  4.52127252e-04  1.30671499e-04
  1.43513118e-04  2.93955661e-03  1.93847298e-04 -5.52843576e-04  2.21193050e-04
  3.42576036e-05 -5.54790501e-05 -5.88634295e-04 -1.45591677e-04 -3.57191674e-03
 -3.04091314e-04  1.84477927e-03 -4.95809892e-04  5.85397880e-05  2.43995562e-05
  4.51358775e-03  2.34128877e-03 -1.65175389e-04  6.13470514e-04  1.26217794e-04
  2.22662874e-05 -1.33950929e-03 -5.76117175e-04  1.08562754e-03 -5.34264744e-04
  3.46512594e-03 -1.92378110e-04  9.06074270e-05  1.09684132e-05  9.12193241e-04
  2.66064498e-03 -1.65128983e-04 -3.45064066e-04  7.74003277e-06 -2.46274341e-05
 -5.62615569e-04 -2.05477776e-04 -1.03095923e-04 -4.60642474e-04  6.57559474e-04
 -3.29197143e-05 -2.73834279e-04 -8.64547137e-06 -1.12894935e-04  5.28804537e-04
  3.99217413e-05 -1.53765252e-05 -2.24284395e-05  3.71865365e-06  4.18139345e-05
  3.65352675e-05 -7.27332152e-05 -1.45156936e-04  1.63655341e-04  8.66485749e-06
 -1.15823688e-04 -1.01928969e-05 -1.08971669e-04  2.24369111e-04  4.09438772e-05
 -4.33456231e-05  1.53114373e-06  1.63403773e-06  1.46699392e-06 -6.42651181e-07
 -1.22988895e-03  1.91563379e-03  6.99444610e-04 -1.44490374e-03 -1.00301807e-03
 -1.34163981e-03  1.92390478e-03  4.36553268e-04  1.80380777e-03 -7.55833580e-04
 -1.09944850e-03  2.34467018e-03  5.57685888e-04 -9.64793112e-05  1.81651216e-03
  1.64577460e-05  3.87672365e-04  6.48209371e-06  6.93484136e-05 -7.57835125e-06
  5.52113273e-05  3.65008543e-04  9.66312840e-05 -2.05508130e-04  1.01093902e-05
 -4.34862278e-04  2.43584268e-04 -3.67953145e-04 -1.14300523e-04  2.01552795e-05
 -4.83161069e-04  6.36911355e-03  5.69099603e-03 -3.05827641e-03 -3.05576165e-03
 -2.99268186e-05 -3.05064343e-03 -2.58194824e-03  9.97720557e-04 -6.15131520e-04
 -1.99294802e-04 -2.24482885e-04  1.81454556e-04  9.20728416e-04  5.95380364e-04
  1.65670978e-02 -1.32216080e-02 -1.65669860e-04 -1.05690203e-02  5.64450945e-04
 -2.18313700e-03  1.00549424e-02 -5.84005815e-04 -4.50122578e-04 -1.17104732e-04
 -2.59663995e-04 -1.67924263e-03  7.32808601e-04 -3.62494137e-03  3.68351596e-02
  3.28239850e-02  2.08620377e-02 -2.06142998e-02  9.27560643e-04  2.01719832e-02
  1.40674856e-03 -1.50055586e-04 -3.79423334e-03  2.37502614e-04 -5.83288204e-04
 -1.07745870e-03 -9.04461761e-03 -1.45918727e-02  2.24929958e-01  9.44471057e-02
  1.84328533e-01 -2.58112726e-02  1.21748179e-02  1.20179313e-02 -3.10582093e-03
  1.08590282e-03 -1.34545119e-02  3.48336869e-03 -1.04264161e-03  3.10016823e-02
 -1.41201771e-02 -9.12922250e-03  4.02208700e-01  3.60209999e-01 -1.55027494e-01
  3.19703032e-02 -1.07034168e-02 -3.16283925e-02  7.24472757e-03 -2.59098184e-03
 -5.22401200e-03  1.39199349e-03 -5.03034491e-04  1.20842018e-02 -5.17264399e-03
  4.92861762e-03  2.91804082e-03 -6.40316496e-04 -4.87057708e-04  5.88066691e-04
  9.78049342e-04  5.46764596e-05  2.68438649e-05  1.29905005e-05 -4.09047966e-05
  1.82275556e-03  8.40797740e-04 -2.66483168e-04 -1.89963323e-04 -4.39328055e-04
  3.93984970e-02 -3.64010311e-03  1.01796041e-02  5.87737919e-03  6.68974889e-04
  7.19854114e-03  6.03177380e-03  9.56506772e-04 -1.95376501e-03 -1.52727145e-05
  1.79760966e-03 -3.28929197e-03 -2.28582530e-04 -8.34192232e-04  6.79245367e-05
  1.09856935e-02 -1.81342545e-01 -7.49879266e-02  6.55146127e-02  1.29907343e-02
 -4.85795020e-03  3.03521246e-03 -8.50933644e-03  1.06416024e-03  5.61942328e-03
  8.28912953e-04  3.13193634e-05 -9.78707088e-03 -3.61516329e-03  1.97855549e-02
 -2.91476290e-01 -2.01337502e-01 -6.24409985e-04  6.57228422e-02 -2.64578523e-03
 -3.25463508e-02  2.10098875e-02  8.50995915e-05  9.97490870e-03  8.39012535e-04
  8.57902657e-04 -2.71400052e-03 -1.13568915e-02  1.70516339e-02 -2.54137870e-01
 -1.41956335e-01 -5.81327987e-02 -5.74658819e-02  4.54491479e-03 -3.00938334e-03
 -2.40383324e-02  1.17541821e-03  6.93086944e-03  6.43906966e-04  8.78062314e-04
  8.74024880e-03 -9.16174530e-03  2.44923795e-03 -6.39414968e-02 -5.16272374e-02
  6.90672056e-02 -8.03829015e-02  5.28068758e-03  2.51089845e-02 -2.24157617e-02
  1.39572346e-03  2.64038296e-03  6.58962197e-04  3.18049051e-04  1.35674326e-02
  2.65590629e-03 -3.33761162e-04  7.52461592e-02  7.16521978e-02 -1.13807321e-02
 -1.62368174e-02 -2.22629032e-04  1.65966204e-03 -6.73166246e-03  5.69712608e-04
  1.84507839e-04  6.36997441e-05  1.77636660e-04  1.60561151e-03  1.58870282e-03
 -6.69742392e-02 -3.35411846e-03  5.10604301e-03 -7.23897950e-03 -5.29237815e-03
 -6.29268868e-02 -1.48617999e-03  4.07351075e-03  8.76087269e-03 -3.70213559e-03
 -6.78011776e-02 -3.62386150e-03  4.71360771e-03  2.79989908e-04  9.03365005e-03
 -1.80513878e-02  9.91225778e-04  2.55387149e-05 -3.38103933e-03  3.61579887e-05
 -8.43955040e-02 -2.49182216e-03 -1.43842550e-02 -1.43261230e-03  4.64089750e-04
 -1.02302575e-01 -1.29119079e-02 -7.12669211e-03  1.42885076e-02 -1.66208288e-05
  1.40060966e-02 -2.87052337e-01 -1.19407478e-01  1.91430657e-02 -1.07157461e-02
 -4.97453083e-03 -1.74763981e-02 -8.52225076e-03  4.91394145e-04  1.45244704e-03
  1.86351310e-04 -1.80245092e-04 -3.08920698e-03  2.20736787e-03  5.27957153e-03
 -4.81683205e-02 -8.44133993e-02 -1.38840738e-01 -9.49750155e-02  6.90533709e-03
 -9.38781483e-02 -9.10847524e-03  2.87871006e-03  3.84865623e-03  5.34402532e-04
 -3.85895810e-04 -1.71102309e-02  3.08830756e-03 -1.39637637e-02  2.28477303e-01
  1.66740604e-01 -5.75965236e-03 -5.46527561e-02  1.04195049e-03  3.64055649e-02
 -4.07883405e-02  1.55210375e-04 -4.82765456e-03  1.47484219e-04 -3.36609944e-04
 -1.00294119e-02 -4.90806216e-03 -3.05690137e-03  1.51721441e-01  6.14499025e-02
 -1.06866540e-01  7.91736976e-02 -5.44473829e-03 -3.73909759e-02  7.82043661e-03
 -1.78980855e-03 -1.65831939e-03 -5.56899225e-04 -1.23774068e-04 -1.02023497e-02
 -5.09506899e-03 -2.86786762e-04 -8.44892271e-02 -8.36125579e-02 -1.81457609e-02
  1.01258457e-02  3.49747040e-04 -2.04647858e-02  3.56363330e-03 -7.19059301e-04
 -9.65787064e-04  1.48944790e-04  5.69968754e-05  8.75679963e-04 -2.03915541e-03
 -1.21502408e-01 -1.67741987e-02  7.33079572e-03 -1.24611206e-02 -8.49341065e-03
 -1.34544085e-01 -1.60401311e-02  4.61150742e-03  1.59689216e-02 -7.22294236e-03
 -1.30598213e-01 -1.60617090e-02  6.51029324e-03 -1.38813363e-03  1.61312811e-02
  7.01569628e-02  2.45884790e-03  3.51653904e-03  8.58423526e-03  3.02190446e-04
  1.15141786e-01  2.33125722e-02  1.46063896e-02 -1.46085185e-03 -3.20784215e-04
 -2.96433873e-02 -1.64327843e-02 -4.17967362e-03  8.62256156e-04  2.41608998e-04
  5.33144684e-03 -1.75428293e-01 -9.62730458e-02 -7.44882544e-02 -6.89558476e-03
 -2.05226782e-03 -3.82251197e-02 -6.66221986e-03  6.60423248e-03 -4.91645748e-03
 -8.78535124e-04 -1.80167278e-04  7.29518221e-03  1.01842624e-03 -5.24339695e-03
  2.09169824e-01  9.81808285e-02 -1.38837357e-01 -1.53204484e-02  5.56916072e-03
 -4.14542667e-02 -9.92129990e-04 -1.74371346e-04  2.53941653e-03 -2.36478857e-04
 -2.69329752e-04 -4.98405939e-03  2.91075541e-03 -1.32268743e-03 -1.45046556e-03
  9.89565669e-03  1.47454849e-02  2.48918639e-01 -7.60267845e-03  8.08740337e-03
  7.64674233e-02 -1.44581208e-03  4.73213902e-04 -1.76128995e-04 -6.99486967e-04
  1.98995998e-03  1.12189023e-02  2.32263344e-03 -2.37403831e-01 -1.54597804e-01
  1.55882679e-01 -2.92384585e-02  8.98029689e-03  4.84823225e-02 -1.86895191e-02
  3.14466462e-03 -1.09361026e-03  8.98138530e-04 -2.49256380e-05  6.07977677e-03
  2.02618912e-03  9.47837660e-04  1.23328311e-01  1.44026871e-01  5.37175309e-02
 -9.56668597e-03  3.81067621e-03  4.04896794e-02 -6.04410237e-03  3.11024751e-03
  2.55648966e-03 -3.98093746e-04  1.27106500e-04 -2.40262840e-03  7.85244988e-04
 -1.01339711e-01 -8.47745580e-03  3.76752601e-03 -9.69889767e-03 -6.02494472e-03
 -1.01410161e-01 -1.58858774e-02  1.01140217e-03  1.03602212e-02 -4.95182701e-03
 -1.06010833e-01 -2.03142614e-02  3.33140875e-03 -6.97188962e-04  1.11364284e-02
 -1.59748442e-01 -2.82160080e-02 -8.37511652e-03 -1.42599012e-02 -6.47494342e-04
 -5.73995624e-03 -2.49542818e-04 -2.19913010e-04  5.05412380e-03 -1.62502811e-04
  1.45437825e-01  2.51521465e-02  6.58015985e-03 -1.47628697e-02  2.04162525e-04
  1.66837508e-03 -5.08312262e-02 -3.81521435e-02 -1.25229827e-01  8.34250768e-02
 -1.05805768e-04 -3.78037208e-02  3.49886349e-02 -1.93858412e-03 -5.53509394e-03
 -4.88334360e-04 -1.58804138e-03  9.94115783e-03 -5.69588754e-03 -2.06259317e-03
  1.42813557e-01  9.40130389e-02  1.47235558e-03  2.24060951e-01 -7.91019405e-03
  2.45474555e-02  7.18201876e-02 -3.34195552e-03  4.26429482e-03  5.10585537e-04
  5.19337612e-04 -5.56769112e-05 -7.08541678e-03  2.66757853e-03 -1.53438298e-01
 -1.02448630e-01 -1.79409239e-02  1.77921930e-03 -2.18891443e-03 -1.77369943e-02
  3.18214415e-02 -1.72458150e-03 -4.31123213e-03  8.72173292e-05 -3.23561287e-04
 -1.34353913e-02  1.71554081e-03  5.37591405e-04  1.57808088e-01  1.20603188e-01
 -6.59103316e-02 -2.37004297e-01 -3.67413063e-03 -4.94241704e-02 -5.40108915e-02
 -2.65908520e-03  5.31090524e-03 -9.95958464e-05  6.42656229e-05  3.05468612e-06
  1.47670235e-03  1.88808650e-04 -8.65721757e-02 -1.19304061e-01 -1.39120264e-01
 -1.08147345e-01 -5.99481897e-03 -8.28219918e-02 -5.93050447e-02 -3.33278255e-03
 -3.53813103e-03  1.02156267e-03  7.19303142e-04  8.82667731e-03  6.72794866e-03
 -1.12938730e-01 -3.52848131e-02  1.98855109e-03 -5.20728621e-03 -6.31991022e-03
 -5.58013240e-04 -5.18257656e-03 -3.61802866e-03  2.42513357e-03 -2.57747307e-05
 -6.48196467e-02 -2.03324165e-02 -7.54594140e-04  2.30722317e-03  6.10341465e-03
  2.29365851e-01  6.01256295e-02  1.19764860e-02  1.27049974e-02  9.79792110e-04
 -8.24634656e-02 -2.92803457e-02 -8.60322359e-03 -5.12880002e-04  1.84827287e-04
  2.16611002e-01  6.35213944e-02  1.07756234e-02 -1.21414680e-02 -2.14019603e-04
  3.08198065e-03 -4.51486216e-02 -5.25802916e-02 -1.44839355e-01 -9.91843345e-02
  4.66746785e-03 -3.14084823e-02 -3.98482024e-02 -4.45737494e-03 -5.18792519e-03
 -1.30698622e-03  1.94403236e-03  7.57813337e-03  4.78929563e-03  8.85059111e-04
  8.94732200e-02  5.34667829e-02  1.41569112e-01 -1.10229965e-01 -1.95716176e-03
  9.15121142e-02 -2.50608295e-02 -1.33435518e-03  1.94977291e-03  8.15051854e-04
  2.88621403e-04 -9.67907026e-03 -1.04232205e-02  5.38416382e-03 -7.11648970e-02