Generated by Psi4
        SP                           RHF                       CC-PVDZ
Number of atoms                            I               11
Charge                                     I                0
Multiplicity                               I                1
Number of electrons                        I               38
Number of alpha electrons                  I               19
Number of beta electrons                   I               19
Number of basis functions                  I              100
Number of independent functions            I              100
Atomic numbers                             I   N=          11
           6           6           6           6           8           1
           1           1           1           1           1
Nuclear charges                            R   N=          11
  6.00000000e+00  6.00000000e+00  6.00000000e+00  6.00000000e+00  8.00000000e+00
  1.00000000e+00  1.00000000e+00  1.00000000e+00  1.00000000e+00  1.00000000e+00
  1.00000000e+00
Current cartesian coordinates              R   N=          33
  1.95754887e+00  2.61270914e+00 -2.12549975e-01 -8.50835712e-01  2.39893797e+00
 -1.46027931e-01 -2.09883341e+00  1.94105119e-01  1.76071125e-01 -8.60126701e-01
 -2.29119932e+00  7.60513040e-02  1.40643808e+00 -2.70057679e+00  1.20754363e-01
  2.75069612e+00  9.87145506e-01 -1.18021995e+00  2.65142769e+00  4.42271127e+00
 -9.65422457e-01  2.66270592e+00  2.41739812e+00  1.75311784e+00 -2.19374823e+00
 -3.91274362e+00 -1.75173252e-01 -4.15693540e+00  1.37314994e-01  3.08209733e-01
 -1.98095199e+00  4.10520493e+00 -3.89424146e-01
Integer atomic weights                     I   N=          11
          12          12          12          12          16           1
           1           1           1           1           1
Real atomic weights                        R   N=          11
  1.20000000e+01  1.20000000e+01  1.20000000e+01  1.20000000e+01  1.59949146e+01
  1.00782503e+00  1.00782503e+00  1.00782503e+00  1.00782503e+00  1.00782503e+00
  1.00782503e+00
Number of primitive shells                 I              140
Number of contracted shells                I               48
Pure/Cartesian d shells                    I                0
Pure/Cartesian f shells                    I                0
Highest angular momentum                   I                2
Largest degree of contraction              I                8
Shell types                                I   N=          48
           0           0           0           1           1          -2
           0           0           0           1           1          -2
           0           0           0           1           1          -2
           0           0           0           1           1          -2
           0           0           0           1           1          -2
           0           0           1           0           0           1
           0           0           1           0           0           1
           0           0           1           0           0           1
Number of primitives per shell             I   N=          48
           8           8           1           3           1           1
           8           8           1           3           1           1
           8           8           1           3           1           1
           8           8           1           3           1           1
           8           8           1           3           1           1
           3           1           1           3           1           1
           3           1           1           3           1           1
           3           1           1           3           1           1
Shell to atom map                          I   N=          48
           1           1           1           1           1           1
           2           2           2           2           2           2
           3           3           3           3           3           3
           4           4           4           4           4           4
           5           5           5           5           5           5
           6           6           6           7           7           7
           8           8           8           9           9           9
          10          10          10          11          11          11
Primitive exponents                        R   N=         140
  6.66500000e+03  1.00000000e+03  2.28000000e+02  6.47100000e+01  2.10600000e+01
  7.49500000e+00  2.79700000e+00  5.21500000e-01  6.66500000e+03  1.00000000e+03
  2.28000000e+02  6.47100000e+01  2.10600000e+01  7.49500000e+00  2.79700000e+00
  5.21500000e-01  1.59600000e-01  9.43900000e+00  2.00200000e+00  5.45600000e-01
  1.51700000e-01  5.50000000e-01  6.66500000e+03  1.00000000e+03  2.28000000e+02
  6.47100000e+01  2.10600000e+01  7.49500000e+00  2.79700000e+00  5.21500000e-01
  6.66500000e+03  1.00000000e+03  2.28000000e+02  6.47100000e+01  2.10600000e+01
  7.49500000e+00  2.79700000e+00  5.21500000e-01  1.59600000e-01  9.43900000e+00
  2.00200000e+00  5.45600000e-01  1.51700000e-01  5.50000000e-01  6.66500000e+03
  1.00000000e+03  2.28000000e+02  6.47100000e+01  2.10600000e+01  7.49500000e+00
  2.79700000e+00  5.21500000e-01  6.66500000e+03  1.00000000e+03  2.28000000e+02
  6.47100000e+01  2.10600000e+01  7.49500000e+00  2.79700000e+00  5.21500000e-01
  1.59600000e-01  9.43900000e+00  2.00200000e+00  5.45600000e-01  1.51700000e-01
  5.50000000e-01  6.66500000e+03  1.00000000e+03  2.28000000e+02  6.47100000e+01
  2.10600000e+01  7.49500000e+00  2.79700000e+00  5.21500000e-01  6.66500000e+03
  1.00000000e+03  2.28000000e+02  6.47100000e+01  2.10600000e+01  7.49500000e+00
  2.79700000e+00  5.21500000e-01  1.59600000e-01  9.43900000e+00  2.00200000e+00
  5.45600000e-01  1.51700000e-01  5.50000000e-01  1.17200000e+04  1.75900000e+03
  4.00800000e+02  1.13700000e+02  3.70300000e+01  1.32700000e+01  5.02500000e+00
  1.01300000e+00  1.17200000e+04  1.75900000e+03  4.00800000e+02  1.13700000e+02
  3.70300000e+01  1.32700000e+01  5.02500000e+00  1.01300000e+00  3.02300000e-01
  1.77000000e+01  3.85400000e+00  1.04600000e+00  2.75300000e-01  1.18500000e+00
  1.30100000e+01  1.96200000e+00  4.44600000e-01  1.22000000e-01  7.27000000e-01
  1.30100000e+01  1.96200000e+00  4.44600000e-01  1.22000000e-01  7.27000000e-01
  1.30100000e+01  1.96200000e+00  4.44600000e-01  1.22000000e-01  7.27000000e-01
  1.30100000e+01  1.96200000e+00  4.44600000e-01  1.22000000e-01  7.27000000e-01
  1.30100000e+01  1.96200000e+00  4.44600000e-01  1.22000000e-01  7.27000000e-01
  1.30100000e+01  1.96200000e+00  4.44600000e-01  1.22000000e-01  7.27000000e-01
Contraction coefficients                   R   N=         140
  6.91583963e-04  5.32579615e-03  2.70607210e-02  1.01656846e-01  2.74574824e-01
  4.48294319e-01  2.84902611e-01  1.51948592e-02 -2.93269653e-04 -2.31803547e-03
 -1.14997860e-02 -4.68267270e-02 -1.28466169e-01 -3.01266272e-01 -2.55630702e-01
  1.09379336e+00  1.00000000e+00  5.69792516e-02  3.13207212e-01  7.60376742e-01
  1.00000000e+00  1.00000000e+00  6.91583963e-04  5.32579615e-03  2.70607210e-02
  1.01656846e-01  2.74574824e-01  4.48294319e-01  2.84902611e-01  1.51948592e-02
 -2.93269653e-04 -2.31803547e-03 -1.14997860e-02 -4.68267270e-02 -1.28466169e-01
 -3.01266272e-01 -2.55630702e-01  1.09379336e+00  1.00000000e+00  5.69792516e-02
  3.13207212e-01  7.60376742e-01  1.00000000e+00  1.00000000e+00  6.91583963e-04
  5.32579615e-03  2.70607210e-02  1.01656846e-01  2.74574824e-01  4.48294319e-01
  2.84902611e-01  1.51948592e-02 -2.93269653e-04 -2.31803547e-03 -1.14997860e-02
 -4.68267270e-02 -1.28466169e-01 -3.01266272e-01 -2.55630702e-01  1.09379336e+00
  1.00000000e+00  5.69792516e-02  3.13207212e-01  7.60376742e-01  1.00000000e+00
  1.00000000e+00  6.91583963e-04  5.32579615e-03  2.70607210e-02  1.01656846e-01
  2.74574824e-01  4.48294319e-01  2.84902611e-01  1.51948592e-02 -2.93269653e-04
 -2.31803547e-03 -1.14997860e-02 -4.68267270e-02 -1.28466169e-01 -3.01266272e-01
 -2.55630702e-01  1.09379336e+00  1.00000000e+00  5.69792516e-02  3.13207212e-01
  7.60376742e-01  1.00000000e+00  1.00000000e+00  7.09645947e-04  5.46727229e-03
  2.78231186e-02  1.04747740e-01  2.82920846e-01  4.48495239e-01  2.70816885e-01
  1.54502916e-02 -3.14443412e-04 -2.48213768e-03 -1.23163554e-02 -5.05389173e-02
 -1.39384903e-01 -3.25077495e-01 -2.29848308e-01  1.09537935e+00  1.00000000e+00
  6.26791663e-02  3.33536566e-01  7.41239642e-01  1.00000000e+00  1.00000000e+00
  3.34987264e-02  2.34800801e-01  8.13682958e-01  1.00000000e+00  1.00000000e+00
  3.34987264e-02  2.34800801e-01  8.13682958e-01  1.00000000e+00  1.00000000e+00
  3.34987264e-02  2.34800801e-01  8.13682958e-01  1.00000000e+00  1.00000000e+00
  3.34987264e-02  2.34800801e-01  8.13682958e-01  1.00000000e+00  1.00000000e+00
  3.34987264e-02  2.34800801e-01  8.13682958e-01  1.00000000e+00  1.00000000e+00
  3.34987264e-02  2.34800801e-01  8.13682958e-01  1.00000000e+00  1.00000000e+00
Coordinates of each shell                  R   N=         144
  1.95754887e+00  2.61270914e+00 -2.12549975e-01  1.95754887e+00  2.61270914e+00
 -2.12549975e-01  1.95754887e+00  2.61270914e+00 -2.12549975e-01  1.95754887e+00
  2.61270914e+00 -2.12549975e-01  1.95754887e+00  2.61270914e+00 -2.12549975e-01
  1.95754887e+00  2.61270914e+00 -2.12549975e-01 -8.50835712e-01  2.39893797e+00
 -1.46027931e-01 -8.50835712e-01  2.39893797e+00 -1.46027931e-01 -8.50835712e-01
  2.39893797e+00 -1.46027931e-01 -8.50835712e-01  2.39893797e+00 -1.46027931e-01
 -8.50835712e-01  2.39893797e+00 -1.46027931e-01 -8.50835712e-01  2.39893797e+00
 -1.46027931e-01 -2.09883341e+00  1.94105119e-01  1.76071125e-01 -2.09883341e+00
  1.94105119e-01  1.76071125e-01 -2.09883341e+00  1.94105119e-01  1.76071125e-01
 -2.09883341e+00  1.94105119e-01  1.76071125e-01 -2.09883341e+00  1.94105119e-01
  1.76071125e-01 -2.09883341e+00  1.94105119e-01  1.76071125e-01 -8.60126701e-01
 -2.29119932e+00  7.60513040e-02 -8.60126701e-01 -2.29119932e+00  7.60513040e-02
 -8.60126701e-01 -2.29119932e+00  7.60513040e-02 -8.60126701e-01 -2.29119932e+00
  7.60513040e-02 -8.60126701e-01 -2.29119932e+00  7.60513040e-02 -8.60126701e-01
 -2.29119932e+00  7.60513040e-02  1.40643808e+00 -2.70057679e+00  1.20754363e-01
  1.40643808e+00 -2.70057679e+00  1.20754363e-01  1.40643808e+00 -2.70057679e+00
  1.20754363e-01  1.40643808e+00 -2.70057679e+00  1.20754363e-01  1.40643808e+00
 -2.70057679e+00  1.20754363e-01  1.40643808e+00 -2.70057679e+00  1.20754363e-01
  2.75069612e+00  9.87145506e-01 -1.18021995e+00  2.75069612e+00  9.87145506e-01
 -1.18021995e+00  2.75069612e+00  9.87145506e-01 -1.18021995e+00  2.65142769e+00
  4.42271127e+00 -9.65422457e-01  2.65142769e+00  4.42271127e+00 -9.65422457e-01
  2.65142769e+00  4.42271127e+00 -9.65422457e-01  2.66270592e+00  2.41739812e+00
  1.75311784e+00  2.66270592e+00  2.41739812e+00  1.75311784e+00  2.66270592e+00
  2.41739812e+00  1.75311784e+00 -2.19374823e+00 -3.91274362e+00 -1.75173252e-01
 -2.19374823e+00 -3.91274362e+00 -1.75173252e-01 -2.19374823e+00 -3.91274362e+00
 -1.75173252e-01 -4.15693540e+00  1.37314994e-01  3.08209733e-01 -4.15693540e+00
  1.37314994e-01  3.08209733e-01 -4.15693540e+00  1.37314994e-01  3.08209733e-01
 -1.98095199e+00  4.10520493e+00 -3.89424146e-01 -1.98095199e+00  4.10520493e+00
 -3.89424146e-01 -1.98095199e+00  4.10520493e+00 -3.89424146e-01
Total Energy                               R     -2.312388480256038e+02
Alpha Orbital Energies                     R   N=         100
 -1.91344246e+01 -1.02717510e+01 -1.02230225e+01 -1.01966381e+01 -1.01888153e+01
 -1.03988832e+00 -8.12834865e-01 -7.17867692e-01 -6.28741176e-01 -5.35564311e-01
 -4.98154253e-01 -4.41288200e-01 -4.32614547e-01 -4.21329990e-01 -3.84804978e-01
 -3.81881124e-01 -3.76674630e-01 -2.73471337e-01 -2.48428548e-01 -6.44981714e-02
  5.02324730e-02  6.50905768e-02  9.03588678e-02  1.06390927e-01  1.30206998e-01
  1.44910895e-01  1.62629437e-01  2.17951720e-01  2.66086336e-01  3.21827182e-01
  3.38520905e-01  4.33406616e-01  4.35936429e-01  4.52491796e-01  4.71074699e-01
  4.84941480e-01  5.07819124e-01  5.27515549e-01  5.69300198e-01  5.96441004e-01
  6.18849525e-01  6.27753830e-01  6.36176239e-01  6.53152157e-01  6.77871120e-01
  6.85143470e-01  7.05790238e-01  7.72334399e-01  8.17653997e-01  8.49677432e-01
  9.12862598e-01  9.24447250e-01  9.56585703e-01  1.01979593e+00  1.02845439e+00
  1.05161934e+00  1.08382366e+00  1.14349227e+00  1.18232703e+00  1.19256643e+00
  1.29181430e+00  1.36692901e+00  1.39796900e+00  1.47638524e+00  1.49122800e+00
  1.49611137e+00  1.54785183e+00  1.56994323e+00  1.62198418e+00  1.63200197e+00
  1.65330702e+00  1.65937653e+00  1.67473837e+00  1.69484547e+00  1.73639786e+00
  1.75664613e+00  1.78790105e+00  1.80534180e+00  1.85745512e+00  1.92104958e+00
  1.96241535e+00  1.97837676e+00  2.01936100e+00  2.07024561e+00  2.10633643e+00
  2.24541664e+00  2.31780060e+00  2.35130545e+00  2.39839615e+00  2.41524571e+00
  2.42066786e+00  2.50605423e+00  2.58548479e+00  2.65081052e+00  2.69988274e+00
  2.80071610e+00  2.99315879e+00  3.06847319e+00  3.42160594e+00  3.48049853e+00
Alpha MO coefficients                      R   N=       10000
 -7.03548749e-05 -1.46464114e-04  8.44460381e-05  6.45923074e-05  4.35320858e-05
  6.74715520e-06 -5.04371038e-05 -1.64274397e-04  1.63961944e-04  7.73097736e-05
  3.19289175e-05  3.50615323e-05  7.97708262e-05 -1.00665287e-04 -2.02667090e-04
 -3.61958462e-04  5.30950984e-03 -2.22637798e-05 -1.90766462e-05 -6.18119246e-05
 -9.62366835e-04 -2.16748411e-03  5.08215402e-04 -3.04304898e-05  3.21139783e-05
 -2.15477309e-05 -5.16559767e-05 -5.48440893e-05  2.00408945e-04  3.07571537e-04
 -3.79723776e-03  2.50392845e-05  2.76192389e-04 -1.09077085e-05 -4.45798693e-03
 -3.58146862e-03  3.00680348e-04  1.24456822e-04  5.59413861e-05  9.14755610e-05
 -4.03627250e-04  4.96567250e-04  4.54797541e-04  5.94625503e-04  5.30223234e-03
 -1.02202874e-04 -1.80039252e-04 -3.30964444e-05  6.58608158e-03  4.87476951e-04
  1.13703460e-04 -8.95320611e-06  1.58648951e-05  9.51386297e-05 -1.16583204e-03
  5.29126939e-04  1.00416926e+00  9.47342472e-03 -1.50729734e-02 -1.83962861e-03
  3.66610765e-04 -5.50031548e-05  3.49238522e-03 -8.40826735e-04  9.01271195e-05
 -1.96355142e-05  1.94069670e-06 -3.73565943e-06  7.10445108e-05  7.72715053e-06
 -1.18731267e-04 -1.18643951e-04  2.94482925e-05 -2.27073358e-05  3.27874692e-05
  1.25246904e-04  3.65090520e-04 -7.55979209e-05 -7.02622828e-05  4.34273464e-05
 -1.09717488e-04 -2.45417428e-04  6.93785262e-05  6.47151767e-05  5.92766359e-05
 -1.83470794e-04  8.72680716e-04 -7.65422149e-04  1.00950586e-04 -3.55769038e-06
 -2.83744708e-04 -1.30584275e-03  1.85080324e-04  2.48975279e-04 -1.00835771e-06
 -1.85952316e-04  2.14658879e-04  4.01698325e-05  7.91322639e-05 -2.98300837e-05
 -3.74891702e-04 -4.97082594e-04  9.01335764e-04  2.90648654e-04  7.22909649e-05
 -2.71863732e-07 -6.33531677e-04  4.12800515e-05  2.53339497e-05 -1.92293514e-05
 -6.91313000e-05  4.12999239e-07 -1.14246885e-04 -3.47119666e-05 -4.33107682e-04
 -6.35438646e-04  6.44670864e-03 -2.70614906e-04 -2.53977374e-05  5.12248626e-05
 -2.10577625e-03 -3.76951153e-03  6.25853227e-04 -3.95368791e-04 -2.00285367e-04
 -9.76178495e-05  2.90622673e-04  3.52551879e-04  1.68015225e-03 -2.73100161e-04
 -1.87512845e-03 -3.57610664e-04  7.83950976e-04  5.06170066e-05 -2.59010757e-03
 -5.92973886e-03  4.19484347e-04  1.04502241e-03  9.55128275e-06 -2.51574974e-05
  1.12197511e-03  8.64826080e-04  1.00594811e+00  1.53046172e-02 -1.07004716e-02
  7.44428472e-04 -4.84371750e-04 -9.96702311e-05  5.38798491e-03 -2.08521091e-03
 -6.67109164e-06 -1.63947175e-03  2.11896317e-04  2.05108502e-04  8.20249512e-04
 -3.02553946e-05  3.62210069e-04  9.05310309e-04 -5.93467910e-03  7.44589081e-04
 -2.09545817e-04 -3.80568381e-07  3.40603101e-03 -2.09701684e-04  9.55387772e-05
  5.66807731e-04 -2.58951581e-05 -1.98481916e-05 -7.22433244e-04  2.50340650e-04
 -1.13404407e-04 -6.22717886e-05  2.33361293e-05  4.21333902e-06 -1.20090178e-05
 -5.17474759e-05  3.68203771e-04 -5.27489772e-05 -2.47144932e-05  8.58786076e-06
 -6.90399924e-05 -9.23315775e-06  1.06146017e-04  5.32843290e-05 -4.41614467e-05
 -1.67847709e-03  2.45028384e-03 -1.42721865e-03 -1.44888431e-03 -2.32206153e-04
 -5.38777390e-04 -4.88351048e-04  5.12217931e-05  2.65892169e-04 -3.24819853e-05
 -3.21053410e-05  6.06713059e-04  2.24540150e-04  1.03037000e-04 -3.57062207e-05
  3.18576674e-03 -4.04120753e-04  4.33395073e-03  7.36885777e-04  4.21991617e-05
  5.74760949e-05 -2.39724871e-03 -8.03926859e-04 -3.47896301e-04  7.85461098e-04
  1.04259477e-04  4.40415137e-05 -9.91799338e-04 -6.33825502e-05  1.00638068e+00
  1.62460166e-02 -2.02667977e-02 -5.34063071e-04  2.20115343e-04 -2.60798091e-05
 -2.25421146e-03  3.93947941e-03 -4.69941800e-04 -1.05234901e-03  1.23146266e-04
 -3.44413805e-04 -5.27056153e-04 -4.63493730e-04  1.24622968e-02 -1.22039461e-03
  4.81158414e-03 -7.12063885e-04 -1.06637452e-03  1.66605174e-04  2.72456678e-03
  2.69179677e-03 -3.07438685e-04  8.76166897e-04  1.42785171e-04  3.08230050e-04
  4.99744029e-04 -9.72610578e-04 -2.83100553e-04 -5.63628663e-04  1.20457862e-03
 -2.00261917e-05 -2.08442783e-04  4.02228150e-05 -4.63163283e-04  1.07517849e-03
 -5.82171814e-05 -3.29284610e-04 -1.03797281e-04 -1.11760045e-05  1.64134909e-04
 -7.74760360e-06 -3.46185309e-05 -7.31436753e-05 -1.16308491e-04  1.20920894e-04
  1.33273912e-05  1.71465695e-05 -1.22167968e-04 -3.40053929e-04  3.07568208e-05
  1.12073219e-05 -2.72131899e-05  3.82579707e-06  4.22145877e-06  2.53280789e-05
 -4.22524823e-04  4.15145058e-04 -1.30501986e-04 -7.43728846e-07  5.96794500e-05
 -2.59150967e-04  1.88906069e-04  1.46587089e-04  9.34626617e-06  6.99529041e-05
 -4.58536281e-04  1.17559654e-03 -2.17955844e-04 -4.82236217e-07  3.29548741e-05
 -8.74054220e-05  3.30426920e-04  4.66069446e-05 -7.39620696e-05 -1.60392802e-05
  1.86121757e-04  9.53464414e-04  1.66415151e-04 -2.69856443e-04  1.59824881e-06
 -2.53663940e-03  1.11667029e-03 -1.26186738e-03  1.81502112e-03 -2.58210734e-04
  1.21588796e-03  4.81653124e-04 -2.85240824e-04 -1.12263419e-04 -1.36212974e-04
  1.07844158e-04  9.01166831e-04  7.69940477e-05 -2.87745681e-04  3.06953796e-04
  3.10064491e-05  6.45940225e-05 -4.05423359e-05  1.18934624e-04  1.39110827e-02
  1.73493037e-03 -6.12503535e-03 -5.97074071e-04 -1.21320642e-03  1.83397970e-04
  7.21470320e-04  3.69365980e-03 -1.95508919e-04 -9.16375639e-04 -1.96984869e-04
 -3.38580423e-04 -6.20946822e-04  9.19628984e-04 -1.00651936e+00 -1.66196390e-02
  2.11409960e-02  3.42996507e-04 -2.24218036e-04  1.70989787e-04  5.27370196e-03
  2.63444067e-04 -9.66994615e-04  1.10632531e-03  1.87139988e-04  1.21113577e-04
 -4.56393033e-04 -5.37883056e-04  2.00868697e-03  7.84212519e-04 -5.68415765e-03
 -2.66270070e-04  7.11895079e-04  5.76312703e-05 -3.16118267e-04 -3.44961105e-03
  4.71365452e-05 -7.09889835e-04 -1.72807421e-04  7.94286931e-05 -5.54985444e-04
 -1.21962500e-03 -3.54344241e-05 -6.16246668e-05  7.07390569e-04 -1.20437242e-05
  6.19729230e-05  4.27871886e-05  1.49630521e-04  6.38726475e-04 -5.38942753e-05
  1.29211706e-04 -4.31726369e-05 -1.24282754e-05 -8.58592289e-05 -2.19599157e-04
  1.41357523e-04 -3.36168254e-04 -1.59611159e-05 -7.64062064e-05  5.69141219e-05
 -2.81598197e-05 -3.53003302e-04 -4.71852032e-05  4.40514405e-05  3.16298325e-05
  8.38230344e-05 -2.02222401e-04 -4.21935413e-05 -8.17806493e-05  1.37442927e-04
  2.84695236e-04 -9.61507514e-04 -7.74918566e-05  1.95597554e-04 -3.53893943e-05
  2.53578510e-03 -8.42974310e-04  2.20211920e-03 -8.52686470e-05 -6.89186637e-05
 -1.12010707e-04 -8.48885526e-04 -2.96523246e-04  4.27739017e-05 -4.43133249e-05
  1.00706254e+00  1.75940578e-02 -1.93804191e-02  4.05576966e-04 -7.15896063e-05
  1.56019965e-04  2.91307049e-03  4.90044856e-04 -5.97210175e-04  1.15296563e-04
 -3.62209617e-05 -8.28169200e-05 -7.00854415e-04  4.86846829e-05 -3.37219544e-03
 -2.61685029e-04  1.59181889e-03 -4.98040370e-04  5.02709408e-05  4.51616700e-06
  4.18463134e-03  2.34819591e-03 -3.23494222e-04  6.58219879e-04  1.13725620e-04
 -1.96591575e-05 -1.33451487e-03 -3.79508848e-04  5.32718834e-04 -6.59953287e-04
  3.66474314e-03 -2.35958438e-04  3.63360518e-05 -5.33829118e-06  1.23633537e-03
  2.60371175e-03 -3.86283639e-04 -3.71144389e-04  2.39801941e-05 -1.13258339e-04
 -4.16111523e-04 -2.14422482e-04 -1.30758107e-04 -5.13785274e-04  3.72529215e-04
 -7.63017178e-05 -2.69598559e-04 -4.15959402e-05 -2.34354511e-04  4.91021469e-04
  1.35268874e-04 -4.02124701e-05 -2.86573381e-05 -3.10391892e-05  3.05482841e-05
  5.63402032e-05 -1.05094137e-04 -2.03546641e-04  3.61833538e-04  3.18148345e-05
 -1.11539039e-04 -2.30131083e-05 -2.60633461e-04  2.42131360e-04  6.61514899e-05
 -5.78611440e-05  7.81755854e-07  6.56423604e-06  2.18251895e-06 -1.23766529e-06
 -1.27093568e-03  2.16632337e-03  6.30800730e-04 -1.55085313e-03 -9.46090526e-04
 -1.50853875e-03  1.71576582e-03  6.22808030e-04  1.80879443e-03 -7.65374812e-04
 -9.55332525e-04  2.37230517e-03  4.52585605e-04 -2.09772606e-04  1.79795180e-03
  1.46209545e-05  3.77103066e-04  1.16001165e-05  5.70285928e-05 -1.66106794e-05
  4.25767058e-05  4.99660226e-04  6.17738450e-05 -1.91596257e-04  2.76161363e-05
 -3.65740099e-04  1.52189271e-04 -3.92663072e-04 -1.88481789e-04  3.40138519e-05
 -5.32022630e-04  8.29159196e-03  4.98626123e-03 -3.41491507e-03 -4.01304727e-03
 -1.30883698e-05 -2.74954023e-03 -1.23607539e-03  8.37836934e-04 -7.19319100e-04
 -1.28144084e-04 -1.68413358e-04  1.03298089e-04  8.93684575e-04  4.44313710e-04
  1.71588769e-02 -1.16686721e-02  4.38451372e-04 -1.08074382e-02  1.14434336e-03
 -1.81420864e-03  9.05746946e-03 -1.22235318e-03 -5.13672309e-04 -2.16921316e-04
 -4.88905993e-04 -1.50401151e-03  7.56187827e-04 -3.73274560e-03  3.65061389e-02
  3.14792409e-02  2.13955350e-02 -1.95736803e-02 -1.21566361e-03  1.97821927e-02
  1.96391348e-03 -1.98811586e-03 -3.72187837e-03 -5.24467488e-04 -5.46839060e-05
 -2.35828045e-04 -9.11727618e-03 -1.48598514e-02  2.24418599e-01  9.45332819e-02
  1.84310773e-01 -2.48092805e-02  3.62972160e-03  1.25244759e-02 -2.27461626e-03
  9.40822772e-04 -1.38780786e-02  3.59852131e-04 -1.50647383e-03  3.13302458e-02
 -1.37364893e-02 -9.29549446e-03  4.01738540e-01  3.60274549e-01 -1.55077422e-01
  3.16827304e-02 -3.67810706e-03 -3.16109948e-02  7.71204022e-03 -1.48274928e-03
 -5.42892250e-03  2.75995475e-04 -7.72715097e-04  1.20387106e-02 -5.04148989e-03
  8.00907516e-03  4.04702780e-03 -7.16364311e-04 -3.30448696e-04  7.09388596e-04
  1.12413605e-03 -4.76924221e-04  2.20191049e-05 -6.07964180e-05 -7.34856691e-05
  2.87282217e-03  7.46651132e-04 -3.31212625e-04 -3.68652309e-04 -5.66796983e-04
  4.04033307e-02 -3.23609465e-03  1.00089739e-02  6.20071574e-03  1.07386168e-03
  7.37160413e-03  6.06586730e-03  1.06753039e-03 -1.87454263e-03 -9.87478383e-05
  1.99572460e-03 -2.94937461e-03 -1.64661446e-04 -8.59867656e-04  1.46666711e-04
  1.14850434e-02 -1.82232749e-01 -7.34761920e-02  6.80840258e-02  1.47325156e-02
 -5.30485453e-03  1.50362288e-03 -9.83407647e-03  2.67246942e-03  5.72787801e-03
  7.28041679e-04 -5.80869260e-05 -1.01806252e-02 -3.11586577e-03  2.02244988e-02
 -2.89319472e-01 -2.03595619e-01 -5.67858223e-03  7.01956807e-02 -8.65197368e-03
 -3.43143601e-02  2.60927018e-02 -3.73036683e-03  1.00201310e-02  1.41634833e-03
  1.90676911e-03 -2.29031785e-03 -9.80756862e-03  1.73575392e-02 -2.52333789e-01
 -1.36688240e-01 -5.92519403e-02 -5.61068224e-02  1.55787623e-02 -1.76738641e-03
 -2.24343590e-02  3.95960229e-03  6.81131478e-03  1.66042589e-03  2.15644847e-03
  8.71208001e-03 -8.58099132e-03  2.62069099e-03 -6.37119990e-02 -5.18186275e-02
  7.25750494e-02 -8.11950866e-02  9.41857281e-04  2.36726798e-02 -2.33343348e-02
 -1.29815738e-03  2.71796871e-03  4.31449616e-04 -3.57502811e-04  1.33923478e-02
  3.10131469e-03 -3.66995090e-04  7.75317491e-02  7.46237260e-02 -1.28702106e-02
 -1.66723460e-02  1.20769466e-04  9.38376255e-04 -7.32046262e-03  6.08217619e-04
  1.55835332e-04  1.08350206e-05  2.91157758e-05  1.77899304e-03  1.57740106e-03
 -7.05895729e-02 -2.35192055e-03  4.78191244e-03 -8.11624241e-03 -5.29320979e-03
 -5.94048653e-02 -2.67729189e-04  4.90412627e-03  8.23114334e-03 -3.42634456e-03
 -6.91455895e-02 -3.53207637e-03  4.29080596e-03 -8.32447505e-05  9.34245403e-03
 -1.80722759e-02 -1.03486260e-04  1.13378823e-04 -3.43844843e-03 -1.24581894e-04
 -8.19405640e-02 -2.04440133e-03 -1.39876424e-02 -1.98844703e-03  1.17443247e-03
 -9.98149912e-02 -1.42698035e-02 -7.10636033e-03  1.36904072e-02 -1.85973524e-03
  1.45200048e-02 -2.82413315e-01 -1.19197406e-01  1.96421571e-02 -5.75303585e-03
 -4.88631893e-03 -1.62761582e-02 -8.38548595e-03  9.38474179e-04  1.42357926e-03
 -2.34762390e-05 -1.99401558e-04 -3.02941062e-03  2.41539676e-03  5.37751252e-03
 -5.14784868e-02 -8.80938143e-02 -1.37824968e-01 -8.88947852e-02  1.10411004e-02
 -8.91395025e-02 -5.18503677e-03  1.73073623e-03  3.79061886e-03 -2.99279707e-04
 -1.14906598e-03 -1.77332006e-02  4.54654610e-03 -1.40000351e-02  2.28970561e-01
  1.67425920e-01 -6.58160009e-03 -6.22204914e-02 -5.10166436e-03  3.47906005e-02
 -3.49983308e-02 -1.72454254e-03 -4.36176047e-03 -7.48799950e-05  5.06314649e-04
 -9.80363744e-03 -6.06718443e-03 -3.36221891e-03  1.59087307e-01  7.11932631e-02
 -1.11337303e-01  7.62528879e-02  6.54210267e-04 -3.97459202e-02  9.54195890e-03
 -1.24864949e-03 -1.73181003e-03 -3.92838931e-04  3.34578165e-04 -9.61579597e-03
 -6.19247405e-03 -2.23539642e-04 -8.42343423e-02 -8.41493670e-02 -2.14594275e-02
  6.73238604e-03  1.55683572e-03 -2.16380611e-02  1.34146878e-03  2.15768590e-04
 -9.33361213e-04  5.67103324e-05  3.18271499e-04  1.22625166e-03 -2.02338507e-03
 -1.24778132e-01 -1.70505685e-02  6.67760017e-03 -1.31899249e-02 -8.18964919e-03
 -1.29580935e-01 -1.46409712e-02  6.07165777e-03  1.53615985e-02 -6.77224708e-03
 -1.27653046e-01 -1.66442968e-02  5.63401009e-03 -1.84115228e-03  1.60615252e-02
  7.45761625e-02  3.02954446e-03  3.61694303e-03  9.08294011e-03  1.18325440e-03
  1.17829873e-01  2.28991744e-02  1.50145310e-02 -1.00729399e-03 -1.03871728e-03
 -2.84048797e-02 -1.63170169e-02 -4.07284771e-03  5.95919895e-04 -1.50730486e-04
  5.85307460e-03 -1.80547541e-01 -9.97582407e-02 -7.50673306e-02  3.26627845e-04
 -4.18659913e-03 -3.92992317e-02 -5.85739859e-03  6.59453103e-03 -5.07176168e-03
 -8.03259089e-04 -3.43923541e-04  7.61582510e-03  7.67165484e-04 -5.57958862e-03
  2.13471827e-01  1.00303937e-01 -1.44928452e-01 -1.09629084e-02  6.32490317e-03
 -4.25819956e-02  1.18366571e-03 -7.10409074e-04  3.05296576e-03 -1.44007661e-03
 -9.30156265e-04 -5.71181636e-03  3.90612857e-03 -1.31287841e-03  2.74596095e-03
  1.46436155e-02  7.55051519e-03  2.47078213e-01 -1.25371796e-02  3.79134713e-03
  7.68426593e-02 -3.37510344e-03  8.07182904e-04 -4.80064561e-04 -4.03742034e-03
  1.05894307e-03  1.12025052e-02  2.70228530e-03 -2.27827803e-01 -1.48065537e-01
  1.53377155e-01 -2.73667146e-02  3.98335920e-03  4.62240621e-02 -1.91620416e-02
  5.29005271e-04 -1.09182643e-03  9.45452644e-04 -6.73773419e-04  5.64441061e-03
  1.36129153e-03  1.05220740e-03  1.20495988e-01  1.39931756e-01  4.95110345e-02
 -1.11736896e-02  2.48729133e-03  3.84051563e-02 -7.04307133e-03  1.88536214e-03
  2.49082404e-03 -1.70303370e-04 -3.02645315e-05 -2.12211073e-03  6.33415899e-04
 -1.05028196e-01 -7.59593944e-03  3.38502028e-03 -1.05819231e-02 -5.84306765e-03
 -1.04455263e-01 -1.55132890e-02  2.28314155e-03  1.08417029e-02 -5.04939100e-03
 -1.07619722e-01 -2.10108868e-02  3.04080757e-03 -9.81980004e-04  1.13647920e-02
 -1.54034491e-01 -2.81261852e-02 -7.57673662e-03 -1.38101948e-02 -1.96941527e-03
 -7.48951601e-03 -1.67012860e-03 -5.94496846e-04  4.97477143e-03 -2.10567236e-04
  1.54367108e-01  2.67790895e-02  7.16182431e-03 -1.54526979e-02  2.40956748e-03
  1.49765156e-03 -3.76933667e-02 -3.07705046e-02 -1.07690376e-01  9.85327398e-02
 -8.82295747e-03 -2.94398175e-02  3.90700994e-02 -6.51844272e-03 -4.83232314e-03
  7.67300774e-04 -1.56484596e-03  9.37371259e-03 -6.40115588e-03 -2.74571890e-03
  1.38232460e-01  9.87163887e-02 -1.57603964e-03  2.25171101e-01 -3.40124037e-02
  2.74262551e-02  6.85272664e-02 -9.66055410e-03  3.87926857e-03  1.65219546e-03
  1.30428374e-03  1.28735098e-03 -5.94400650e-03  3.00461074e-03 -1.51041615e-01
 -1.05124296e-01 -2.22154438e-02 -4.43940474e-03 -7.30909242e-03 -2.33400559e-02
  2.75229042e-02 -6.82332468e-03 -3.70222161e-03  2.90300609e-04 -7.09355158e-04
 -1.33513167e-02  8.06730107e-04  7.06266294e-04  1.60701341e-01  1.22033478e-01
 -6.08819741e-02 -2.36663285e-01 -2.23791558e-02 -4.80884749e-02 -5.25276238e-02
 -4.03882953e-03  5.25789380e-03  7.17421863e-04 -8.47365322e-05 -2.03680104e-04
  6.27029691e-04  4.44242295e-04 -8.70296788e-02 -1.21999133e-01 -1.43481516e-01
 -1.11727223e-01 -9.22449412e-03 -8.41478091e-02 -6.18813183e-02 -5.29615904e-03
 -3.50073579e-03  1.21651389e-03  4.88400895e-04  9.12017047e-03  6.67510190e-03
 -1.09567706e-01 -3.59461117e-02  1.82220367e-03 -4.49346985e-03 -5.83000607e-03
  1.21751914e-02 -1.97574669e-03 -3.32014253e-03  1.61448652e-03  3.24106521e-04
 -5.85783912e-02 -1.77892574e-02 -7.06297502e-04  2.72058891e-03  5.39189167e-03
  2.29642899e-01  5.96991928e-02  1.16507309e-02  1.29576283e-02  2.34965505e-03
 -7.89496682e-02 -2.90924339e-02 -8.27450603e-03 -1.17421535e-03  4.27846317e-04
  2.17662456e-01  6.50699847e-02  1.09332798e-02 -1.21397188e-02  1.72478282e-03
  2.49074502e-03 -5.28238048e-02 -4.90973108e-02 -1.49397078e-01 -9.90100364e-02
  5.89145412e-03 -3.49459538e-02 -4.28120065e-02 -2.30372997e-03 -5.29664724e-03
 -8.95027714e-04  2.01360374e-03  7.45253783e-03  4.35930247e-03  6.24216605e-04
  8.63713584e-02  6.21819476e-02  1.35346022e-01 -1.15337822e-01  3.43229060e-03
  7.97479971e-02 -3.42176875e-02 -1.35717024e-03  1.57732048e-03  1.78855901e-03
  7.39516992e-04 -9.88798589e-03 -1.08288248e-02  5.85520761e-03 -7.56304288e-02