Generated by Psi4
        SP                           RHF                       CC-PVDZ
Number of atoms                            I               11
Charge                                     I                0
Multiplicity                               I                1
Number of electrons                        I               38
Number of alpha electrons                  I               19
Number of beta electrons                   I               19
Number of basis functions                  I              100
Number of independent functions            I              100
Atomic numbers                             I   N=          11
           6           6           6           6           8           1
           1           1           1           1           1
Nuclear charges                            R   N=          11
  6.00000000e+00  6.00000000e+00  6.00000000e+00  6.00000000e+00  8.00000000e+00
  1.00000000e+00  1.00000000e+00  1.00000000e+00  1.00000000e+00  1.00000000e+00
  1.00000000e+00
Current cartesian coordinates              R   N=          33
  1.65088549e+00  2.96874636e+00  2.84345392e-01 -7.93859231e-01  2.39019771e+00
 -1.60011725e-01 -2.06376216e+00 -2.01553102e-02  3.10654897e-01 -8.77096886e-01
 -2.27021211e+00  9.75916207e-02  1.58110444e+00 -2.63062510e+00 -4.07098103e-01
  2.34222346e+00 -9.82158340e-01 -6.63028663e-01  2.45477902e+00  4.76516274e+00
 -3.42533455e-01  2.89565322e+00  1.71872010e+00  1.37621730e+00 -1.90957770e+00
 -4.07688929e+00  2.00888000e-01 -4.10070462e+00 -3.92410716e-02  6.27125365e-01
 -1.96380816e+00  3.82731856e+00 -1.07906725e+00
Integer atomic weights                     I   N=          11
          12          12          12          12          16           1
           1           1           1           1           1
Real atomic weights                        R   N=          11
  1.20000000e+01  1.20000000e+01  1.20000000e+01  1.20000000e+01  1.59949146e+01
  1.00782503e+00  1.00782503e+00  1.00782503e+00  1.00782503e+00  1.00782503e+00
  1.00782503e+00
Number of primitive shells                 I              140
Number of contracted shells                I               48
Pure/Cartesian d shells                    I                0
Pure/Cartesian f shells                    I                0
Highest angular momentum                   I                2
Largest degree of contraction              I                8
Shell types                                I   N=          48
           0           0           0           1           1          -2
           0           0           0           1           1          -2
           0           0           0           1           1          -2
           0           0           0           1           1          -2
           0           0           0           1           1          -2
           0           0           1           0           0           1
           0           0           1           0           0           1
           0           0           1           0           0           1
Number of primitives per shell             I   N=          48
           8           8           1           3           1           1
           8           8           1           3           1           1
           8           8           1           3           1           1
           8           8           1           3           1           1
           8           8           1           3           1           1
           3           1           1           3           1           1
           3           1           1           3           1           1
           3           1           1           3           1           1
Shell to atom map                          I   N=          48
           1           1           1           1           1           1
           2           2           2           2           2           2
           3           3           3           3           3           3
           4           4           4           4           4           4
           5           5           5           5           5           5
           6           6           6           7           7           7
           8           8           8           9           9           9
          10          10          10          11          11          11
Primitive exponents                        R   N=         140
  6.66500000e+03  1.00000000e+03  2.28000000e+02  6.47100000e+01  2.10600000e+01
  7.49500000e+00  2.79700000e+00  5.21500000e-01  6.66500000e+03  1.00000000e+03
  2.28000000e+02  6.47100000e+01  2.10600000e+01  7.49500000e+00  2.79700000e+00
  5.21500000e-01  1.59600000e-01  9.43900000e+00  2.00200000e+00  5.45600000e-01
  1.51700000e-01  5.50000000e-01  6.66500000e+03  1.00000000e+03  2.28000000e+02
  6.47100000e+01  2.10600000e+01  7.49500000e+00  2.79700000e+00  5.21500000e-01
  6.66500000e+03  1.00000000e+03  2.28000000e+02  6.47100000e+01  2.10600000e+01
  7.49500000e+00  2.79700000e+00  5.21500000e-01  1.59600000e-01  9.43900000e+00
  2.00200000e+00  5.45600000e-01  1.51700000e-01  5.50000000e-01  6.66500000e+03
  1.00000000e+03  2.28000000e+02  6.47100000e+01  2.10600000e+01  7.49500000e+00
  2.79700000e+00  5.21500000e-01  6.66500000e+03  1.00000000e+03  2.28000000e+02
  6.47100000e+01  2.10600000e+01  7.49500000e+00  2.79700000e+00  5.21500000e-01
  1.59600000e-01  9.43900000e+00  2.00200000e+00  5.45600000e-01  1.51700000e-01
  5.50000000e-01  6.66500000e+03  1.00000000e+03  2.28000000e+02  6.47100000e+01
  2.10600000e+01  7.49500000e+00  2.79700000e+00  5.21500000e-01  6.66500000e+03
  1.00000000e+03  2.28000000e+02  6.47100000e+01  2.10600000e+01  7.49500000e+00
  2.79700000e+00  5.21500000e-01  1.59600000e-01  9.43900000e+00  2.00200000e+00
  5.45600000e-01  1.51700000e-01  5.50000000e-01  1.17200000e+04  1.75900000e+03
  4.00800000e+02  1.13700000e+02  3.70300000e+01  1.32700000e+01  5.02500000e+00
  1.01300000e+00  1.17200000e+04  1.75900000e+03  4.00800000e+02  1.13700000e+02
  3.70300000e+01  1.32700000e+01  5.02500000e+00  1.01300000e+00  3.02300000e-01
  1.77000000e+01  3.85400000e+00  1.04600000e+00  2.75300000e-01  1.18500000e+00
  1.30100000e+01  1.96200000e+00  4.44600000e-01  1.22000000e-01  7.27000000e-01
  1.30100000e+01  1.96200000e+00  4.44600000e-01  1.22000000e-01  7.27000000e-01
  1.30100000e+01  1.96200000e+00  4.44600000e-01  1.22000000e-01  7.27000000e-01
  1.30100000e+01  1.96200000e+00  4.44600000e-01  1.22000000e-01  7.27000000e-01
  1.30100000e+01  1.96200000e+00  4.44600000e-01  1.22000000e-01  7.27000000e-01
  1.30100000e+01  1.96200000e+00  4.44600000e-01  1.22000000e-01  7.27000000e-01
Contraction coefficients                   R   N=         140
  6.91583963e-04  5.32579615e-03  2.70607210e-02  1.01656846e-01  2.74574824e-01
  4.48294319e-01  2.84902611e-01  1.51948592e-02 -2.93269653e-04 -2.31803547e-03
 -1.14997860e-02 -4.68267270e-02 -1.28466169e-01 -3.01266272e-01 -2.55630702e-01
  1.09379336e+00  1.00000000e+00  5.69792516e-02  3.13207212e-01  7.60376742e-01
  1.00000000e+00  1.00000000e+00  6.91583963e-04  5.32579615e-03  2.70607210e-02
  1.01656846e-01  2.74574824e-01  4.48294319e-01  2.84902611e-01  1.51948592e-02
 -2.93269653e-04 -2.31803547e-03 -1.14997860e-02 -4.68267270e-02 -1.28466169e-01
 -3.01266272e-01 -2.55630702e-01  1.09379336e+00  1.00000000e+00  5.69792516e-02
  3.13207212e-01  7.60376742e-01  1.00000000e+00  1.00000000e+00  6.91583963e-04
  5.32579615e-03  2.70607210e-02  1.01656846e-01  2.74574824e-01  4.48294319e-01
  2.84902611e-01  1.51948592e-02 -2.93269653e-04 -2.31803547e-03 -1.14997860e-02
 -4.68267270e-02 -1.28466169e-01 -3.01266272e-01 -2.55630702e-01  1.09379336e+00
  1.00000000e+00  5.69792516e-02  3.13207212e-01  7.60376742e-01  1.00000000e+00
  1.00000000e+00  6.91583963e-04  5.32579615e-03  2.70607210e-02  1.01656846e-01
  2.74574824e-01  4.48294319e-01  2.84902611e-01  1.51948592e-02 -2.93269653e-04
 -2.31803547e-03 -1.14997860e-02 -4.68267270e-02 -1.28466169e-01 -3.01266272e-01
 -2.55630702e-01  1.09379336e+00  1.00000000e+00  5.69792516e-02  3.13207212e-01
  7.60376742e-01  1.00000000e+00  1.00000000e+00  7.09645947e-04  5.46727229e-03
  2.78231186e-02  1.04747740e-01  2.82920846e-01  4.48495239e-01  2.70816885e-01
  1.54502916e-02 -3.14443412e-04 -2.48213768e-03 -1.23163554e-02 -5.05389173e-02
 -1.39384903e-01 -3.25077495e-01 -2.29848308e-01  1.09537935e+00  1.00000000e+00
  6.26791663e-02  3.33536566e-01  7.41239642e-01  1.00000000e+00  1.00000000e+00
  3.34987264e-02  2.34800801e-01  8.13682958e-01  1.00000000e+00  1.00000000e+00
  3.34987264e-02  2.34800801e-01  8.13682958e-01  1.00000000e+00  1.00000000e+00
  3.34987264e-02  2.34800801e-01  8.13682958e-01  1.00000000e+00  1.00000000e+00
  3.34987264e-02  2.34800801e-01  8.13682958e-01  1.00000000e+00  1.00000000e+00
  3.34987264e-02  2.34800801e-01  8.13682958e-01  1.00000000e+00  1.00000000e+00
  3.34987264e-02  2.34800801e-01  8.13682958e-01  1.00000000e+00  1.00000000e+00
Coordinates of each shell                  R   N=         144
  1.65088549e+00  2.96874636e+00  2.84345392e-01  1.65088549e+00  2.96874636e+00
  2.84345392e-01  1.65088549e+00  2.96874636e+00  2.84345392e-01  1.65088549e+00
  2.96874636e+00  2.84345392e-01  1.65088549e+00  2.96874636e+00  2.84345392e-01
  1.65088549e+00  2.96874636e+00  2.84345392e-01 -7.93859231e-01  2.39019771e+00
 -1.60011725e-01 -7.93859231e-01  2.39019771e+00 -1.60011725e-01 -7.93859231e-01
  2.39019771e+00 -1.60011725e-01 -7.93859231e-01  2.39019771e+00 -1.60011725e-01
 -7.93859231e-01  2.39019771e+00 -1.60011725e-01 -7.93859231e-01  2.39019771e+00
 -1.60011725e-01 -2.06376216e+00 -2.01553102e-02  3.10654897e-01 -2.06376216e+00
 -2.01553102e-02  3.10654897e-01 -2.06376216e+00 -2.01553102e-02  3.10654897e-01
 -2.06376216e+00 -2.01553102e-02  3.10654897e-01 -2.06376216e+00 -2.01553102e-02
  3.10654897e-01 -2.06376216e+00 -2.01553102e-02  3.10654897e-01 -8.77096886e-01
 -2.27021211e+00  9.75916207e-02 -8.77096886e-01 -2.27021211e+00  9.75916207e-02
 -8.77096886e-01 -2.27021211e+00  9.75916207e-02 -8.77096886e-01 -2.27021211e+00
  9.75916207e-02 -8.77096886e-01 -2.27021211e+00  9.75916207e-02 -8.77096886e-01
 -2.27021211e+00  9.75916207e-02  1.58110444e+00 -2.63062510e+00 -4.07098103e-01
  1.58110444e+00 -2.63062510e+00 -4.07098103e-01  1.58110444e+00 -2.63062510e+00
 -4.07098103e-01  1.58110444e+00 -2.63062510e+00 -4.07098103e-01  1.58110444e+00
 -2.63062510e+00 -4.07098103e-01  1.58110444e+00 -2.63062510e+00 -4.07098103e-01
  2.34222346e+00 -9.82158340e-01 -6.63028663e-01  2.34222346e+00 -9.82158340e-01
 -6.63028663e-01  2.34222346e+00 -9.82158340e-01 -6.63028663e-01  2.45477902e+00
  4.76516274e+00 -3.42533455e-01  2.45477902e+00  4.76516274e+00 -3.42533455e-01
  2.45477902e+00  4.76516274e+00 -3.42533455e-01  2.89565322e+00  1.71872010e+00
  1.37621730e+00  2.89565322e+00  1.71872010e+00  1.37621730e+00  2.89565322e+00
  1.71872010e+00  1.37621730e+00 -1.90957770e+00 -4.07688929e+00  2.00888000e-01
 -1.90957770e+00 -4.07688929e+00  2.00888000e-01 -1.90957770e+00 -4.07688929e+00
  2.00888000e-01 -4.10070462e+00 -3.92410716e-02  6.27125365e-01 -4.10070462e+00
 -3.92410716e-02  6.27125365e-01 -4.10070462e+00 -3.92410716e-02  6.27125365e-01
 -1.96380816e+00  3.82731856e+00 -1.07906725e+00 -1.96380816e+00  3.82731856e+00
 -1.07906725e+00 -1.96380816e+00  3.82731856e+00 -1.07906725e+00
Total Energy                               R     -2.312250582865561e+02
Alpha Orbital Energies                     R   N=         100
 -1.91746432e+01 -1.02511913e+01 -1.02058571e+01 -1.01904475e+01 -1.01817582e+01
 -1.07034386e+00 -8.02169945e-01 -7.31712965e-01 -6.29236724e-01 -5.80981160e-01
 -5.00556860e-01 -4.78047572e-01 -4.47118956e-01 -4.09910345e-01 -3.97060231e-01
 -3.78382180e-01 -3.45850189e-01 -3.00036848e-01 -2.17981691e-01 -2.52824163e-02
  5.62675454e-02  7.44176176e-02  8.09575430e-02  1.01318875e-01  1.26812969e-01
  1.41914323e-01  1.65770378e-01  2.24533407e-01  3.00157155e-01  3.22246999e-01
  3.46784961e-01  4.34249179e-01  4.44320050e-01  4.74127121e-01  4.78375132e-01
  4.95739941e-01  5.12038839e-01  5.34393620e-01  5.54261646e-01  5.68176580e-01
  5.81913974e-01  6.12516781e-01  6.28181495e-01  6.57370896e-01  6.75107790e-01
  7.22627967e-01  7.65758188e-01  7.94533456e-01  8.78162064e-01  9.03421823e-01
  9.38848940e-01  9.57054475e-01  9.64750201e-01  1.00263206e+00  1.04320906e+00
  1.05258587e+00  1.09418354e+00  1.10455397e+00  1.15983104e+00  1.19257626e+00
  1.22722369e+00  1.32016783e+00  1.36311853e+00  1.43221814e+00  1.45774278e+00
  1.48309630e+00  1.50655920e+00  1.52892591e+00  1.55541096e+00  1.58905622e+00
  1.61057646e+00  1.64523957e+00  1.68687843e+00  1.71485186e+00  1.73209429e+00
  1.74939386e+00  1.76073401e+00  1.82252676e+00  1.89598262e+00  1.92464787e+00
  1.98122937e+00  1.99063936e+00  2.03451265e+00  2.08030004e+00  2.09796946e+00
  2.17639274e+00  2.23571342e+00  2.26185245e+00  2.38652332e+00  2.39719826e+00
  2.42459873e+00  2.57510580e+00  2.73223348e+00  2.77911804e+00  2.88412701e+00
  2.96552036e+00  3.02222814e+00  3.18541464e+00  3.44726679e+00  3.70679049e+00
Alpha MO coefficients                      R   N=       10000
 -9.35609812e-05 -1.61564569e-04  1.31226182e-03 -1.01609360e-04  7.67043930e-05
  2.23578512e-05 -2.62784802e-04 -1.37646396e-03  1.77099883e-04 -7.60046708e-05
  7.68289261e-06  4.17848234e-05 -6.53681212e-05  8.13895483e-05  2.12424251e-04
  3.67799050e-04 -5.58411271e-03 -2.62384293e-06  1.43440303e-06  7.03349806e-05
  2.14740223e-04  2.94672899e-03 -9.37175005e-04  6.56947049e-05 -1.27782385e-04
  1.07186792e-04 -5.18902553e-06  2.83519103e-05 -1.90839550e-04 -2.77727095e-04
  4.78420502e-03  5.55127955e-05 -2.56130212e-04  3.16894014e-06  4.68616826e-03
  3.10265615e-03 -1.04069772e-03 -1.55656566e-04 -1.46822371e-04  5.72689831e-05
  4.24088111e-04 -3.92766815e-04 -2.13968824e-04 -3.75992620e-04 -5.79174475e-03
 -3.15472145e-04  2.00962561e-04  1.05035761e-04 -5.82792543e-03 -1.55853427e-03
  1.15441426e-03  3.81455487e-04 -1.90346812e-05  4.35272424e-05  7.55965122e-04
 -4.07630892e-04 -1.00410650e+00 -9.41434822e-03  1.40837645e-02  9.14012677e-04
 -1.45579702e-03 -8.45434784e-05 -3.23921036e-03  1.35599048e-03  6.19129715e-04
  3.61327416e-05  3.39608317e-06  8.22116996e-05  1.50951163e-04 -2.70654232e-04
 -2.17348431e-04 -3.69122035e-04 -2.38371797e-04 -1.02919060e-03  4.22554955e-05
  4.44031780e-05  2.94929835e-04  3.94355744e-05  6.72303926e-05  4.59045487e-06
 -2.34046367e-04 -1.97818086e-04  2.80297393e-06 -3.01096280e-05 -1.90696646e-05
  3.98713374e-04 -8.76192676e-04  6.35353750e-04  1.54458817e-04 -1.19292831e-04
  1.61196251e-04  1.28375210e-03 -2.31933348e-04 -2.13758024e-04  6.33157367e-05
  8.80672567e-05 -6.25568079e-04 -3.29079387e-05 -1.04439498e-04  3.19928012e-05
 -2.84562984e-04 -3.48789454e-04  1.12889253e-03  1.42571642e-04  8.25159939e-05
  7.13071175e-05 -1.25260405e-03  4.78464435e-04 -6.30413358e-04 -7.86310006e-05
 -1.54513623e-05 -2.80990896e-05  5.34937482e-05 -3.85860454e-05 -4.89681783e-04
 -7.08219149e-04  4.87166739e-03 -1.16654885e-04  7.01760849e-06  1.51896386e-06
 -2.39559905e-03 -4.11378356e-03  7.84048518e-04 -3.50287273e-04 -9.63304727e-05
 -1.06107142e-04 -6.53143660e-06  1.72943533e-04  4.54504098e-03 -9.96386568e-04
  5.37856148e-05 -5.81153143e-04  1.34528833e-03  1.06726274e-04 -2.03730183e-03
 -6.35316983e-03  7.44392325e-04  1.07801249e-03  2.44206771e-04 -5.84801346e-05
  5.45783417e-04  8.92770068e-04  1.00590540e+00  1.52904924e-02 -1.22132072e-02
  6.72129599e-04 -4.04658372e-04 -2.34559786e-04  5.17237549e-03 -2.24963280e-03
 -1.01463246e-03 -1.64099613e-03 -5.05873363e-04  1.18341426e-04 -2.15588824e-04
 -5.48513104e-05  7.20798381e-04  1.30551267e-03 -5.15256357e-03  3.00715376e-04
 -2.14040551e-04 -4.27120955e-05  3.38179202e-03 -2.34109370e-04 -7.25561679e-04
  7.08553354e-04  4.34592759e-04 -2.31766753e-05 -7.80517881e-04  1.71777915e-04
  5.44211734e-04 -5.03801148e-04 -6.24758440e-04 -3.97602538e-05  1.20012563e-04
 -5.86948476e-05  1.67840596e-04 -2.69341116e-05 -5.10074738e-05  3.11292631e-05
  1.47187781e-06  9.27605599e-04  1.23757718e-05  5.99463735e-05 -3.24233436e-05
 -2.04924866e-03  2.27938311e-03 -1.49930949e-03 -1.58107695e-03  1.91285646e-04
 -1.48481280e-04 -3.10205882e-04  3.05875669e-04  2.87733912e-04 -7.42687115e-05
 -6.56653612e-05  5.46999292e-04  1.67905665e-04  1.31518767e-04 -3.43391568e-05
  2.20588252e-02 -1.11534596e-03  4.76610973e-03  1.33782972e-03  3.23962633e-04
  1.47845747e-04 -2.10466418e-03 -1.74741184e-03  3.98765434e-04  7.80665231e-04
 -5.04190091e-04 -2.25270070e-05 -1.06988350e-03 -3.96266369e-04  1.00619831e+00
  1.62882532e-02 -1.90840417e-02 -1.33465920e-04  2.20987176e-04 -2.77587437e-04
 -1.76247789e-03  3.12323455e-03 -1.69284039e-03 -7.54707961e-04  7.00578170e-04
 -6.69305066e-04  2.43143918e-04 -5.22509068e-05  5.49609887e-03 -4.25157515e-04
  9.70550360e-04 -4.59537497e-04 -6.25225728e-04  1.45695155e-04  6.71015652e-04
  3.71866063e-03  3.08460906e-04  7.97483713e-04  5.59151103e-05  5.79942963e-04
  1.05439543e-03 -9.62657855e-04 -3.80647780e-04 -7.34467863e-04  4.17498616e-03
 -8.92273070e-05 -1.82620078e-04  1.25137796e-04 -5.91179049e-04  2.80790098e-03
 -2.45945058e-04 -4.37650408e-04 -3.23538831e-04  4.11637303e-05  3.85289682e-04
 -2.59186461e-04  8.28177498e-05  1.19002470e-04 -1.23674340e-03  1.64604335e-04
 -4.52501803e-05 -2.29715164e-05  1.39711755e-04 -6.76661687e-04  7.36148072e-05
  7.92826279e-05  2.07035457e-05  1.72827069e-05 -8.65191369e-06  1.82157906e-05
  2.92514291e-04  5.90586008e-04 -2.86943341e-04 -7.49433202e-05 -3.00591836e-05
 -4.83790326e-05  8.89373482e-04  1.42249144e-04 -1.14925398e-04  8.49959922e-05
 -2.71582764e-04 -1.72838738e-04  3.80237832e-05  2.28479699e-04 -1.17534532e-04
  7.06043140e-05  7.93359882e-04  1.65665479e-04 -6.80736151e-05  2.30284016e-06
 -2.72801613e-04  3.66033293e-04 -5.59877956e-05 -3.91414698e-04 -5.85003704e-05
 -2.33614344e-03  1.22502043e-03 -1.15420952e-03  1.52337620e-03 -9.56016360e-04
  1.00619916e+00  1.63865892e-02 -1.54647102e-02  2.68519839e-04 -6.75632434e-05
  1.40659754e-05  2.27133427e-03  8.99133688e-04  7.14023723e-04 -9.68338786e-04
  6.75700387e-04 -1.24991175e-03  8.41023746e-05  3.55022742e-04 -2.32808614e-02
 -1.45637970e-03  1.24234162e-03 -1.32834759e-03 -3.19452524e-04 -2.60429426e-04
  3.00034758e-03  2.36877912e-03 -2.71175749e-05  9.90462204e-04 -5.57032482e-04
  1.96793539e-04 -1.02139677e-03 -7.62554304e-04 -1.02053917e-03 -5.16438446e-04
  3.43027481e-03 -8.72170326e-05  4.93147537e-05 -6.62340090e-05  1.90865225e-03
  2.37838407e-03 -5.00481331e-04 -3.71500291e-04  7.54665079e-05 -2.44126970e-04
 -3.40270416e-04  2.68374539e-05  9.60179188e-06 -2.11530554e-04 -7.49444463e-04
 -1.26574554e-05 -1.32542877e-04 -5.00056476e-05 -1.30557037e-03 -1.82239073e-04
  3.03203088e-04  5.61123216e-05  1.04985786e-04 -8.91047172e-05 -6.21165885e-05
  1.10938513e-04  1.30677508e-05  4.03250045e-05  4.34342285e-04  1.30188954e-04
  7.44403499e-05 -3.81377841e-05 -6.99422493e-04 -1.54409600e-04  1.01599998e-04
 -4.10026951e-05 -3.42716019e-05 -2.81769154e-05  7.78597012e-05  6.43437418e-05
  1.93184174e-04  1.37444530e-03 -1.16345585e-04  4.80731480e-04  8.58318868e-05
 -2.32059771e-03  1.84140108e-03  7.71052098e-04  1.98523763e-03 -7.66844262e-04
 -2.05337539e-03  1.48706004e-03  1.18959220e-03 -1.45668455e-03  1.25498002e-03
 -8.10243115e-05 -2.53744944e-05  3.76322822e-05  1.71060049e-05 -2.03606759e-05
  1.13947329e-04  5.80822017e-04  1.38112728e-05 -1.25915819e-04  4.56587282e-05
  8.06221840e-05  2.85679937e-04  1.08729345e-05 -3.17604286e-04  1.04783674e-04
  3.07041247e-04 -4.52975114e-04  2.77412892e-03  7.23458726e-05  1.09028378e-04
 -8.24726058e-05 -2.07288536e-03 -4.02887699e-04 -1.11766578e-05 -2.54015579e-04
  5.10314400e-04 -2.98063271e-04  2.62154445e-04 -4.74210006e-04 -5.86351253e-03
 -6.71487955e-04  3.08730777e-03  2.12551325e-04  6.89786499e-04 -1.73293590e-04
 -2.14785566e-03 -3.82663711e-03 -1.78455920e-05  9.00286445e-04  5.02316045e-04
  3.72250412e-04  5.61857324e-04 -1.28219135e-03  1.00666461e+00  1.67823542e-02
 -2.19305665e-02 -2.19570334e-04 -1.70094569e-04 -1.36425079e-04 -5.21315577e-03
 -2.61190125e-04  1.64243793e-03 -1.07951334e-03 -3.82535421e-04  4.57629699e-06
  3.66454509e-04 -2.03231334e-04 -5.78347416e-03 -1.57751128e-03  6.84255065e-03
  6.47279741e-04 -1.21433448e-03 -1.07757213e-04  1.94575311e-04  4.16789275e-03
 -2.83587927e-04  8.41375542e-04  1.79113951e-04 -2.31469069e-04  6.85165356e-04
  1.01694206e-03  3.11537337e-05  4.29587663e-05 -9.54889829e-04  2.76154661e-05
 -5.88208283e-05 -5.43694889e-06 -1.07070803e-04 -7.12192377e-04  6.46032880e-05
 -5.95569705e-05 -3.94814779e-05 -1.18204933e-05  9.27486291e-05  8.08734474e-05
  2.69506414e-04  4.81366952e-05 -1.36261159e-04 -1.67626033e-04  2.14507966e-05
  1.12348608e-04  5.07529982e-04  1.38529674e-04 -1.45836924e-04  4.95781833e-05
 -6.91714978e-04  5.00098113e-04  1.81018079e-04 -1.14800356e-04  1.23766013e-04
  1.31589330e-04  1.16015644e-03  2.84641101e-04 -1.83723080e-05 -5.29233120e-06
 -2.43087105e-03  8.19958086e-04 -2.14170512e-03 -7.11458833e-05  2.48514220e-04
 -3.34889858e-04  6.94552703e-04  2.09600220e-04  2.78743585e-04  7.56047500e-05
  2.11858785e-04  9.09500431e-03 -5.17367004e-03 -1.94445567e-03 -5.52261429e-03
 -6.62803677e-04  3.07307005e-03  5.82170124e-03 -2.22909355e-03 -2.38761129e-04
 -6.40226055e-04  6.83459711e-04 -8.14335321e-04  9.80059976e-04 -1.36815468e-04
  1.34854474e-02  2.76819654e-03  1.74415621e-03 -8.84729922e-03  9.65840757e-04
  6.53046419e-03  3.06016680e-03  3.35751830e-04 -1.42679784e-03 -1.90734858e-04
 -4.66697163e-04 -1.21301318e-03  3.87279264e-04 -1.30573051e-03  3.49967915e-02
 -5.18369403e-03  2.15517234e-02 -1.76410779e-02 -4.49484021e-03  5.27960169e-03
  1.54010854e-02 -2.13677538e-03 -2.22641064e-03 -1.22214241e-03  1.49278410e-03
  2.45141614e-03 -8.01574838e-03 -1.27671669e-02  1.55701662e-01  8.55505379e-02
  1.28686602e-01 -3.86687181e-03 -2.73049995e-02  4.36925366e-03  2.46480961e-02
 -5.17412385e-04 -1.13076495e-02 -1.08405211e-02  5.31214095e-04  2.88890013e-02
 -4.04041458e-03 -6.82761842e-03  4.23306167e-01  3.68437192e-01 -7.53562359e-02
  8.97522175e-02  1.09564645e-02 -3.12009867e-02 -3.19518263e-03  6.62455899e-03
 -6.37979546e-03 -3.34478229e-03 -2.48834809e-04  4.12056804e-03 -1.71538302e-03
  1.72868694e-01  4.95091474e-03 -1.89582415e-02 -3.01769901e-02  6.33424183e-03
  1.70468263e-05 -4.25941818e-03  4.83131279e-05  8.60151851e-05 -1.53856309e-04
  8.04494154e-03  4.80891690e-03 -1.19659270e-03 -6.10708886e-04 -9.34949956e-04
  3.34687352e-02  5.33993869e-03  8.25026115e-03  4.55307469e-03 -1.30978841e-03
  4.95423800e-03  2.08662195e-03  4.08419852e-04 -2.30070661e-03  7.90556976e-06
  1.69194943e-03 -1.07392546e-03 -2.97353425e-04 -4.43807695e-04 -9.49588186e-05
  1.47189012e-02 -1.91167441e-01 -1.04231258e-01  8.32703366e-02  2.87416383e-02
  1.30177859e-02  8.54591361e-03 -2.45068736e-03  8.11147253e-03  5.04908591e-03
 -2.16833877e-03 -3.30472754e-03 -7.79746794e-03 -5.89185590e-03  1.94571023e-02
 -2.77813206e-01 -1.77357234e-01 -3.73980023e-02  4.09104683e-02 -1.80105786e-02
 -1.91931074e-02  2.09044398e-02 -1.35661005e-02  1.05363187e-02 -6.09762161e-04
  1.39670938e-03 -1.57233572e-03 -1.08437013e-02  1.83546342e-02 -2.40941628e-01
 -1.43019667e-01 -5.62394819e-02 -1.52294629e-02  1.66570422e-02 -1.95309226e-02
 -1.21168930e-02  9.77553621e-03  8.62106796e-03  1.91023098e-03  2.57193705e-03
  9.22576064e-03 -5.24634181e-03  5.40488542e-03 -1.23852118e-01 -6.59515105e-02
  6.30922718e-02 -8.64130115e-02 -1.07321485e-02  2.37786950e-02 -1.21321397e-02
 -6.79359023e-03  3.34865872e-03 -1.64557247e-03 -6.84954582e-04  1.22545729e-02
  4.29677767e-03  1.07364656e-03  8.95052375e-02  8.23476814e-02  2.65204201e-02
  1.75632837e-03 -6.87042786e-03  1.63802837e-02 -8.26755433e-03 -3.29036637e-03
  7.94087871e-04  4.19122061e-04 -6.81150372e-04 -1.05490644e-03  2.92728912e-03
  3.32810724e-02  3.66418208e-03 -1.78022140e-03 -9.50268141e-03  8.44740712e-05
 -5.93245616e-02 -5.55117493e-04  5.91731658e-03  8.62789146e-03 -2.38424008e-03
 -6.87199936e-02 -4.20227805e-03  8.01050539e-03 -5.44860403e-03  5.95593656e-03
 -3.20624952e-02  1.18435462e-03 -3.98184354e-04 -5.72026103e-03  9.58140734e-05
 -8.06889864e-02 -8.54685732e-03 -1.30169988e-02 -1.01512014e-03  1.97014274e-03
 -9.60528599e-02 -1.24155810e-02 -8.50140874e-03  1.08465959e-02 -6.37722972e-03
  1.62435153e-02 -2.27585984e-01 -1.26767531e-01  5.40998064e-02  9.65936211e-03
  1.32041216e-02  2.07111001e-03  8.92206093e-04  2.93552754e-03  3.28847232e-03
 -2.46045068e-03 -2.34323223e-03 -5.28737438e-03  1.98713591e-04  8.90709555e-03
 -1.33455757e-01 -1.01974356e-01 -1.10392961e-01 -7.62880939e-02 -5.35916075e-03
 -4.83382367e-02 -1.19683394e-02 -6.44236971e-03  2.43374037e-03 -3.96251857e-03
 -2.47603012e-03 -1.46363827e-02  6.52948519e-04 -1.34388820e-02  1.97638217e-01
  1.30251806e-01  1.16662428e-02 -1.18148310e-01 -5.96403060e-03  1.97026565e-02
 -3.30570041e-02 -6.42602798e-04 -3.33178588e-03  8.64152109e-05  2.24817216e-03
 -6.62737711e-03 -1.22569113e-02 -9.82583463e-03  2.51676662e-01  1.39767052e-01
 -7.16879670e-02  5.75598699e-02  1.07092406e-02 -2.24987552e-02  8.12871208e-03
  2.61503891e-03 -5.35304379e-03 -5.26661581e-04  1.48446552e-03 -4.99239239e-03
 -1.12923752e-02 -1.96013347e-03 -8.64256186e-02 -7.51313318e-02 -1.12973632e-01
 -4.89154050e-02  2.49598104e-02 -5.14673869e-02 -4.09908060e-03  1.00216587e-02
 -1.48391394e-03 -1.51030292e-03  1.27622146e-03  6.30529775e-03 -5.07646113e-03
 -1.12804931e-01 -2.09018999e-02  4.94391838e-03  1.16204867e-02 -3.10286030e-03
 -9.58361346e-02 -9.31286770e-03  6.19599071e-03  1.24338787e-02 -3.87058491e-03
 -9.64125452e-02 -1.23785035e-02  9.08637428e-03 -6.55574842e-03  8.14209189e-03
  1.06702331e-01  8.94506130e-03  5.10388159e-03  1.38293475e-02 -3.90983290e-04
  8.92351659e-02  1.40007839e-02  1.22576057e-02 -2.95541032e-03 -2.11727441e-03
 -5.75881666e-02 -1.20083836e-02 -6.75375293e-03  3.43784881e-03 -3.54994121e-03
  1.04073261e-02 -1.86867999e-01 -1.22850145e-01 -1.81569305e-02 -3.14161698e-02
  1.63299774e-03 -1.99534605e-02  5.33551676e-03 -8.58808677e-03 -1.39203541e-03
 -4.41105479e-04  4.64389164e-04  2.19571309e-04  2.08907855e-03 -2.58095765e-03
  7.68832510e-02  3.92485973e-02 -1.45649007e-01 -9.42147303e-02 -7.22164778e-03
 -4.84482251e-02 -4.16357717e-02  1.59094599e-04 -1.01425062e-03 -4.36017413e-03
 -2.58281280e-03 -9.61855287e-03  1.24395075e-03 -5.97488858e-03  1.59668814e-01
  8.97396125e-02 -1.72556101e-02  1.11390050e-01 -1.27992663e-02  3.10794958e-03
  4.12133168e-02 -4.21767230e-03 -7.29201545e-04 -9.36704702e-04 -4.09939276e-03
 -2.42129417e-03  7.27419712e-03  2.81535855e-03 -2.05645293e-01 -1.25026179e-01
 -5.80011688e-02  1.47347447e-01  8.45267783e-03 -2.07663705e-02  3.79678756e-02
  1.37801950e-03  2.04754863e-03  2.61135092e-03 -3.00659259e-03 -9.65608726e-03
  1.00447490e-02  4.35593345e-04  5.29243278e-02  5.08517928e-02  2.45409527e-01
  1.51502760e-01 -6.05819855e-02  1.05789145e-01  4.64744772e-02 -2.50698592e-02
  1.19548127e-03  2.90861710e-03 -1.52359237e-03 -1.25244765e-02  3.71486107e-03
  1.98074391e-01  3.97361378e-02 -8.21467331e-03 -2.43845200e-02  2.75734748e-03
 -1.21386005e-01 -2.66010367e-02  5.26668943e-03  1.22258084e-02 -4.58464017e-03
 -8.75156749e-02 -4.73989316e-03  6.18630083e-03 -9.17432235e-03  5.76456455e-03
 -1.59147093e-01 -2.90565598e-02 -9.32911118e-03 -1.38802944e-02  7.39108206e-04
  9.42838059e-02  1.96400459e-02  1.07131711e-02  2.59095311e-03 -2.01574356e-03
  5.23064172e-02  1.08865859e-02  1.74658871e-04 -5.94709874e-03  2.11513883e-03
  6.81048331e-03 -1.41907842e-01 -8.70710628e-02 -1.39464682e-01  2.37834129e-02
 -4.13326315e-02 -5.63010234e-02  1.34532686e-02 -1.42402742e-02 -3.17066306e-03
  3.30265980e-03 -6.88255516e-05  1.11538377e-02  2.90710738e-03 -4.54980876e-03
  2.14973768e-01  1.21487551e-01 -1.10388913e-01  4.95610550e-02 -4.07346747e-02
 -4.49761485e-02  7.23826359e-03 -1.14680290e-02  4.21796595e-03 -2.67563681e-03
 -6.54506100e-04 -2.28371168e-03  1.01291806e-04  1.73356080e-03 -7.20926124e-02
 -1.59530347e-02 -6.79754278e-03  1.89818254e-01 -2.00620066e-02  2.57926716e-03
  4.50294518e-02 -9.67331493e-03 -1.35981203e-03 -1.49456803e-03 -5.11841842e-03
 -3.41317299e-03  6.64895669e-03  2.92948427e-03 -2.33394131e-02 -2.31887200e-02
  1.62475432e-01 -1.65462987e-01 -3.82242991e-02  4.74302901e-02 -6.07895511e-02
 -1.12127328e-02 -2.25407246e-03 -2.84243648e-03  9.86980423e-04  1.04711823e-02
 -9.88067955e-03  1.36567627e-03  4.18527851e-02  6.31096469e-02 -1.89631470e-01
 -1.75343266e-01  4.02505156e-02 -7.16462478e-02 -7.07268739e-02  1.25047083e-02
  1.14779327e-03 -1.24027544e-03  6.98758264e-04  1.04786505e-02 -1.49978067e-03
 -1.84395410e-01 -4.58892013e-02  5.55069712e-03  1.15612831e-02 -5.24783437e-03
 -9.64439305e-02 -2.29625001e-02  4.97042737e-04  1.02442541e-02 -4.38378896e-03
 -1.69405976e-01 -3.58904906e-02  7.30771868e-03 -6.86853665e-03  1.05830160e-02
  1.89589660e-02  8.25368881e-04  3.13003831e-03 -3.50590058e-04 -6.52459137e-04
 -3.90127676e-02 -8.41955326e-03 -5.06853280e-03  3.90376187e-03  3.95380977e-04
  1.89988411e-01  4.01145476e-02  9.39086015e-03 -1.33424750e-02  8.69350828e-03
 -7.75342741e-04  3.81607058e-02  4.39915401e-02  6.71534413e-02  1.39420667e-01
 -2.99693101e-02  1.20369613e-02  5.67179543e-02 -1.21741349e-02  2.34040591e-03
 -1.40823713e-03 -2.34236511e-03 -4.26860538e-04 -3.91079579e-03 -1.80124079e-04
 -3.05246589e-02 -2.00242481e-02 -8.84162220e-02  1.47734948e-01 -4.89420029e-02
 -5.37317363e-02  4.70726971e-02 -1.20792081e-02  1.06993182e-03 -1.81074109e-03
 -8.31887608e-04  7.24983811e-03  8.72894350e-03 -4.58166020e-03  3.38063228e-02