Generated by Psi4
        SP                           RHF                       CC-PVDZ
Number of atoms                            I               11
Charge                                     I                0
Multiplicity                               I                1
Number of electrons                        I               38
Number of alpha electrons                  I               19
Number of beta electrons                   I               19
Number of basis functions                  I              100
Number of independent functions            I              100
Atomic numbers                             I   N=          11
           6           6           6           6           8           1
           1           1           1           1           1
Nuclear charges                            R   N=          11
  6.00000000e+00  6.00000000e+00  6.00000000e+00  6.00000000e+00  8.00000000e+00
  1.00000000e+00  1.00000000e+00  1.00000000e+00  1.00000000e+00  1.00000000e+00
  1.00000000e+00
Current cartesian coordinates              R   N=          33
  1.64050214e+00  3.00768855e+00  3.00000201e-01 -7.93238322e-01  2.41195468e+00
 -1.75006725e-01 -2.04221830e+00 -6.26714584e-03  2.86312196e-01 -8.86411212e-01
 -2.27811173e+00  1.08969677e-01  1.58077929e+00 -2.68949020e+00 -4.02352097e-01
  2.35569212e+00 -1.04858941e+00 -7.37293033e-01  2.41879579e+00  4.83553802e+00
 -2.54542217e-01  2.90341862e+00  1.76450393e+00  1.36747240e+00 -1.92569079e+00
 -4.05210165e+00  2.86748931e-01 -4.08308956e+00 -9.22995295e-03  5.99171021e-01
 -1.97477603e+00  3.86298464e+00 -1.07076678e+00
Integer atomic weights                     I   N=          11
          12          12          12          12          16           1
           1           1           1           1           1
Real atomic weights                        R   N=          11
  1.20000000e+01  1.20000000e+01  1.20000000e+01  1.20000000e+01  1.59949146e+01
  1.00782503e+00  1.00782503e+00  1.00782503e+00  1.00782503e+00  1.00782503e+00
  1.00782503e+00
Number of primitive shells                 I              140
Number of contracted shells                I               48
Pure/Cartesian d shells                    I                0
Pure/Cartesian f shells                    I                0
Highest angular momentum                   I                2
Largest degree of contraction              I                8
Shell types                                I   N=          48
           0           0           0           1           1          -2
           0           0           0           1           1          -2
           0           0           0           1           1          -2
           0           0           0           1           1          -2
           0           0           0           1           1          -2
           0           0           1           0           0           1
           0           0           1           0           0           1
           0           0           1           0           0           1
Number of primitives per shell             I   N=          48
           8           8           1           3           1           1
           8           8           1           3           1           1
           8           8           1           3           1           1
           8           8           1           3           1           1
           8           8           1           3           1           1
           3           1           1           3           1           1
           3           1           1           3           1           1
           3           1           1           3           1           1
Shell to atom map                          I   N=          48
           1           1           1           1           1           1
           2           2           2           2           2           2
           3           3           3           3           3           3
           4           4           4           4           4           4
           5           5           5           5           5           5
           6           6           6           7           7           7
           8           8           8           9           9           9
          10          10          10          11          11          11
Primitive exponents                        R   N=         140
  6.66500000e+03  1.00000000e+03  2.28000000e+02  6.47100000e+01  2.10600000e+01
  7.49500000e+00  2.79700000e+00  5.21500000e-01  6.66500000e+03  1.00000000e+03
  2.28000000e+02  6.47100000e+01  2.10600000e+01  7.49500000e+00  2.79700000e+00
  5.21500000e-01  1.59600000e-01  9.43900000e+00  2.00200000e+00  5.45600000e-01
  1.51700000e-01  5.50000000e-01  6.66500000e+03  1.00000000e+03  2.28000000e+02
  6.47100000e+01  2.10600000e+01  7.49500000e+00  2.79700000e+00  5.21500000e-01
  6.66500000e+03  1.00000000e+03  2.28000000e+02  6.47100000e+01  2.10600000e+01
  7.49500000e+00  2.79700000e+00  5.21500000e-01  1.59600000e-01  9.43900000e+00
  2.00200000e+00  5.45600000e-01  1.51700000e-01  5.50000000e-01  6.66500000e+03
  1.00000000e+03  2.28000000e+02  6.47100000e+01  2.10600000e+01  7.49500000e+00
  2.79700000e+00  5.21500000e-01  6.66500000e+03  1.00000000e+03  2.28000000e+02
  6.47100000e+01  2.10600000e+01  7.49500000e+00  2.79700000e+00  5.21500000e-01
  1.59600000e-01  9.43900000e+00  2.00200000e+00  5.45600000e-01  1.51700000e-01
  5.50000000e-01  6.66500000e+03  1.00000000e+03  2.28000000e+02  6.47100000e+01
  2.10600000e+01  7.49500000e+00  2.79700000e+00  5.21500000e-01  6.66500000e+03
  1.00000000e+03  2.28000000e+02  6.47100000e+01  2.10600000e+01  7.49500000e+00
  2.79700000e+00  5.21500000e-01  1.59600000e-01  9.43900000e+00  2.00200000e+00
  5.45600000e-01  1.51700000e-01  5.50000000e-01  1.17200000e+04  1.75900000e+03
  4.00800000e+02  1.13700000e+02  3.70300000e+01  1.32700000e+01  5.02500000e+00
  1.01300000e+00  1.17200000e+04  1.75900000e+03  4.00800000e+02  1.13700000e+02
  3.70300000e+01  1.32700000e+01  5.02500000e+00  1.01300000e+00  3.02300000e-01
  1.77000000e+01  3.85400000e+00  1.04600000e+00  2.75300000e-01  1.18500000e+00
  1.30100000e+01  1.96200000e+00  4.44600000e-01  1.22000000e-01  7.27000000e-01
  1.30100000e+01  1.96200000e+00  4.44600000e-01  1.22000000e-01  7.27000000e-01
  1.30100000e+01  1.96200000e+00  4.44600000e-01  1.22000000e-01  7.27000000e-01
  1.30100000e+01  1.96200000e+00  4.44600000e-01  1.22000000e-01  7.27000000e-01
  1.30100000e+01  1.96200000e+00  4.44600000e-01  1.22000000e-01  7.27000000e-01
  1.30100000e+01  1.96200000e+00  4.44600000e-01  1.22000000e-01  7.27000000e-01
Contraction coefficients                   R   N=         140
  6.91583963e-04  5.32579615e-03  2.70607210e-02  1.01656846e-01  2.74574824e-01
  4.48294319e-01  2.84902611e-01  1.51948592e-02 -2.93269653e-04 -2.31803547e-03
 -1.14997860e-02 -4.68267270e-02 -1.28466169e-01 -3.01266272e-01 -2.55630702e-01
  1.09379336e+00  1.00000000e+00  5.69792516e-02  3.13207212e-01  7.60376742e-01
  1.00000000e+00  1.00000000e+00  6.91583963e-04  5.32579615e-03  2.70607210e-02
  1.01656846e-01  2.74574824e-01  4.48294319e-01  2.84902611e-01  1.51948592e-02
 -2.93269653e-04 -2.31803547e-03 -1.14997860e-02 -4.68267270e-02 -1.28466169e-01
 -3.01266272e-01 -2.55630702e-01  1.09379336e+00  1.00000000e+00  5.69792516e-02
  3.13207212e-01  7.60376742e-01  1.00000000e+00  1.00000000e+00  6.91583963e-04
  5.32579615e-03  2.70607210e-02  1.01656846e-01  2.74574824e-01  4.48294319e-01
  2.84902611e-01  1.51948592e-02 -2.93269653e-04 -2.31803547e-03 -1.14997860e-02
 -4.68267270e-02 -1.28466169e-01 -3.01266272e-01 -2.55630702e-01  1.09379336e+00
  1.00000000e+00  5.69792516e-02  3.13207212e-01  7.60376742e-01  1.00000000e+00
  1.00000000e+00  6.91583963e-04  5.32579615e-03  2.70607210e-02  1.01656846e-01
  2.74574824e-01  4.48294319e-01  2.84902611e-01  1.51948592e-02 -2.93269653e-04
 -2.31803547e-03 -1.14997860e-02 -4.68267270e-02 -1.28466169e-01 -3.01266272e-01
 -2.55630702e-01  1.09379336e+00  1.00000000e+00  5.69792516e-02  3.13207212e-01
  7.60376742e-01  1.00000000e+00  1.00000000e+00  7.09645947e-04  5.46727229e-03
  2.78231186e-02  1.04747740e-01  2.82920846e-01  4.48495239e-01  2.70816885e-01
  1.54502916e-02 -3.14443412e-04 -2.48213768e-03 -1.23163554e-02 -5.05389173e-02
 -1.39384903e-01 -3.25077495e-01 -2.29848308e-01  1.09537935e+00  1.00000000e+00
  6.26791663e-02  3.33536566e-01  7.41239642e-01  1.00000000e+00  1.00000000e+00
  3.34987264e-02  2.34800801e-01  8.13682958e-01  1.00000000e+00  1.00000000e+00
  3.34987264e-02  2.34800801e-01  8.13682958e-01  1.00000000e+00  1.00000000e+00
  3.34987264e-02  2.34800801e-01  8.13682958e-01  1.00000000e+00  1.00000000e+00
  3.34987264e-02  2.34800801e-01  8.13682958e-01  1.00000000e+00  1.00000000e+00
  3.34987264e-02  2.34800801e-01  8.13682958e-01  1.00000000e+00  1.00000000e+00
  3.34987264e-02  2.34800801e-01  8.13682958e-01  1.00000000e+00  1.00000000e+00
Coordinates of each shell                  R   N=         144
  1.64050214e+00  3.00768855e+00  3.00000201e-01  1.64050214e+00  3.00768855e+00
  3.00000201e-01  1.64050214e+00  3.00768855e+00  3.00000201e-01  1.64050214e+00
  3.00768855e+00  3.00000201e-01  1.64050214e+00  3.00768855e+00  3.00000201e-01
  1.64050214e+00  3.00768855e+00  3.00000201e-01 -7.93238322e-01  2.41195468e+00
 -1.75006725e-01 -7.93238322e-01  2.41195468e+00 -1.75006725e-01 -7.93238322e-01
  2.41195468e+00 -1.75006725e-01 -7.93238322e-01  2.41195468e+00 -1.75006725e-01
 -7.93238322e-01  2.41195468e+00 -1.75006725e-01 -7.93238322e-01  2.41195468e+00
 -1.75006725e-01 -2.04221830e+00 -6.26714584e-03  2.86312196e-01 -2.04221830e+00
 -6.26714584e-03  2.86312196e-01 -2.04221830e+00 -6.26714584e-03  2.86312196e-01
 -2.04221830e+00 -6.26714584e-03  2.86312196e-01 -2.04221830e+00 -6.26714584e-03
  2.86312196e-01 -2.04221830e+00 -6.26714584e-03  2.86312196e-01 -8.86411212e-01
 -2.27811173e+00  1.08969677e-01 -8.86411212e-01 -2.27811173e+00  1.08969677e-01
 -8.86411212e-01 -2.27811173e+00  1.08969677e-01 -8.86411212e-01 -2.27811173e+00
  1.08969677e-01 -8.86411212e-01 -2.27811173e+00  1.08969677e-01 -8.86411212e-01
 -2.27811173e+00  1.08969677e-01  1.58077929e+00 -2.68949020e+00 -4.02352097e-01
  1.58077929e+00 -2.68949020e+00 -4.02352097e-01  1.58077929e+00 -2.68949020e+00
 -4.02352097e-01  1.58077929e+00 -2.68949020e+00 -4.02352097e-01  1.58077929e+00
 -2.68949020e+00 -4.02352097e-01  1.58077929e+00 -2.68949020e+00 -4.02352097e-01
  2.35569212e+00 -1.04858941e+00 -7.37293033e-01  2.35569212e+00 -1.04858941e+00
 -7.37293033e-01  2.35569212e+00 -1.04858941e+00 -7.37293033e-01  2.41879579e+00
  4.83553802e+00 -2.54542217e-01  2.41879579e+00  4.83553802e+00 -2.54542217e-01
  2.41879579e+00  4.83553802e+00 -2.54542217e-01  2.90341862e+00  1.76450393e+00
  1.36747240e+00  2.90341862e+00  1.76450393e+00  1.36747240e+00  2.90341862e+00
  1.76450393e+00  1.36747240e+00 -1.92569079e+00 -4.05210165e+00  2.86748931e-01
 -1.92569079e+00 -4.05210165e+00  2.86748931e-01 -1.92569079e+00 -4.05210165e+00
  2.86748931e-01 -4.08308956e+00 -9.22995295e-03  5.99171021e-01 -4.08308956e+00
 -9.22995295e-03  5.99171021e-01 -4.08308956e+00 -9.22995295e-03  5.99171021e-01
 -1.97477603e+00  3.86298464e+00 -1.07076678e+00 -1.97477603e+00  3.86298464e+00
 -1.07076678e+00 -1.97477603e+00  3.86298464e+00 -1.07076678e+00
Total Energy                               R     -2.312258594139979e+02
Alpha Orbital Energies                     R   N=         100
 -1.91750108e+01 -1.02505181e+01 -1.02057594e+01 -1.01899719e+01 -1.01824851e+01
 -1.06550836e+00 -8.02000273e-01 -7.31186167e-01 -6.29258422e-01 -5.78689696e-01
 -4.99447287e-01 -4.78801270e-01 -4.47033168e-01 -4.09170367e-01 -3.94305684e-01
 -3.76772034e-01 -3.47304288e-01 -3.00682425e-01 -2.17886535e-01 -2.59777999e-02
  5.71460392e-02  7.19447411e-02  8.06706698e-02  1.01310130e-01  1.25646552e-01
  1.42305007e-01  1.63256479e-01  2.20894391e-01  3.01390221e-01  3.22123942e-01
  3.49919703e-01  4.34134516e-01  4.44504570e-01  4.75297981e-01  4.79408831e-01
  4.95467728e-01  5.11416820e-01  5.35777810e-01  5.55314839e-01  5.67065065e-01
  5.82068260e-01  6.12622416e-01  6.27158284e-01  6.57775022e-01  6.75157954e-01
  7.19970023e-01  7.69544603e-01  7.97589220e-01  8.80561105e-01  9.01504389e-01
  9.40453167e-01  9.51991965e-01  9.63382568e-01  1.00288039e+00  1.04190124e+00
  1.04990597e+00  1.09404272e+00  1.10365141e+00  1.16242689e+00  1.19042325e+00
  1.21832225e+00  1.31996265e+00  1.37008332e+00  1.43798300e+00  1.45305241e+00
  1.48334202e+00  1.50485720e+00  1.52960906e+00  1.55700285e+00  1.58875328e+00
  1.60323581e+00  1.64563181e+00  1.68331273e+00  1.71847064e+00  1.73422693e+00
  1.75152330e+00  1.76146549e+00  1.82459201e+00  1.89572536e+00  1.92210917e+00
  1.97778765e+00  1.98757931e+00  2.03642952e+00  2.08016146e+00  2.09912412e+00
  2.17310669e+00  2.21211913e+00  2.27046969e+00  2.39092263e+00  2.40368520e+00
  2.42299486e+00  2.57334500e+00  2.73581126e+00  2.78083760e+00  2.87779410e+00
  2.95564085e+00  3.02797842e+00  3.17875127e+00  3.43565006e+00  3.69506293e+00
Alpha MO coefficients                      R   N=       10000
 -7.44448176e-05 -1.27878060e-04  1.16420901e-03 -1.00617906e-04  7.31447536e-05
  2.27062247e-05 -2.21179548e-04 -1.32230499e-03  1.62305030e-04 -6.85969681e-05
  1.10623023e-05  4.15995477e-05 -4.98857803e-05  7.51969908e-05  2.11189558e-04
  3.63600918e-04 -5.58773616e-03 -6.02775240e-06  6.46673505e-06  6.31635446e-05
  2.69020152e-04  2.96576771e-03 -8.83063284e-04  6.53092044e-05 -1.25801690e-04
  1.02573213e-04 -4.66386815e-06  2.51203773e-05 -1.94093098e-04 -2.84319145e-04
  4.74195448e-03  4.80477335e-05 -2.66268042e-04  6.70447557e-06  4.65621468e-03
  3.18797135e-03 -1.07302861e-03 -1.60768661e-04 -1.39133611e-04  6.75839194e-05
  3.94608916e-04 -4.00485847e-04 -2.03079242e-04 -3.69122822e-04 -5.63577922e-03
 -3.27076523e-04  2.22982171e-04  9.80247812e-05 -5.92258171e-03 -1.42009472e-03
  1.23109658e-03  3.98665251e-04  8.08398178e-06  7.81493664e-05  7.08871704e-04
 -4.04800805e-04 -1.00408277e+00 -9.35662937e-03  1.40583287e-02  8.96721452e-04
 -1.45255798e-03 -3.41701111e-05 -3.24745796e-03  1.42318839e-03  5.99950299e-04
  1.78535984e-05  6.47264691e-06  8.93909901e-05  1.48305682e-04 -2.62170137e-04
 -2.52159767e-04 -2.93204856e-04 -2.31304982e-04 -9.75583678e-04  8.10370225e-05
  5.39974653e-05  2.90151941e-04  3.73540491e-05  6.15854318e-05  6.95148713e-06
 -2.27653527e-04 -2.09780299e-04  3.23678042e-06 -2.01557365e-05 -7.75063586e-06
  3.95707309e-04 -9.03187951e-04  6.39783708e-04  1.37838302e-04 -1.28951131e-04
  1.67257079e-04  1.25841005e-03 -2.26463640e-04 -2.09915930e-04  6.50101017e-05
  9.50725553e-05 -6.00798781e-04 -3.54192129e-05 -1.09687041e-04  2.87671442e-05
 -2.83249451e-04 -3.48572375e-04  1.12972515e-03  1.46786304e-04  8.17126914e-05
  7.28183365e-05 -1.28161803e-03  4.71232338e-04 -6.36017234e-04 -7.61455784e-05
 -1.73486075e-05 -3.01964585e-05  5.27476055e-05 -3.68976360e-05 -4.86970830e-04
 -6.99813311e-04  4.88779738e-03 -1.21264454e-04  9.98373164e-06  3.00655059e-06
 -2.41505819e-03 -4.15125126e-03  7.55234389e-04 -3.54175891e-04 -9.81065416e-05
 -1.04936382e-04  9.90171804e-06  1.91550307e-04  4.58998849e-03 -1.00328719e-03
  1.57650214e-04 -5.73258162e-04  1.34908878e-03  8.96142094e-05 -1.95579701e-03
 -6.52011109e-03  7.85163444e-04  1.07630238e-03  2.31922955e-04 -4.06699790e-05
  5.81445011e-04  8.99957829e-04  1.00592326e+00  1.53161144e-02 -1.26114388e-02
  5.62980587e-04 -4.77374351e-04 -1.75543807e-04  5.10628251e-03 -2.39740258e-03
 -1.00926049e-03 -1.63036887e-03 -5.17033700e-04  2.13862009e-05 -2.90786909e-04
 -2.28464348e-05  7.24730080e-04  1.30798417e-03 -4.98068266e-03  2.67886857e-04
 -2.10732672e-04 -3.20918604e-05  3.27430383e-03 -2.83590444e-04 -6.97145746e-04
  6.96255709e-04  4.33606703e-04 -1.08836581e-05 -7.66462954e-04  2.07972978e-04
  5.25455040e-04 -4.36305529e-04 -6.27576042e-04 -2.58312627e-05  1.19312488e-04
 -5.28930528e-05  1.79734647e-04 -2.62114620e-05 -5.46398149e-05  3.08909772e-05
  4.04379371e-06  9.27786336e-04  1.17217694e-05  6.50195847e-05 -2.98249952e-05
 -2.15354057e-03  2.33930683e-03 -1.53834196e-03 -1.58351475e-03  2.73966849e-04
 -1.46811365e-04 -2.72849415e-04  2.98267208e-04  2.92835465e-04 -7.18863780e-05
 -5.62407265e-05  5.48304739e-04  1.72334741e-04  1.30761555e-04 -3.23058698e-05
  2.15981475e-02 -1.13377743e-03  4.79633458e-03  1.32733012e-03  3.39199337e-04
  1.68286481e-04 -2.08495835e-03 -1.80814085e-03  3.77958946e-04  7.61654645e-04
 -5.54628923e-04 -3.32762273e-05 -1.06628751e-03 -3.99305924e-04  1.00620260e+00
  1.62796416e-02 -1.92415854e-02 -1.32033735e-04  2.11579571e-04 -2.32088644e-04
 -1.71684116e-03  3.19920665e-03 -1.76728748e-03 -7.79708092e-04  6.85489085e-04
 -6.36181134e-04  2.21842809e-04 -3.46980316e-05  5.75745293e-03 -4.51934092e-04
  1.11440955e-03 -4.68833472e-04 -6.38163472e-04  1.45414214e-04  7.70815216e-04
  3.88606694e-03  2.72675325e-04  8.02257935e-04  4.46318747e-05  5.87747054e-04
  1.09898264e-03 -9.55817708e-04 -3.58191098e-04 -6.96728322e-04  4.12380705e-03
 -1.06317553e-04 -1.58551724e-04  1.27128596e-04 -6.23518523e-04  2.78225893e-03
 -2.81174034e-04 -4.32555540e-04 -3.13032799e-04  6.03382754e-05  4.07696108e-04
 -3.13176391e-04  9.02834073e-05  1.32751610e-04 -1.22743372e-03  1.63749460e-04
 -3.92696844e-05 -2.70907613e-05  1.29756994e-04 -6.98223687e-04  9.85662030e-05
  8.32138664e-05  2.57617048e-05  2.16691731e-05 -1.47272957e-05  1.78674105e-05
  2.94940452e-04  6.07952268e-04 -2.74027374e-04 -8.24765742e-05 -1.08286173e-05
 -5.39401069e-05  8.98015024e-04  1.45383008e-04 -1.14183939e-04  7.58277924e-05
 -2.54893560e-04 -2.04356353e-04  4.11673516e-05  2.49314355e-04 -1.17895161e-04
  9.51740383e-05  7.96090390e-04  1.79800715e-04 -5.84237930e-05  2.47199778e-06
 -2.91887633e-04  4.10400391e-04 -6.76267992e-05 -3.80837406e-04 -5.73354866e-05
 -2.29293206e-03  1.19116215e-03 -1.16405539e-03  1.52271437e-03 -9.11063752e-04
  1.00619700e+00  1.63679949e-02 -1.51862615e-02  2.75247499e-04 -2.84083031e-05
  4.90581328e-05  2.16782162e-03  6.86047600e-04  7.26600968e-04 -1.04024780e-03
  7.66313736e-04 -1.16771226e-03  6.41449508e-05  3.34726183e-04 -2.28198461e-02
 -1.44128000e-03  8.71477422e-04 -1.34509970e-03 -3.34177113e-04 -2.77066795e-04
  2.87276328e-03  2.53723994e-03 -5.22854111e-05  1.01071471e-03 -5.79712002e-04
  1.83282107e-04 -1.00173911e-03 -7.82750980e-04 -1.10699516e-03 -5.21114948e-04
  3.56652625e-03 -8.44492983e-05  5.75341598e-05 -6.74683825e-05  1.96343642e-03
  2.49126376e-03 -5.08697465e-04 -3.77520644e-04  7.56482306e-05 -2.47506747e-04
 -3.42357291e-04  3.07451877e-05  8.97327224e-06 -2.11341819e-04 -6.44065767e-04
  1.70477566e-06 -1.38010820e-04 -5.24199061e-05 -1.31779364e-03 -1.47150497e-04
  3.05348705e-04  6.03261272e-05  9.82661014e-05 -8.87595275e-05 -4.58846625e-05
  1.08824203e-04  9.35647710e-06  3.16625051e-05  4.05923181e-04  1.17014450e-04
  6.25374360e-05 -4.16789727e-05 -6.67069854e-04 -1.73100742e-04  1.11637030e-04
 -2.73197987e-05 -3.58435400e-05 -2.86286959e-05  8.11738151e-05  5.09069946e-05
  1.61516573e-04  1.28049124e-03 -1.21042964e-04  4.08438703e-04  9.48369352e-05
 -2.30969073e-03  1.90925162e-03  7.36581087e-04  2.02853709e-03 -6.82061659e-04
 -2.14674831e-03  1.50254272e-03  1.21825148e-03 -1.48026608e-03  1.23541383e-03
 -8.05195760e-05 -2.88295566e-05  3.89728355e-05  2.09176354e-05 -1.94773612e-05
  1.09205908e-04  5.85088763e-04  1.10830412e-05 -1.33519119e-04  4.54070564e-05
  7.32901522e-05  2.32533278e-04  1.73106962e-05 -3.16428133e-04  1.00403403e-04
  3.86086923e-04 -4.49955174e-04  2.82697322e-03  7.19845775e-05  1.04507315e-04
 -8.42003577e-05 -2.09642174e-03 -4.30643275e-04 -4.86932909e-05 -2.53320958e-04
  5.22874390e-04 -3.08317831e-04  2.76877434e-04 -4.76381109e-04 -6.15760405e-03
 -7.06874370e-04  3.02042991e-03  2.18876832e-04  7.11363974e-04 -1.78924513e-04
 -2.09476592e-03 -3.86357197e-03 -4.87793822e-05  9.07545869e-04  4.88979692e-04
  3.65310832e-04  5.59466247e-04 -1.31514814e-03  1.00664486e+00  1.67469288e-02
 -2.18569164e-02 -2.24797037e-04 -1.50020440e-04 -1.26420495e-04 -5.13309476e-03
 -2.57108561e-04  1.56193497e-03 -1.08645601e-03 -3.63956589e-04 -1.42157407e-05
  2.76373102e-04 -2.07888907e-04 -5.83815314e-03 -1.59321214e-03  6.72201614e-03
  6.38418157e-04 -1.23630900e-03 -8.65601115e-05  3.13572761e-04  4.18589848e-03
 -3.63551244e-04  8.44834718e-04  1.52973022e-04 -1.99169157e-04  6.95685710e-04
  1.02350891e-03  3.58695972e-05  5.16898487e-05 -9.63122467e-04  2.70333357e-05
 -5.80736389e-05 -5.59063434e-07 -1.12571213e-04 -7.11149523e-04  7.83256450e-05
 -5.80051243e-05 -4.27255657e-05 -8.36880311e-06  9.86923628e-05  8.24124725e-05
  2.73309329e-04  4.36320990e-05 -1.34989011e-04 -1.62199564e-04  2.79905921e-05
  1.07464570e-04  5.09864117e-04  1.40947040e-04 -1.43525390e-04  5.03734209e-05
 -7.03396857e-04  4.97440254e-04  1.94142536e-04 -1.18663823e-04  1.24700699e-04
  1.38073956e-04  1.21212738e-03  2.80692024e-04 -2.42590141e-05 -1.86389760e-05
 -2.37192824e-03  8.38268069e-04 -2.11771091e-03 -5.51472520e-05  2.49187994e-04
 -3.25249201e-04  6.91642828e-04  2.06846146e-04  2.85012727e-04  7.38356778e-05
  1.38521561e-04  8.21953255e-03 -4.22417044e-03 -1.87361497e-03 -4.96183523e-03
 -6.70989444e-04  2.45372641e-03  5.02480986e-03 -1.90228779e-03 -2.62120938e-04
 -5.51155094e-04  7.12276846e-04 -8.19414152e-04  9.80088590e-04 -5.96108792e-05
  1.30066640e-02  1.51272971e-03  1.47111637e-03 -8.57882440e-03  9.66896425e-04
  5.76418497e-03  3.36013502e-03  6.78705324e-05 -1.36488058e-03 -1.57042637e-04
 -4.09426960e-04 -1.32688341e-03  4.47433437e-04 -1.32452663e-03  3.48604764e-02
 -4.25160757e-03  2.10232292e-02 -1.79982228e-02 -4.20945683e-03  5.53572338e-03
  1.50950382e-02 -2.05259543e-03 -2.22961618e-03 -1.07864502e-03  1.55449677e-03
  2.21210272e-03 -8.07455550e-03 -1.27277161e-02  1.54017632e-01  8.51028976e-02
  1.25982733e-01 -6.40809664e-03 -2.73688330e-02  4.92372790e-03  2.38351640e-02
 -1.52957005e-03 -1.10609093e-02 -1.08810834e-02  1.02541311e-03  2.83265073e-02
 -5.15148195e-03 -6.68944198e-03  4.24139634e-01  3.73018443e-01 -7.31125591e-02
  9.04849561e-02  7.49133997e-03 -3.10964608e-02 -1.46505002e-03  6.87194554e-03
 -6.30766059e-03 -3.37617237e-03 -5.06019564e-04  3.95624119e-03 -1.90580717e-03
  1.71161525e-01  4.84175128e-03 -1.87707521e-02 -2.96379409e-02  7.63583958e-03
  5.12624232e-06 -3.85739944e-03  6.15694020e-05  1.19049988e-04 -1.64756624e-04
  7.22270828e-03  4.68185825e-03 -1.13065880e-03 -6.79152636e-04 -9.50214463e-04
  3.42712584e-02  5.28324699e-03  8.32328514e-03  4.41282280e-03 -1.55438936e-03
  5.03483725e-03  2.05041430e-03  4.05867044e-04 -2.29579043e-03  1.70191168e-05
  1.60414961e-03 -1.22918482e-03 -3.00103452e-04 -4.44807700e-04 -8.45579243e-05
  1.46988901e-02 -1.91040031e-01 -1.03351115e-01  8.27711082e-02  2.89285976e-02
  1.37727770e-02  8.66823854e-03 -2.91073238e-03  8.19414622e-03  4.80296652e-03
 -2.26859807e-03 -3.31651746e-03 -7.80940016e-03 -5.99302883e-03  1.94125386e-02
 -2.77709456e-01 -1.78061404e-01 -3.71142293e-02  4.07213792e-02 -1.93729726e-02
 -1.86086956e-02  2.09666800e-02 -1.36355076e-02  1.04037578e-02 -8.65146105e-04
  1.33392736e-03 -1.44116482e-03 -1.10376132e-02  1.82197189e-02 -2.42059437e-01
 -1.42382857e-01 -5.46861352e-02 -1.58790091e-02  1.53080680e-02 -1.88221585e-02
 -1.17823937e-02  9.34780205e-03  8.65807263e-03  1.73224606e-03  2.65444882e-03
  9.54968932e-03 -5.28907798e-03  5.53983203e-03 -1.24990333e-01 -6.74107359e-02
  6.07448714e-02 -8.56133607e-02 -9.69868063e-03  2.31861434e-02 -1.29816805e-02
 -6.52317394e-03  3.40299254e-03 -1.69588462e-03 -4.07533182e-04  1.20848873e-02
  4.11957762e-03  1.11024003e-03  8.77587029e-02  8.08345017e-02  2.69462683e-02
  2.38089555e-03 -7.85479005e-03  1.63893296e-02 -7.85522931e-03 -3.37910544e-03
  8.08291828e-04  3.75645379e-04 -7.24399111e-04 -1.06196003e-03  2.93184620e-03
  3.42397797e-02  3.74265172e-03 -2.01787500e-03 -9.04578790e-03  4.52827890e-04
 -5.95349358e-02 -5.86993986e-04  5.80896091e-03  8.81780663e-03 -2.08741494e-03
 -6.86514471e-02 -4.59831077e-03  8.11627761e-03 -5.47325032e-03  5.80906595e-03
 -3.36975422e-02  9.09933673e-04 -5.61694766e-04 -5.92130644e-03  2.61743555e-04
 -8.15815610e-02 -8.38603182e-03 -1.31424930e-02 -9.29425622e-04  1.95396223e-03
 -9.53139572e-02 -1.22550947e-02 -8.51253548e-03  1.08601411e-02 -6.21183281e-03
  1.63795934e-02 -2.27498460e-01 -1.26816096e-01  5.47746532e-02  8.54827780e-03
  1.37373049e-02  2.95589515e-03  1.29800895e-03  2.83602539e-03  3.10774494e-03
 -2.58068347e-03 -2.25452495e-03 -5.53495650e-03  8.26317442e-06  8.93742566e-03
 -1.35691634e-01 -1.01378981e-01 -1.09236940e-01 -7.68643964e-02 -7.03134012e-03
 -4.79251761e-02 -1.29171268e-02 -6.57895629e-03  2.36738716e-03 -4.17744724e-03
 -2.61685209e-03 -1.44931755e-02  2.30277530e-04 -1.32579554e-02  1.97372799e-01
  1.28743204e-01  9.66700368e-03 -1.20212925e-01 -4.15899741e-03  1.83974920e-02
 -3.43283038e-02  1.15357918e-04 -3.34376792e-03  2.22829381e-04  1.89856603e-03
 -6.80570109e-03 -1.21415967e-02 -1.00126340e-02  2.51523038e-01  1.39620897e-01
 -7.32500848e-02  5.87654023e-02  1.11822113e-02 -2.20866900e-02  9.99116060e-03
  2.45911243e-03 -5.32268287e-03 -1.53741041e-04  1.19956471e-03 -5.31195254e-03
 -1.09213964e-02 -1.95825972e-03 -8.76853982e-02 -7.78341727e-02 -1.08717351e-01
 -4.40335155e-02  2.70007114e-02 -5.00983991e-02 -3.00287865e-03  1.04443346e-02
 -1.57250502e-03 -1.36181464e-03  1.42322330e-03  5.90948783e-03 -5.03208056e-03
 -1.07480125e-01 -2.02077826e-02  4.87418541e-03  1.15703425e-02 -3.55609595e-03
 -9.65614611e-02 -9.95044894e-03  6.05057923e-03  1.27042187e-02 -3.42953221e-03
 -9.50542381e-02 -1.24043056e-02  9.12445666e-03 -6.71555817e-03  7.89345222e-03
  1.09493446e-01  9.87137138e-03  5.36342923e-03  1.39942580e-02 -9.16602224e-04
  8.93205197e-02  1.36528931e-02  1.22187574e-02 -3.07058212e-03 -2.06203621e-03
 -5.85400287e-02 -1.19136548e-02 -6.86794806e-03  3.58955890e-03 -3.56617749e-03
  1.05495073e-02 -1.90489209e-01 -1.22945971e-01 -2.31218875e-02 -3.04206522e-02
 -5.55514131e-04 -2.17671834e-02  4.41817629e-03 -8.44630309e-03 -1.58975724e-03
 -2.91822871e-04  4.91376551e-04  5.88232525e-04  2.33209350e-03 -2.72929631e-03
  8.53784045e-02  4.13856324e-02 -1.48027210e-01 -9.51421960e-02 -8.96831249e-03
 -4.97165095e-02 -4.04062486e-02 -1.36699693e-03 -9.47688259e-04 -4.71719240e-03
 -2.62711159e-03 -9.56684226e-03  1.48564513e-03 -5.97607663e-03  1.58182670e-01
  9.20991301e-02 -1.76073908e-02  1.19916635e-01 -1.43751714e-02  5.09134228e-03
  4.42391557e-02 -5.28728367e-03 -7.67395492e-04 -1.15872495e-03 -4.03882535e-03
 -2.21093978e-03  7.42942398e-03  3.17672688e-03 -2.07600582e-01 -1.25725081e-01
 -4.70528333e-02  1.43117400e-01  2.49230091e-03 -1.94776495e-02  3.46888917e-02
  2.71717708e-04  2.00277600e-03  2.01237074e-03 -2.93357634e-03 -8.68501567e-03
  9.48888136e-03  5.42134413e-04  5.39782617e-02  5.28147326e-02  2.35018988e-01
  1.38180730e-01 -6.54352769e-02  1.02645643e-01  4.21855626e-02 -2.68125630e-02
  1.34089193e-03  2.74456660e-03 -1.89671746e-03 -1.18417611e-02  3.88326865e-03
  1.88671612e-01  3.78886985e-02 -8.16009306e-03 -2.32101676e-02  3.53499357e-03
 -1.23694016e-01 -2.65924191e-02  5.03507733e-03  1.27842648e-02 -4.24081094e-03
 -9.41325586e-02 -6.42227569e-03  6.56199447e-03 -9.41549080e-03  5.95887703e-03
 -1.63335711e-01 -3.07522955e-02 -9.51923020e-03 -1.40212274e-02  1.38836903e-03
  9.37158027e-02  2.00740705e-02  1.05506780e-02  2.67520845e-03 -2.01283569e-03
  5.73116771e-02  1.12275526e-02  5.44880116e-04 -6.45623128e-03  2.32509791e-03
  6.78417265e-03 -1.38285310e-01 -8.42864944e-02 -1.39428277e-01  2.07941623e-02
 -4.27267812e-02 -5.54543534e-02  1.29439381e-02 -1.43403457e-02 -3.13437720e-03
  3.38503819e-03 -6.17809586e-05  1.08059387e-02  2.82082158e-03 -4.26325531e-03
  2.10691007e-01  1.20479465e-01 -1.05280467e-01  5.11747793e-02 -3.97729182e-02
 -4.40813208e-02  7.66415115e-03 -1.19894749e-02  4.17948707e-03 -2.63491445e-03
 -6.32573005e-04 -2.07391204e-03 -3.48298499e-04  1.89437687e-03 -7.79673200e-02
 -2.12965409e-02 -5.49510705e-03  1.85608768e-01 -2.03292429e-02  1.59582778e-03
  4.25969883e-02 -8.92232954e-03 -1.44510903e-03 -1.29664170e-03 -4.80022988e-03
 -3.65920105e-03  6.07934742e-03  2.63758023e-03 -1.29294309e-02 -1.58084808e-02
  1.58778605e-01 -1.77225370e-01 -3.34308291e-02  4.72055741e-02 -6.33561089e-02
 -9.58794917e-03 -2.37822116e-03 -2.40068596e-03  1.25182928e-03  1.01408848e-02
 -1.01584752e-02  1.27767049e-03  3.78639646e-02  5.90043187e-02 -1.99940941e-01
 -1.75949334e-01  5.14352601e-02 -7.76007547e-02 -7.12962855e-02  1.74117900e-02
  9.27328797e-04 -1.34904785e-03  1.26453584e-03  1.07721636e-02 -1.76342272e-03
 -1.89305897e-01 -4.79512697e-02  6.03169428e-03  1.29924555e-02 -5.90867918e-03
 -9.58763882e-02 -2.34649210e-02  2.87959007e-04  1.02584416e-02 -4.01914128e-03
 -1.66582915e-01 -3.59808578e-02  7.26690710e-03 -7.10710690e-03  1.01220636e-02
  3.05657311e-02  3.83547730e-03  3.63504143e-03  3.46933051e-04 -7.54617129e-04
 -4.21896215e-02 -9.72491509e-03 -5.31021643e-03  3.89456132e-03  4.17551951e-04
  1.86190683e-01  3.96395163e-02  9.33614008e-03 -1.30519769e-02  8.23652905e-03
 -7.48620976e-04  3.55952269e-02  4.14201077e-02  6.42572960e-02  1.42458578e-01
 -2.72173216e-02  1.10665255e-02  5.79033824e-02 -1.17943891e-02  2.08697614e-03
 -1.36718099e-03 -2.29993542e-03 -5.32797046e-04 -4.01566096e-03 -3.93479667e-04
 -2.96396054e-02 -1.48220511e-02 -9.11218988e-02  1.50687637e-01 -4.91357453e-02
 -5.42686385e-02  4.56220349e-02 -1.15459336e-02  8.84963697e-04 -1.69058397e-03
 -7.45634272e-04  6.95866593e-03  8.33678293e-03 -4.14510934e-03  2.95344532e-02