Generated by Psi4
        SP                           RHF                       CC-PVDZ
Number of atoms                            I               11
Charge                                     I                0
Multiplicity                               I                1
Number of electrons                        I               38
Number of alpha electrons                  I               19
Number of beta electrons                   I               19
Number of basis functions                  I              100
Number of independent functions            I              100
Atomic numbers                             I   N=          11
           6           6           6           6           8           1
           1           1           1           1           1
Nuclear charges                            R   N=          11
  6.00000000e+00  6.00000000e+00  6.00000000e+00  6.00000000e+00  8.00000000e+00
  1.00000000e+00  1.00000000e+00  1.00000000e+00  1.00000000e+00  1.00000000e+00
  1.00000000e+00
Current cartesian coordinates              R   N=          33
  1.92821123e+00  2.57748122e+00 -1.55253693e-01 -9.27024232e-01  2.43684629e+00
 -1.37412959e-01 -2.11070756e+00  2.03986436e-01  2.10307363e-01 -8.09152036e-01
 -2.29143641e+00  7.35180825e-02  1.45744510e+00 -2.71364618e+00  6.19906020e-02
  2.73458092e+00  1.05616066e+00 -1.29615751e+00  2.71573156e+00  4.28669366e+00
 -1.04272050e+00  2.63348647e+00  2.42513050e+00  1.85847741e+00 -2.17150214e+00
 -3.88478874e+00 -2.27687897e-01 -4.17593051e+00  1.47323168e-01  3.32233910e-01
 -2.02177183e+00  4.18718544e+00 -5.02710530e-01
Integer atomic weights                     I   N=          11
          12          12          12          12          16           1
           1           1           1           1           1
Real atomic weights                        R   N=          11
  1.20000000e+01  1.20000000e+01  1.20000000e+01  1.20000000e+01  1.59949146e+01
  1.00782503e+00  1.00782503e+00  1.00782503e+00  1.00782503e+00  1.00782503e+00
  1.00782503e+00
Number of primitive shells                 I              140
Number of contracted shells                I               48
Pure/Cartesian d shells                    I                0
Pure/Cartesian f shells                    I                0
Highest angular momentum                   I                2
Largest degree of contraction              I                8
Shell types                                I   N=          48
           0           0           0           1           1          -2
           0           0           0           1           1          -2
           0           0           0           1           1          -2
           0           0           0           1           1          -2
           0           0           0           1           1          -2
           0           0           1           0           0           1
           0           0           1           0           0           1
           0           0           1           0           0           1
Number of primitives per shell             I   N=          48
           8           8           1           3           1           1
           8           8           1           3           1           1
           8           8           1           3           1           1
           8           8           1           3           1           1
           8           8           1           3           1           1
           3           1           1           3           1           1
           3           1           1           3           1           1
           3           1           1           3           1           1
Shell to atom map                          I   N=          48
           1           1           1           1           1           1
           2           2           2           2           2           2
           3           3           3           3           3           3
           4           4           4           4           4           4
           5           5           5           5           5           5
           6           6           6           7           7           7
           8           8           8           9           9           9
          10          10          10          11          11          11
Primitive exponents                        R   N=         140
  6.66500000e+03  1.00000000e+03  2.28000000e+02  6.47100000e+01  2.10600000e+01
  7.49500000e+00  2.79700000e+00  5.21500000e-01  6.66500000e+03  1.00000000e+03
  2.28000000e+02  6.47100000e+01  2.10600000e+01  7.49500000e+00  2.79700000e+00
  5.21500000e-01  1.59600000e-01  9.43900000e+00  2.00200000e+00  5.45600000e-01
  1.51700000e-01  5.50000000e-01  6.66500000e+03  1.00000000e+03  2.28000000e+02
  6.47100000e+01  2.10600000e+01  7.49500000e+00  2.79700000e+00  5.21500000e-01
  6.66500000e+03  1.00000000e+03  2.28000000e+02  6.47100000e+01  2.10600000e+01
  7.49500000e+00  2.79700000e+00  5.21500000e-01  1.59600000e-01  9.43900000e+00
  2.00200000e+00  5.45600000e-01  1.51700000e-01  5.50000000e-01  6.66500000e+03
  1.00000000e+03  2.28000000e+02  6.47100000e+01  2.10600000e+01  7.49500000e+00
  2.79700000e+00  5.21500000e-01  6.66500000e+03  1.00000000e+03  2.28000000e+02
  6.47100000e+01  2.10600000e+01  7.49500000e+00  2.79700000e+00  5.21500000e-01
  1.59600000e-01  9.43900000e+00  2.00200000e+00  5.45600000e-01  1.51700000e-01
  5.50000000e-01  6.66500000e+03  1.00000000e+03  2.28000000e+02  6.47100000e+01
  2.10600000e+01  7.49500000e+00  2.79700000e+00  5.21500000e-01  6.66500000e+03
  1.00000000e+03  2.28000000e+02  6.47100000e+01  2.10600000e+01  7.49500000e+00
  2.79700000e+00  5.21500000e-01  1.59600000e-01  9.43900000e+00  2.00200000e+00
  5.45600000e-01  1.51700000e-01  5.50000000e-01  1.17200000e+04  1.75900000e+03
  4.00800000e+02  1.13700000e+02  3.70300000e+01  1.32700000e+01  5.02500000e+00
  1.01300000e+00  1.17200000e+04  1.75900000e+03  4.00800000e+02  1.13700000e+02
  3.70300000e+01  1.32700000e+01  5.02500000e+00  1.01300000e+00  3.02300000e-01
  1.77000000e+01  3.85400000e+00  1.04600000e+00  2.75300000e-01  1.18500000e+00
  1.30100000e+01  1.96200000e+00  4.44600000e-01  1.22000000e-01  7.27000000e-01
  1.30100000e+01  1.96200000e+00  4.44600000e-01  1.22000000e-01  7.27000000e-01
  1.30100000e+01  1.96200000e+00  4.44600000e-01  1.22000000e-01  7.27000000e-01
  1.30100000e+01  1.96200000e+00  4.44600000e-01  1.22000000e-01  7.27000000e-01
  1.30100000e+01  1.96200000e+00  4.44600000e-01  1.22000000e-01  7.27000000e-01
  1.30100000e+01  1.96200000e+00  4.44600000e-01  1.22000000e-01  7.27000000e-01
Contraction coefficients                   R   N=         140
  6.91583963e-04  5.32579615e-03  2.70607210e-02  1.01656846e-01  2.74574824e-01
  4.48294319e-01  2.84902611e-01  1.51948592e-02 -2.93269653e-04 -2.31803547e-03
 -1.14997860e-02 -4.68267270e-02 -1.28466169e-01 -3.01266272e-01 -2.55630702e-01
  1.09379336e+00  1.00000000e+00  5.69792516e-02  3.13207212e-01  7.60376742e-01
  1.00000000e+00  1.00000000e+00  6.91583963e-04  5.32579615e-03  2.70607210e-02
  1.01656846e-01  2.74574824e-01  4.48294319e-01  2.84902611e-01  1.51948592e-02
 -2.93269653e-04 -2.31803547e-03 -1.14997860e-02 -4.68267270e-02 -1.28466169e-01
 -3.01266272e-01 -2.55630702e-01  1.09379336e+00  1.00000000e+00  5.69792516e-02
  3.13207212e-01  7.60376742e-01  1.00000000e+00  1.00000000e+00  6.91583963e-04
  5.32579615e-03  2.70607210e-02  1.01656846e-01  2.74574824e-01  4.48294319e-01
  2.84902611e-01  1.51948592e-02 -2.93269653e-04 -2.31803547e-03 -1.14997860e-02
 -4.68267270e-02 -1.28466169e-01 -3.01266272e-01 -2.55630702e-01  1.09379336e+00
  1.00000000e+00  5.69792516e-02  3.13207212e-01  7.60376742e-01  1.00000000e+00
  1.00000000e+00  6.91583963e-04  5.32579615e-03  2.70607210e-02  1.01656846e-01
  2.74574824e-01  4.48294319e-01  2.84902611e-01  1.51948592e-02 -2.93269653e-04
 -2.31803547e-03 -1.14997860e-02 -4.68267270e-02 -1.28466169e-01 -3.01266272e-01
 -2.55630702e-01  1.09379336e+00  1.00000000e+00  5.69792516e-02  3.13207212e-01
  7.60376742e-01  1.00000000e+00  1.00000000e+00  7.09645947e-04  5.46727229e-03
  2.78231186e-02  1.04747740e-01  2.82920846e-01  4.48495239e-01  2.70816885e-01
  1.54502916e-02 -3.14443412e-04 -2.48213768e-03 -1.23163554e-02 -5.05389173e-02
 -1.39384903e-01 -3.25077495e-01 -2.29848308e-01  1.09537935e+00  1.00000000e+00
  6.26791663e-02  3.33536566e-01  7.41239642e-01  1.00000000e+00  1.00000000e+00
  3.34987264e-02  2.34800801e-01  8.13682958e-01  1.00000000e+00  1.00000000e+00
  3.34987264e-02  2.34800801e-01  8.13682958e-01  1.00000000e+00  1.00000000e+00
  3.34987264e-02  2.34800801e-01  8.13682958e-01  1.00000000e+00  1.00000000e+00
  3.34987264e-02  2.34800801e-01  8.13682958e-01  1.00000000e+00  1.00000000e+00
  3.34987264e-02  2.34800801e-01  8.13682958e-01  1.00000000e+00  1.00000000e+00
  3.34987264e-02  2.34800801e-01  8.13682958e-01  1.00000000e+00  1.00000000e+00
Coordinates of each shell                  R   N=         144
  1.92821123e+00  2.57748122e+00 -1.55253693e-01  1.92821123e+00  2.57748122e+00
 -1.55253693e-01  1.92821123e+00  2.57748122e+00 -1.55253693e-01  1.92821123e+00
  2.57748122e+00 -1.55253693e-01  1.92821123e+00  2.57748122e+00 -1.55253693e-01
  1.92821123e+00  2.57748122e+00 -1.55253693e-01 -9.27024232e-01  2.43684629e+00
 -1.37412959e-01 -9.27024232e-01  2.43684629e+00 -1.37412959e-01 -9.27024232e-01
  2.43684629e+00 -1.37412959e-01 -9.27024232e-01  2.43684629e+00 -1.37412959e-01
 -9.27024232e-01  2.43684629e+00 -1.37412959e-01 -9.27024232e-01  2.43684629e+00
 -1.37412959e-01 -2.11070756e+00  2.03986436e-01  2.10307363e-01 -2.11070756e+00
  2.03986436e-01  2.10307363e-01 -2.11070756e+00  2.03986436e-01  2.10307363e-01
 -2.11070756e+00  2.03986436e-01  2.10307363e-01 -2.11070756e+00  2.03986436e-01
  2.10307363e-01 -2.11070756e+00  2.03986436e-01  2.10307363e-01 -8.09152036e-01
 -2.29143641e+00  7.35180825e-02 -8.09152036e-01 -2.29143641e+00  7.35180825e-02
 -8.09152036e-01 -2.29143641e+00  7.35180825e-02 -8.09152036e-01 -2.29143641e+00
  7.35180825e-02 -8.09152036e-01 -2.29143641e+00  7.35180825e-02 -8.09152036e-01
 -2.29143641e+00  7.35180825e-02  1.45744510e+00 -2.71364618e+00  6.19906020e-02
  1.45744510e+00 -2.71364618e+00  6.19906020e-02  1.45744510e+00 -2.71364618e+00
  6.19906020e-02  1.45744510e+00 -2.71364618e+00  6.19906020e-02  1.45744510e+00
 -2.71364618e+00  6.19906020e-02  1.45744510e+00 -2.71364618e+00  6.19906020e-02
  2.73458092e+00  1.05616066e+00 -1.29615751e+00  2.73458092e+00  1.05616066e+00
 -1.29615751e+00  2.73458092e+00  1.05616066e+00 -1.29615751e+00  2.71573156e+00
  4.28669366e+00 -1.04272050e+00  2.71573156e+00  4.28669366e+00 -1.04272050e+00
  2.71573156e+00  4.28669366e+00 -1.04272050e+00  2.63348647e+00  2.42513050e+00
  1.85847741e+00  2.63348647e+00  2.42513050e+00  1.85847741e+00  2.63348647e+00
  2.42513050e+00  1.85847741e+00 -2.17150214e+00 -3.88478874e+00 -2.27687897e-01
 -2.17150214e+00 -3.88478874e+00 -2.27687897e-01 -2.17150214e+00 -3.88478874e+00
 -2.27687897e-01 -4.17593051e+00  1.47323168e-01  3.32233910e-01 -4.17593051e+00
  1.47323168e-01  3.32233910e-01 -4.17593051e+00  1.47323168e-01  3.32233910e-01
 -2.02177183e+00  4.18718544e+00 -5.02710530e-01 -2.02177183e+00  4.18718544e+00
 -5.02710530e-01 -2.02177183e+00  4.18718544e+00 -5.02710530e-01
Total Energy                               R     -2.312343710004716e+02
Alpha Orbital Energies                     R   N=         100
 -1.91371711e+01 -1.02759713e+01 -1.02255639e+01 -1.01999609e+01 -1.01904535e+01
 -1.04041513e+00 -8.09674417e-01 -7.11331864e-01 -6.26925166e-01 -5.33036846e-01
 -4.96973545e-01 -4.37848132e-01 -4.31875771e-01 -4.26930512e-01 -3.84457424e-01
 -3.72649942e-01 -3.70433624e-01 -2.75820482e-01 -2.49137908e-01 -6.54230052e-02
  4.52662141e-02  6.48678582e-02  8.84211995e-02  1.02811409e-01  1.28085778e-01
  1.42074291e-01  1.58291808e-01  2.10123157e-01  2.58401616e-01  3.20113652e-01
  3.37866362e-01  4.32385808e-01  4.41393954e-01  4.49282715e-01  4.74795700e-01
  4.86365932e-01  5.05032561e-01  5.26527599e-01  5.66567142e-01  5.91584925e-01
  6.11808737e-01  6.23704674e-01  6.37439756e-01  6.43875142e-01  6.71447921e-01
  6.82371923e-01  7.05575709e-01  7.68304286e-01  7.95908500e-01  8.46659583e-01
  8.99396097e-01  9.13054992e-01  9.58972445e-01  1.02262217e+00  1.02785633e+00
  1.06143014e+00  1.07901370e+00  1.13524203e+00  1.18256118e+00  1.19344926e+00
  1.27222799e+00  1.34695990e+00  1.39665308e+00  1.46894104e+00  1.48082339e+00
  1.50542144e+00  1.54444694e+00  1.55034808e+00  1.59886241e+00  1.62707189e+00
  1.64877422e+00  1.66370858e+00  1.67623321e+00  1.70957265e+00  1.71817287e+00
  1.74543130e+00  1.77778631e+00  1.79505065e+00  1.84076757e+00  1.92504046e+00
  1.95868427e+00  1.98445022e+00  2.01980256e+00  2.03689285e+00  2.07927778e+00
  2.24033208e+00  2.30105158e+00  2.33916741e+00  2.36818526e+00  2.39342174e+00
  2.40335341e+00  2.46685860e+00  2.54193786e+00  2.64343166e+00  2.69618121e+00
  2.78036256e+00  2.97009895e+00  3.06650123e+00  3.40683522e+00  3.46241085e+00
Alpha MO coefficients                      R   N=       10000
 -7.99357413e-05 -1.65310622e-04  2.93516239e-05  6.23944808e-05  5.71670016e-05
  1.02994457e-05 -3.51910460e-06 -1.70782365e-04  1.44435370e-04  6.75042473e-05
  4.23743559e-05  3.74266203e-05  5.79952870e-05 -8.90028395e-05 -1.97539855e-04
 -3.50200161e-04  5.20025579e-03 -1.99257150e-05 -1.73406501e-05 -6.61575191e-05
 -7.36448936e-04 -2.14117402e-03  5.35944111e-04 -3.02818770e-05  4.74105217e-05
 -2.78304033e-05 -5.89548391e-05 -7.16270235e-05  2.17253128e-04  3.42804219e-04
 -3.47113985e-03  6.52218093e-05  2.38203828e-04 -8.29455969e-06 -4.32081449e-03
 -3.58952696e-03  3.37120369e-04  1.34414401e-04  6.52751548e-05  8.72071934e-05
 -4.39428380e-04  4.68089887e-04  4.69605979e-04  6.18715197e-04  5.18204654e-03
 -9.82905374e-05 -1.80433848e-04 -4.05680615e-05  6.61427254e-03  3.24959269e-04
 -1.73628093e-05  2.21907986e-05  4.23454554e-05  9.96343769e-05 -1.12299897e-03
  5.17871165e-04  1.00417043e+00  9.47187435e-03 -1.51003969e-02 -1.84332464e-03
  3.68905391e-04  1.61001488e-07  3.51581743e-03 -8.45321750e-04 -1.28364004e-05
 -1.83843237e-05 -2.16576344e-06 -5.36425608e-06  6.58121887e-05  5.92141913e-06
 -1.15922543e-04 -1.73126131e-04  4.76643961e-05  6.12964077e-07  1.82093789e-05
  1.08028672e-04  3.43969936e-04 -6.96514901e-05 -5.63614387e-05  4.53499332e-05
 -9.51953389e-05 -2.40342390e-04  6.19541893e-05  6.38181764e-05  6.01698489e-05
 -1.40043241e-04  8.27890175e-04 -7.55394693e-04  1.24211279e-04  1.86737455e-05
 -2.76823925e-04 -1.32012248e-03  1.86011535e-04  2.55908435e-04 -7.88320792e-06
 -1.73009783e-04  2.68490229e-04  3.33624541e-05  8.83484551e-05 -3.33327174e-05
 -3.82156519e-04 -5.13501834e-04  9.89833830e-04  2.71800831e-04  7.60541432e-05
 -2.42394619e-06 -7.32127367e-04 -6.72262053e-05  8.89405496e-07 -3.80671100e-05
 -7.64967769e-05  5.11917322e-06 -1.14206939e-04  1.34049634e-05 -4.06357200e-04
 -5.81514034e-04  5.87535188e-03 -2.78591568e-04 -3.37389568e-05  6.03097406e-05
 -2.02400074e-03 -3.48872111e-03  6.54607408e-04 -3.48797758e-04 -2.12151523e-04
 -9.26973208e-05  2.83834500e-04  3.84151916e-04  1.42813668e-03 -2.24146462e-04
 -1.30595836e-03 -3.30330901e-04  6.96472499e-04  6.01120239e-05 -2.16896541e-03
 -5.87277262e-03  3.76100506e-04  9.88308540e-04  1.29642184e-05 -4.14003229e-05
  1.12850184e-03  8.97708832e-04  1.00590699e+00  1.51915650e-02 -1.08205493e-02
  7.44262215e-04 -5.09425751e-04 -1.69068689e-04  5.41753250e-03 -2.22545890e-03
 -7.11165921e-05 -1.58417737e-03  1.67583892e-04  2.50106043e-04  9.46361525e-04
 -3.66712329e-05  3.59205850e-04  8.96490898e-04 -5.94299128e-03  7.55212682e-04
 -2.17652078e-04 -1.53845481e-05  3.38831472e-03 -2.34582012e-04 -2.10641793e-05
  5.63037295e-04  2.28514584e-05 -3.32856314e-05 -7.23335551e-04  2.67521714e-04
 -1.23573952e-04 -6.51583031e-05  2.74481044e-05  1.11429492e-05 -3.29861910e-06
 -5.99658984e-05  3.88426268e-04 -3.99012728e-05 -1.29706080e-05  7.21175123e-06
 -7.06960038e-05  3.23099034e-05  1.04316289e-04  5.20588870e-05 -5.31429737e-05
 -1.62235026e-03  2.42249019e-03 -1.40756752e-03 -1.41900091e-03 -2.79493171e-04
 -5.69132753e-04 -4.58832725e-04  5.42461634e-07  3.01074114e-04 -2.72197853e-05
  2.01489899e-05  5.61467768e-04  2.30325103e-04  7.80095499e-05 -2.89924526e-05
  2.70759128e-03 -3.11046199e-04  4.51179347e-03  5.89520491e-04  1.21669147e-05
  5.41200284e-05 -2.59618647e-03 -6.62386692e-04 -3.50729938e-04  8.06292614e-04
  3.89234911e-05  5.66635923e-05 -9.03984949e-04 -3.91363482e-06  1.00629401e+00
  1.60492613e-02 -2.05059842e-02 -4.73766480e-04  1.08534254e-04 -6.91334686e-05
 -2.43672343e-03  4.16793420e-03 -5.96220826e-04 -9.42987089e-04  1.85189096e-04
 -4.79486432e-04 -7.47774775e-04 -4.76029421e-04  1.30465925e-02 -1.24249834e-03
  5.20592928e-03 -7.00865975e-04 -1.10101270e-03  1.68264845e-04  2.72016812e-03
  2.81799080e-03 -3.21646258e-04  8.54789483e-04  1.27920750e-04  3.13698137e-04
  4.63165738e-04 -9.90907913e-04 -2.59031624e-04 -5.48956636e-04  1.04111529e-03
  1.21695756e-05 -2.23660630e-04  3.75123079e-05 -6.12018449e-04  9.37961057e-04
 -7.42057580e-05 -2.91353787e-04 -1.09238442e-04 -1.40892616e-05  1.53507958e-04
  5.04444224e-05 -3.08073455e-05 -6.36964794e-05 -1.60308604e-05  1.12739051e-04
  2.74536788e-05  9.48200318e-06 -1.55375954e-04 -3.86186907e-04  4.92369633e-05
  1.69568655e-05 -2.48151730e-05  4.21008126e-06  1.53308356e-05  3.54758986e-05
 -4.81412172e-04  5.70240482e-04 -8.21996065e-05 -2.33429389e-05  8.89346030e-05
 -2.79672643e-04  1.49058596e-04  1.72669440e-04  2.00531475e-05  9.86336289e-05
 -4.88900564e-04  1.12294725e-03 -1.50094502e-04 -1.88530690e-06  4.25687823e-05
 -1.25291771e-04  2.54699829e-04  3.69711234e-05 -7.99871415e-05 -1.93213157e-05
  1.73729471e-04  9.52155041e-04  1.77870470e-04 -2.69981786e-04 -2.39268004e-06
 -2.43379247e-03  9.66127258e-04 -1.23385529e-03  1.78641292e-03 -3.97805536e-04
  1.12267339e-03  5.18588975e-04 -2.96563282e-04 -1.28246980e-04 -1.40642891e-04
  9.63623915e-05  9.98434766e-04  1.88431262e-04 -4.40080078e-04  2.85804108e-04
 -6.77244243e-07  8.95608365e-05 -2.24089806e-05  2.90001989e-05  1.44953422e-02
  1.69645284e-03 -5.95973191e-03 -5.61984985e-04 -1.20697008e-03  1.91922751e-04
  6.95749246e-04  3.55070351e-03 -1.43965297e-04 -8.93727258e-04 -1.98915883e-04
 -3.89682381e-04 -6.62945025e-04  8.35676448e-04 -1.00645890e+00 -1.64869451e-02
  2.09211867e-02  3.47891101e-04 -2.89279021e-04  2.00074739e-04  5.09281647e-03
  3.03325062e-04 -1.09080709e-03  1.06311479e-03  1.65491408e-04  1.15693269e-04
 -4.59428749e-04 -5.08392043e-04  1.69798449e-03  7.08344817e-04 -5.59109732e-03
 -2.33388766e-04  6.41270888e-04  6.47347767e-05 -1.70515812e-04 -3.37506690e-03
  4.38926587e-05 -6.68274623e-04 -1.94796996e-04  1.08619292e-04 -5.16017038e-04
 -1.23674133e-03 -5.00195443e-05 -8.86301908e-05  7.03539364e-04 -3.59024012e-06
  5.63283679e-05  4.05805854e-05  1.32668824e-04  6.99607589e-04 -4.57680271e-05
  1.21338560e-04 -3.70926934e-05 -4.72268017e-06 -9.86700731e-05 -2.34511894e-04
  5.50106852e-05 -3.62250226e-04 -2.09839817e-05 -1.31685074e-04  2.82390855e-05
 -4.97746935e-05 -4.28570508e-04 -4.78719581e-05  4.37187309e-05  4.20541558e-05
  1.32322767e-04 -1.76573739e-04 -4.82624354e-05 -7.21332976e-05  1.31057280e-04
  3.50606536e-04 -9.21459535e-04 -4.09120832e-05  2.01754299e-04 -2.73855479e-05
  2.46455767e-03 -8.87205384e-04  2.17755258e-03 -6.35691223e-05 -4.16468960e-05
 -1.33589440e-04 -7.68595628e-04 -3.15307932e-04  3.62819607e-05 -7.68701271e-05
  1.00688659e+00  1.72046859e-02 -1.86084864e-02  4.68880302e-04  4.83625840e-06
 -1.63972805e-04  2.72258940e-03  3.07142607e-04 -1.83204423e-04  4.19480010e-04
 -2.44423654e-04 -5.94558035e-05 -4.60748065e-04  1.50357295e-04 -2.80685124e-03
 -1.56734704e-04  1.12374886e-03 -4.30207426e-04  4.29081238e-05 -1.97669333e-05
  3.69082645e-03  2.61094796e-03 -4.48760118e-04  6.00835513e-04  6.44717869e-06
 -4.57115676e-05 -1.27080245e-03 -2.72452049e-04  3.68419986e-04 -7.67905313e-04
  3.94337239e-03 -2.75813782e-04 -3.01563180e-06 -6.05325412e-06  1.42342301e-03
  2.58771586e-03 -3.82249277e-04 -3.79562994e-04  2.38338432e-05 -1.18890959e-04
 -2.71389823e-04 -1.88040240e-04 -1.36880932e-04 -5.17374866e-04  3.32518231e-04
 -8.53801432e-05 -2.72623303e-04 -4.32718145e-05 -1.01564336e-04  5.25048775e-04
  1.49724937e-04 -7.27185747e-05 -3.30675030e-05 -3.93690861e-05  4.18615755e-05
  2.59739826e-05 -1.08374353e-04 -2.11790630e-04  3.02334982e-04  3.29297162e-05
 -1.21555938e-04 -2.36857340e-05 -2.08187175e-04  2.74219087e-04  6.94440835e-05
 -5.69516882e-05 -1.24521894e-06  8.39275565e-06 -6.10453285e-06 -2.97282622e-06
 -1.16966850e-03  2.09050596e-03  5.66505313e-04 -1.48170454e-03 -9.98099759e-04
 -1.43089719e-03  1.75100001e-03  6.24843326e-04  1.72252706e-03 -8.28624689e-04
 -9.45427007e-04  2.17557197e-03  4.73160041e-04 -1.95012910e-04  1.73697564e-03
  4.14380472e-05  4.39647895e-04  1.32342058e-05  6.44959616e-05 -1.52781892e-05
 -2.30888752e-05  5.79438532e-04  1.99313090e-05 -1.83909608e-04  3.01617819e-05
 -4.46811509e-04 -7.17352966e-05 -3.97266400e-04 -1.56001868e-04  2.47610756e-05
 -4.18344448e-04  8.10953276e-03  4.76211780e-03 -3.22021624e-03 -3.94000829e-03
 -2.20064770e-04 -2.23624063e-03 -1.05321513e-03  8.63634744e-04 -7.09588744e-04
 -9.09304274e-05 -1.55134383e-04  5.37425602e-05  7.56044223e-04  6.04706324e-04
  1.59301173e-02 -1.21834248e-02  6.09214572e-04 -1.00671020e-02  1.12856473e-03
 -1.71967879e-03  9.77549141e-03 -1.53674052e-03 -4.14492028e-04 -2.15117029e-04
 -4.61206538e-04 -1.34131584e-03  6.75641459e-04 -3.64383676e-03  3.33517549e-02
  3.01995281e-02  1.97918011e-02 -1.76909313e-02 -1.63268322e-03  1.93601348e-02
  3.13216151e-03 -2.28166030e-03 -3.62348627e-03 -6.83998692e-04  1.26370504e-04
  3.66817037e-04 -8.86641589e-03 -1.45064907e-02  2.23836769e-01  9.55097498e-02
  1.84841203e-01 -2.69215932e-02 -9.49661472e-04  1.21210264e-02 -1.90166332e-03
  7.65552224e-04 -1.40278756e-02 -1.16841842e-03 -1.47794780e-03  3.11664901e-02
 -1.41394262e-02 -9.10851451e-03  4.03069743e-01  3.61265556e-01 -1.55197777e-01
  3.19580329e-02  2.27904496e-04 -3.17415796e-02  7.33720576e-03 -6.73842817e-04
 -5.39204301e-03 -3.11049757e-04 -7.41896705e-04  1.20157360e-02 -5.19554771e-03
  7.33684212e-03  3.99643038e-03 -6.87008049e-04 -4.42108447e-04  7.18108053e-04
  1.11068523e-03 -7.49686370e-04  1.37042617e-05 -3.63424980e-05 -8.39459519e-05
  2.56198864e-03  6.11802572e-04 -3.12431805e-04 -3.52616392e-04 -5.34469057e-04
  3.97558919e-02 -3.23257530e-03  1.00954802e-02  5.86186610e-03  1.16051835e-03
  6.62482274e-03  6.07367190e-03  8.46512568e-04 -1.95408683e-03 -6.93860716e-05
  1.56640673e-03 -3.20725973e-03 -1.84634781e-04 -7.72328512e-04  1.45369396e-04
  1.05884205e-02 -1.73161460e-01 -7.71703115e-02  6.56437222e-02  1.21399935e-02
 -3.32874961e-04  4.56652591e-03 -6.75215810e-03  7.14988245e-04  6.08269802e-03
  1.85170718e-04 -7.05375285e-05 -9.85217914e-03 -2.58796625e-03  1.95211424e-02
 -2.88001818e-01 -2.04094252e-01 -2.43773742e-03  7.86302108e-02 -1.01331913e-02
 -2.52386449e-02  2.65628146e-02 -4.20184190e-03  9.94874038e-03  1.48157147e-03
  2.07193589e-03 -1.41040032e-03 -9.21356329e-03  1.73429021e-02 -2.61106762e-01
 -1.41170937e-01 -5.85605609e-02 -6.00708172e-02  1.78208061e-02 -4.26135039e-03
 -1.65870217e-02  4.00751978e-03  6.92407120e-03  1.77196448e-03  2.32921575e-03
  9.21828980e-03 -8.16476873e-03  2.63859954e-03 -6.72637063e-02 -5.04888129e-02
  7.33872836e-02 -8.01522318e-02 -7.35240372e-04  2.27782576e-02 -2.23460151e-02
 -1.58428271e-03  2.86805403e-03  2.20933424e-04 -4.33387848e-04  1.30229052e-02
  3.69160378e-03 -3.23747144e-04  7.57351723e-02  7.33021178e-02 -1.15659354e-02
 -1.61255907e-02  3.79206674e-04  1.41117973e-03 -7.14475206e-03  5.49737254e-04
  1.66792182e-04 -4.11228316e-05 -4.15673470e-05  1.67747422e-03  1.60651050e-03
 -6.58024041e-02 -2.01557574e-03  4.44127660e-03 -7.22200863e-03 -5.08514925e-03
 -5.65998073e-02 -2.31031907e-03  4.80199618e-03  7.33458334e-03 -3.26242959e-03
 -6.12390924e-02 -1.93794581e-03  3.92536255e-03 -5.64581868e-05  8.62412337e-03
 -2.09327427e-02 -1.23954094e-04 -1.82981969e-04 -3.72297256e-03 -2.82552807e-04
 -8.57055119e-02 -3.50436248e-03 -1.44141044e-02 -2.24368516e-03  1.19816947e-03
 -9.35097132e-02 -1.19646385e-02 -6.43049772e-03  1.32095018e-02 -2.57410706e-03
  1.41860209e-02 -2.87415160e-01 -1.33034008e-01  1.61989729e-02 -9.81897625e-03
  6.54898067e-03 -1.17830295e-02 -4.00442953e-03 -4.00492536e-03  1.98974926e-03
 -2.28574690e-04 -1.09177944e-04 -2.82293410e-03  2.25115218e-03  5.66068560e-03
 -5.84893819e-02 -8.71240645e-02 -1.32195670e-01 -8.51484648e-02  1.12857443e-02
 -8.49877223e-02 -5.12484353e-03  3.01861579e-03  3.80836960e-03 -1.06597409e-04
 -1.22253705e-03 -1.77512319e-02  4.45264780e-03 -1.30944399e-02  2.19532706e-01
  1.65904259e-01 -1.01516974e-02 -6.40817230e-02 -5.69677358e-03  3.41168183e-02
 -3.77927305e-02 -2.43409769e-03 -4.22056747e-03 -8.20425275e-05  8.33557433e-04
 -9.20242745e-03 -6.86155152e-03 -2.86047522e-03  1.60183459e-01  7.17112554e-02
 -1.10874286e-01  6.83553973e-02  1.88875239e-03 -3.82038794e-02  7.41945457e-03
 -6.79433527e-04 -1.56253295e-03 -2.17623468e-04  4.21896160e-04 -8.58454234e-03
 -6.37194767e-03 -3.13395135e-04 -8.13531524e-02 -8.19762281e-02 -2.33185869e-02
  4.93973284e-03  1.52528407e-03 -2.19727585e-02  1.33492017e-03  5.85772453e-04
 -9.63261212e-04  3.65115224e-05  3.70164098e-04  1.35565153e-03 -1.84627288e-03
 -1.28403829e-01 -1.87000063e-02  6.45595999e-03 -1.32704544e-02 -8.51257575e-03
 -1.36197309e-01 -1.96627637e-02  6.62075853e-03  1.50112592e-02 -7.10519999e-03
 -1.21144488e-01 -1.37342653e-02  5.18035290e-03 -1.84832527e-03  1.59768029e-02
  7.92900657e-02  4.02096163e-03  4.00129320e-03  9.26198721e-03  1.51662306e-03
  1.15250476e-01  2.27994073e-02  1.43757714e-02 -9.59956356e-04 -8.86226616e-04
 -3.36936863e-02 -1.59803071e-02 -4.17459690e-03  1.50404841e-03 -6.56059542e-04
  5.47119368e-03 -1.82498102e-01 -1.02235690e-01 -7.55783717e-02 -2.97526957e-03
  7.05642551e-03 -3.72494738e-02 -4.88911795e-03  4.23193797e-03 -4.61575984e-03
 -1.08002435e-04 -2.96842053e-04  7.33467433e-03  5.30382325e-04 -4.87417167e-03
  2.11286888e-01  1.08257588e-01 -1.37500738e-01 -1.71594560e-02  6.50075886e-03
 -4.62731316e-02  2.08025354e-04  1.09056342e-03  2.70990082e-03 -1.24845976e-03
 -1.17119820e-03 -5.92782354e-03  4.73424268e-03 -1.54441215e-03  6.95798738e-03
  1.23546376e-02 -1.69071000e-04  2.44100669e-01 -1.20204602e-02  2.37691103e-03
  7.18798479e-02 -3.40549907e-03  1.11699037e-03 -3.88844236e-04 -4.49948532e-03
  1.15035031e-03  1.11134487e-02  2.27194949e-03 -2.31876301e-01 -1.54433589e-01
  1.54724951e-01 -2.34535265e-02  3.62540635e-03  4.82233935e-02 -1.90511713e-02
 -3.70224564e-04 -1.17262713e-03  6.51988084e-04 -7.36834103e-04  5.54689770e-03
  7.36044171e-04  1.09902731e-03  1.22500280e-01  1.42721955e-01  5.24015905e-02
 -1.12081301e-02  2.36081553e-03  4.00836997e-02 -6.93002138e-03  1.57707241e-03
  2.56833294e-03 -1.49322084e-04 -7.58236302e-05 -2.29076442e-03  5.31891939e-04
 -1.07243563e-01 -9.82118180e-03  3.27451391e-03 -1.04848728e-02 -5.89389243e-03
 -1.10799545e-01 -1.86911387e-02  2.74886674e-03  1.08666783e-02 -5.17366195e-03
 -9.93611432e-02 -1.79280691e-02  2.69336774e-03 -9.17325406e-04  1.11829737e-02
 -1.59059062e-01 -2.89089928e-02 -7.90987897e-03 -1.38196291e-02 -2.42912928e-03
 -1.04215289e-03 -3.30010112e-04 -3.05648792e-05  4.99328596e-03 -2.20921144e-04
  1.42633747e-01  2.40215122e-02  6.41788615e-03 -1.45696822e-02  3.14873536e-03
  1.55721217e-03 -4.38405427e-02 -3.77796706e-02 -1.11440385e-01  8.15097715e-02
 -1.32504417e-03 -2.94343697e-02  3.74499021e-02 -8.30011756e-03 -4.80673972e-03
  1.75402898e-03 -1.84042369e-03  9.12720980e-03 -6.87978648e-03 -2.93783256e-03
  1.51146037e-01  1.22237367e-01  4.47224015e-03  2.19888750e-01 -4.02727351e-02
  2.88815630e-02  5.97608420e-02 -8.40142884e-03  3.53545553e-03  2.44263144e-03
  1.21560896e-03  1.16752595e-03 -6.96350539e-03  3.38544625e-03 -1.59064293e-01
 -1.25501054e-01 -1.70968051e-03 -2.20569926e-03 -1.03391403e-02 -2.39764936e-02
  2.73197334e-02 -8.50156621e-03 -3.37847072e-03  2.21272236e-04 -8.54332693e-04
 -1.33940056e-02  8.82602386e-04  1.08465990e-03  1.61367801e-01  1.25590038e-01
 -5.60109090e-02 -2.28082097e-01 -2.83205405e-02 -4.51054985e-02 -4.84529452e-02
 -4.23628494e-03  5.06459008e-03  9.39937387e-04  7.51971042e-06 -9.77582359e-04
  1.60617119e-03  5.62042802e-04 -9.09188280e-02 -1.30335157e-01 -1.48775382e-01
 -1.04137166e-01 -9.78618111e-03 -8.64584262e-02 -5.71981928e-02 -5.68655708e-03
 -3.77814665e-03  1.12563071e-03  2.58484815e-04  9.20884133e-03  6.26838897e-03
 -1.02818255e-01 -3.59375194e-02  1.30608545e-03 -4.32607249e-03 -5.64744061e-03
 -9.57758000e-03 -8.69990047e-03 -2.57075993e-03  2.78542818e-03 -3.93185666e-05
 -5.42549286e-02 -1.56899091e-02 -8.98838026e-04  2.02418861e-03  5.44508453e-03
  2.23813853e-01  5.93056828e-02  1.15816100e-02  1.21712437e-02  2.65734990e-03
 -9.80957059e-02 -3.59943620e-02 -9.37453403e-03 -1.10354719e-03  4.40598026e-04
  2.21889319e-01  6.95154423e-02  1.06937050e-02 -1.25774069e-02  2.75017249e-03
  2.04599962e-03 -4.94586236e-02 -4.24668076e-02 -1.46169445e-01 -9.16093938e-02
  2.45332430e-02 -3.64671754e-02 -4.19056814e-02  1.79063053e-03 -4.88380267e-03
 -2.58809010e-04  2.29936395e-03  7.05345883e-03  4.47923278e-03  1.23094065e-03
  7.51675795e-02  4.41690686e-02  1.37720006e-01 -1.24455333e-01  1.50039564e-02
  7.73438559e-02 -3.39605342e-02  3.40390617e-03  1.23790272e-03  2.55647553e-03
  5.28168840e-04 -9.76670149e-03 -1.07436410e-02  5.38280846e-03 -6.50240500e-02