Generated by Psi4
        SP                           RHF                       CC-PVDZ
Number of atoms                            I               11
Charge                                     I                0
Multiplicity                               I                1
Number of electrons                        I               38
Number of alpha electrons                  I               19
Number of beta electrons                   I               19
Number of basis functions                  I              100
Number of independent functions            I              100
Atomic numbers                             I   N=          11
           6           6           6           6           8           1
           1           1           1           1           1
Nuclear charges                            R   N=          11
  6.00000000e+00  6.00000000e+00  6.00000000e+00  6.00000000e+00  8.00000000e+00
  1.00000000e+00  1.00000000e+00  1.00000000e+00  1.00000000e+00  1.00000000e+00
  1.00000000e+00
Current cartesian coordinates              R   N=          33
  1.82756588e+00  2.42048860e+00 -9.40607386e-02 -9.18750442e-01  2.31610852e+00
 -7.10794768e-02 -2.16759623e+00  9.25781694e-02  4.14304256e-01 -7.74420512e-01
 -2.21481744e+00  7.05876972e-02  1.55618265e+00 -2.35568582e+00 -2.03071348e-01
  2.21796094e+00  2.41321612e-01 -7.52117554e-01  2.65210804e+00  4.14608463e+00
 -9.32681471e-01  2.74905131e+00  1.93480813e+00  1.70846581e+00 -1.87715290e+00
 -3.96545025e+00 -2.27526615e-01 -4.22645834e+00 -1.47790426e-02  4.32448500e-01
 -2.00427737e+00  3.91574725e+00 -8.12928185e-01
Integer atomic weights                     I   N=          11
          12          12          12          12          16           1
           1           1           1           1           1
Real atomic weights                        R   N=          11
  1.20000000e+01  1.20000000e+01  1.20000000e+01  1.20000000e+01  1.59949146e+01
  1.00782503e+00  1.00782503e+00  1.00782503e+00  1.00782503e+00  1.00782503e+00
  1.00782503e+00
Number of primitive shells                 I              140
Number of contracted shells                I               48
Pure/Cartesian d shells                    I                0
Pure/Cartesian f shells                    I                0
Highest angular momentum                   I                2
Largest degree of contraction              I                8
Shell types                                I   N=          48
           0           0           0           1           1          -2
           0           0           0           1           1          -2
           0           0           0           1           1          -2
           0           0           0           1           1          -2
           0           0           0           1           1          -2
           0           0           1           0           0           1
           0           0           1           0           0           1
           0           0           1           0           0           1
Number of primitives per shell             I   N=          48
           8           8           1           3           1           1
           8           8           1           3           1           1
           8           8           1           3           1           1
           8           8           1           3           1           1
           8           8           1           3           1           1
           3           1           1           3           1           1
           3           1           1           3           1           1
           3           1           1           3           1           1
Shell to atom map                          I   N=          48
           1           1           1           1           1           1
           2           2           2           2           2           2
           3           3           3           3           3           3
           4           4           4           4           4           4
           5           5           5           5           5           5
           6           6           6           7           7           7
           8           8           8           9           9           9
          10          10          10          11          11          11
Primitive exponents                        R   N=         140
  6.66500000e+03  1.00000000e+03  2.28000000e+02  6.47100000e+01  2.10600000e+01
  7.49500000e+00  2.79700000e+00  5.21500000e-01  6.66500000e+03  1.00000000e+03
  2.28000000e+02  6.47100000e+01  2.10600000e+01  7.49500000e+00  2.79700000e+00
  5.21500000e-01  1.59600000e-01  9.43900000e+00  2.00200000e+00  5.45600000e-01
  1.51700000e-01  5.50000000e-01  6.66500000e+03  1.00000000e+03  2.28000000e+02
  6.47100000e+01  2.10600000e+01  7.49500000e+00  2.79700000e+00  5.21500000e-01
  6.66500000e+03  1.00000000e+03  2.28000000e+02  6.47100000e+01  2.10600000e+01
  7.49500000e+00  2.79700000e+00  5.21500000e-01  1.59600000e-01  9.43900000e+00
  2.00200000e+00  5.45600000e-01  1.51700000e-01  5.50000000e-01  6.66500000e+03
  1.00000000e+03  2.28000000e+02  6.47100000e+01  2.10600000e+01  7.49500000e+00
  2.79700000e+00  5.21500000e-01  6.66500000e+03  1.00000000e+03  2.28000000e+02
  6.47100000e+01  2.10600000e+01  7.49500000e+00  2.79700000e+00  5.21500000e-01
  1.59600000e-01  9.43900000e+00  2.00200000e+00  5.45600000e-01  1.51700000e-01
  5.50000000e-01  6.66500000e+03  1.00000000e+03  2.28000000e+02  6.47100000e+01
  2.10600000e+01  7.49500000e+00  2.79700000e+00  5.21500000e-01  6.66500000e+03
  1.00000000e+03  2.28000000e+02  6.47100000e+01  2.10600000e+01  7.49500000e+00
  2.79700000e+00  5.21500000e-01  1.59600000e-01  9.43900000e+00  2.00200000e+00
  5.45600000e-01  1.51700000e-01  5.50000000e-01  1.17200000e+04  1.75900000e+03
  4.00800000e+02  1.13700000e+02  3.70300000e+01  1.32700000e+01  5.02500000e+00
  1.01300000e+00  1.17200000e+04  1.75900000e+03  4.00800000e+02  1.13700000e+02
  3.70300000e+01  1.32700000e+01  5.02500000e+00  1.01300000e+00  3.02300000e-01
  1.77000000e+01  3.85400000e+00  1.04600000e+00  2.75300000e-01  1.18500000e+00
  1.30100000e+01  1.96200000e+00  4.44600000e-01  1.22000000e-01  7.27000000e-01
  1.30100000e+01  1.96200000e+00  4.44600000e-01  1.22000000e-01  7.27000000e-01
  1.30100000e+01  1.96200000e+00  4.44600000e-01  1.22000000e-01  7.27000000e-01
  1.30100000e+01  1.96200000e+00  4.44600000e-01  1.22000000e-01  7.27000000e-01
  1.30100000e+01  1.96200000e+00  4.44600000e-01  1.22000000e-01  7.27000000e-01
  1.30100000e+01  1.96200000e+00  4.44600000e-01  1.22000000e-01  7.27000000e-01
Contraction coefficients                   R   N=         140
  6.91583963e-04  5.32579615e-03  2.70607210e-02  1.01656846e-01  2.74574824e-01
  4.48294319e-01  2.84902611e-01  1.51948592e-02 -2.93269653e-04 -2.31803547e-03
 -1.14997860e-02 -4.68267270e-02 -1.28466169e-01 -3.01266272e-01 -2.55630702e-01
  1.09379336e+00  1.00000000e+00  5.69792516e-02  3.13207212e-01  7.60376742e-01
  1.00000000e+00  1.00000000e+00  6.91583963e-04  5.32579615e-03  2.70607210e-02
  1.01656846e-01  2.74574824e-01  4.48294319e-01  2.84902611e-01  1.51948592e-02
 -2.93269653e-04 -2.31803547e-03 -1.14997860e-02 -4.68267270e-02 -1.28466169e-01
 -3.01266272e-01 -2.55630702e-01  1.09379336e+00  1.00000000e+00  5.69792516e-02
  3.13207212e-01  7.60376742e-01  1.00000000e+00  1.00000000e+00  6.91583963e-04
  5.32579615e-03  2.70607210e-02  1.01656846e-01  2.74574824e-01  4.48294319e-01
  2.84902611e-01  1.51948592e-02 -2.93269653e-04 -2.31803547e-03 -1.14997860e-02
 -4.68267270e-02 -1.28466169e-01 -3.01266272e-01 -2.55630702e-01  1.09379336e+00
  1.00000000e+00  5.69792516e-02  3.13207212e-01  7.60376742e-01  1.00000000e+00
  1.00000000e+00  6.91583963e-04  5.32579615e-03  2.70607210e-02  1.01656846e-01
  2.74574824e-01  4.48294319e-01  2.84902611e-01  1.51948592e-02 -2.93269653e-04
 -2.31803547e-03 -1.14997860e-02 -4.68267270e-02 -1.28466169e-01 -3.01266272e-01
 -2.55630702e-01  1.09379336e+00  1.00000000e+00  5.69792516e-02  3.13207212e-01
  7.60376742e-01  1.00000000e+00  1.00000000e+00  7.09645947e-04  5.46727229e-03
  2.78231186e-02  1.04747740e-01  2.82920846e-01  4.48495239e-01  2.70816885e-01
  1.54502916e-02 -3.14443412e-04 -2.48213768e-03 -1.23163554e-02 -5.05389173e-02
 -1.39384903e-01 -3.25077495e-01 -2.29848308e-01  1.09537935e+00  1.00000000e+00
  6.26791663e-02  3.33536566e-01  7.41239642e-01  1.00000000e+00  1.00000000e+00
  3.34987264e-02  2.34800801e-01  8.13682958e-01  1.00000000e+00  1.00000000e+00
  3.34987264e-02  2.34800801e-01  8.13682958e-01  1.00000000e+00  1.00000000e+00
  3.34987264e-02  2.34800801e-01  8.13682958e-01  1.00000000e+00  1.00000000e+00
  3.34987264e-02  2.34800801e-01  8.13682958e-01  1.00000000e+00  1.00000000e+00
  3.34987264e-02  2.34800801e-01  8.13682958e-01  1.00000000e+00  1.00000000e+00
  3.34987264e-02  2.34800801e-01  8.13682958e-01  1.00000000e+00  1.00000000e+00
Coordinates of each shell                  R   N=         144
  1.82756588e+00  2.42048860e+00 -9.40607386e-02  1.82756588e+00  2.42048860e+00
 -9.40607386e-02  1.82756588e+00  2.42048860e+00 -9.40607386e-02  1.82756588e+00
  2.42048860e+00 -9.40607386e-02  1.82756588e+00  2.42048860e+00 -9.40607386e-02
  1.82756588e+00  2.42048860e+00 -9.40607386e-02 -9.18750442e-01  2.31610852e+00
 -7.10794768e-02 -9.18750442e-01  2.31610852e+00 -7.10794768e-02 -9.18750442e-01
  2.31610852e+00 -7.10794768e-02 -9.18750442e-01  2.31610852e+00 -7.10794768e-02
 -9.18750442e-01  2.31610852e+00 -7.10794768e-02 -9.18750442e-01  2.31610852e+00
 -7.10794768e-02 -2.16759623e+00  9.25781694e-02  4.14304256e-01 -2.16759623e+00
  9.25781694e-02  4.14304256e-01 -2.16759623e+00  9.25781694e-02  4.14304256e-01
 -2.16759623e+00  9.25781694e-02  4.14304256e-01 -2.16759623e+00  9.25781694e-02
  4.14304256e-01 -2.16759623e+00  9.25781694e-02  4.14304256e-01 -7.74420512e-01
 -2.21481744e+00  7.05876972e-02 -7.74420512e-01 -2.21481744e+00  7.05876972e-02
 -7.74420512e-01 -2.21481744e+00  7.05876972e-02 -7.74420512e-01 -2.21481744e+00
  7.05876972e-02 -7.74420512e-01 -2.21481744e+00  7.05876972e-02 -7.74420512e-01
 -2.21481744e+00  7.05876972e-02  1.55618265e+00 -2.35568582e+00 -2.03071348e-01
  1.55618265e+00 -2.35568582e+00 -2.03071348e-01  1.55618265e+00 -2.35568582e+00
 -2.03071348e-01  1.55618265e+00 -2.35568582e+00 -2.03071348e-01  1.55618265e+00
 -2.35568582e+00 -2.03071348e-01  1.55618265e+00 -2.35568582e+00 -2.03071348e-01
  2.21796094e+00  2.41321612e-01 -7.52117554e-01  2.21796094e+00  2.41321612e-01
 -7.52117554e-01  2.21796094e+00  2.41321612e-01 -7.52117554e-01  2.65210804e+00
  4.14608463e+00 -9.32681471e-01  2.65210804e+00  4.14608463e+00 -9.32681471e-01
  2.65210804e+00  4.14608463e+00 -9.32681471e-01  2.74905131e+00  1.93480813e+00
  1.70846581e+00  2.74905131e+00  1.93480813e+00  1.70846581e+00  2.74905131e+00
  1.93480813e+00  1.70846581e+00 -1.87715290e+00 -3.96545025e+00 -2.27526615e-01
 -1.87715290e+00 -3.96545025e+00 -2.27526615e-01 -1.87715290e+00 -3.96545025e+00
 -2.27526615e-01 -4.22645834e+00 -1.47790426e-02  4.32448500e-01 -4.22645834e+00
 -1.47790426e-02  4.32448500e-01 -4.22645834e+00 -1.47790426e-02  4.32448500e-01
 -2.00427737e+00  3.91574725e+00 -8.12928185e-01 -2.00427737e+00  3.91574725e+00
 -8.12928185e-01 -2.00427737e+00  3.91574725e+00 -8.12928185e-01
Total Energy                               R     -2.312058117714267e+02
Alpha Orbital Energies                     R   N=         100
 -1.91434017e+01 -1.02728638e+01 -1.02267055e+01 -1.01925739e+01 -1.01773108e+01
 -1.04957615e+00 -8.15785077e-01 -7.18940137e-01 -6.19049198e-01 -5.59857165e-01
 -5.04004018e-01 -4.51601244e-01 -4.41148630e-01 -4.11880328e-01 -3.96330187e-01
 -3.81640286e-01 -3.47155472e-01 -2.80544123e-01 -2.32298210e-01 -6.19116287e-02
  3.62948806e-02  6.41788002e-02  9.48991430e-02  1.11012514e-01  1.28250517e-01
  1.51236119e-01  1.89592721e-01  2.27847234e-01  2.74495393e-01  3.15356432e-01
  3.32143321e-01  4.19676953e-01  4.51667307e-01  4.54273997e-01  4.69938514e-01
  4.86830571e-01  5.15349240e-01  5.23814002e-01  5.59789827e-01  5.73025364e-01
  6.11819276e-01  6.22034551e-01  6.30295484e-01  6.48611954e-01  6.80221177e-01
  7.00151800e-01  7.02488739e-01  7.62629304e-01  7.89388930e-01  8.63039336e-01
  8.95158961e-01  9.33844500e-01  9.65590899e-01  1.02194100e+00  1.05577887e+00
  1.09459338e+00  1.10120798e+00  1.14101445e+00  1.20002664e+00  1.24868519e+00
  1.29630851e+00  1.33029999e+00  1.42445287e+00  1.47550427e+00  1.49616517e+00
  1.51791444e+00  1.55191151e+00  1.56221008e+00  1.59722413e+00  1.61848869e+00
  1.64508077e+00  1.65203777e+00  1.68885068e+00  1.71562068e+00  1.75540097e+00
  1.76946169e+00  1.80021606e+00  1.83200355e+00  1.86300254e+00  1.88051996e+00
  1.94308509e+00  1.96902699e+00  2.03461158e+00  2.03841935e+00  2.13588988e+00
  2.19913760e+00  2.24701397e+00  2.34434734e+00  2.36424619e+00  2.39309869e+00
  2.47330580e+00  2.47647784e+00  2.61742486e+00  2.67113502e+00  2.78323766e+00
  2.94326452e+00  3.03716229e+00  3.22096110e+00  3.40067096e+00  3.48925242e+00
Alpha MO coefficients                      R   N=       10000
 -4.24322823e-05 -7.62965689e-05 -1.18264987e-04  9.60616429e-05 -2.66506205e-05
 -6.90812863e-05 -2.00516572e-04 -2.21057026e-04  4.11098386e-04  2.07146477e-05
  4.89923864e-05  5.71218704e-05  2.12951368e-05 -1.84192225e-04 -8.78223758e-05
 -1.59292821e-04  3.89460486e-03 -2.85742985e-05 -3.58995021e-05 -7.29467149e-05
 -7.96393087e-04 -1.62595387e-03  5.67342982e-04  9.31635606e-06  7.87008360e-05
 -7.23236938e-05 -3.85565247e-05 -3.33657529e-05  2.02631255e-04  3.06467049e-04
 -4.13681490e-03 -3.13054972e-05  2.73772493e-04  2.95819533e-05 -4.23877485e-03
 -2.55682379e-03  5.83967028e-04  1.21294800e-04  1.29666918e-04  7.55006835e-05
 -4.76478010e-04  4.23669007e-04  4.04676819e-04  5.69770283e-04  6.42419990e-03
  1.13906712e-04 -1.54996886e-04 -9.84862488e-05  5.63915046e-03  1.95070235e-03
 -5.05894672e-04 -1.24829392e-04  1.12437065e-04  1.77701022e-04 -1.12892414e-03
  4.18737081e-04  1.00428021e+00  9.69496593e-03 -1.53971306e-02 -1.69789857e-03
  4.29593492e-04  9.04670296e-05  3.42553653e-03 -1.35896532e-03 -2.38222272e-04
  1.00104135e-04  8.21038905e-06  3.79153415e-05  1.29719543e-04  3.62330149e-05
  4.73484740e-04  4.40250743e-04 -2.16502242e-04 -6.82488073e-04  1.76168151e-04
  2.08512376e-04  4.17354484e-04 -5.68117467e-05 -9.00096917e-05  2.65726683e-05
 -1.75411793e-04 -3.31234474e-04  7.54523993e-05  9.91951489e-05  5.83510359e-05
 -3.97367396e-04  8.92425100e-04 -7.29322889e-04 -1.21516053e-04  6.82510765e-05
 -1.89765198e-04 -1.26465980e-03  1.90681081e-04  2.11419364e-04 -4.46835605e-05
 -1.30830661e-04  1.93886271e-04  4.38565357e-05  6.25591303e-05 -3.67137063e-05
 -3.69432348e-04 -5.23345663e-04  1.26206853e-03  2.41249399e-04  2.84919941e-05
 -3.34506564e-05 -8.06473975e-04 -3.18655316e-04 -4.25680437e-05 -1.18375508e-04
 -1.25208908e-04  1.53941186e-05 -1.03117531e-04 -1.15319423e-04 -3.88442501e-04
 -6.10890444e-04  4.99113250e-03 -1.48213027e-04 -8.50222868e-06  2.83214779e-05
 -1.92361543e-03 -2.99106740e-03  7.30968237e-04 -3.04384130e-04 -2.11271222e-04
 -8.27911903e-05  1.15590885e-04  1.40648434e-04  2.03156100e-03 -3.77285612e-04
 -1.14187842e-03 -4.32990095e-04  9.27256840e-04  1.43667781e-04 -2.23055626e-03
 -4.86383709e-03  4.26972977e-04  1.03132992e-03  2.14257052e-04 -1.64178108e-04
  6.86209113e-04  1.01848054e-03  1.00598519e+00  1.54049140e-02 -1.01410286e-02
  8.55575683e-04 -3.47521545e-04 -3.81969800e-04  4.90568235e-03 -1.34115151e-03
 -5.43323130e-04 -1.61374580e-03 -2.09827650e-04  4.38713476e-04  5.38975146e-04
  2.67599490e-04  5.21411923e-04  1.11959565e-03 -5.75275950e-03  6.56540841e-04
 -5.98054602e-05 -8.93815633e-05  3.49271975e-03 -1.00312378e-04 -3.93387029e-04
  6.43827847e-04  2.43436329e-04 -2.62337480e-05 -7.84215500e-04  7.14588040e-05
  7.17269630e-05 -4.56979503e-04 -3.75258570e-04 -3.71708805e-04  2.32813399e-05
 -1.23016420e-05  4.52345081e-04 -3.01537262e-05 -1.74900212e-05  2.97548945e-05
 -7.44856050e-05  1.76642187e-04  6.32591728e-05  9.26225510e-05 -7.84249894e-05
 -1.97328998e-03  2.41090132e-03 -1.33691962e-03 -1.62803743e-03 -2.74230478e-04
 -3.65167117e-04 -4.97165851e-04  1.44187216e-04  2.71032429e-04 -2.69359788e-05
 -8.80563307e-05  3.88608406e-04  1.74059522e-04  1.06700107e-04 -4.95658688e-05
  2.88524305e-03 -5.27824926e-04  4.66220061e-03  8.48161575e-04 -5.25495122e-05
  2.01059064e-05 -2.55440506e-03 -5.98628099e-04  1.36056838e-04  8.54023652e-04
  1.21727063e-04  4.97099965e-05 -1.03349036e-03 -1.60655263e-04  1.00647022e+00
  1.63107370e-02 -2.00240753e-02 -4.09260448e-04  4.55013825e-05 -4.03358090e-04
 -2.40295027e-03  3.86476792e-03 -7.65942529e-04 -7.67871360e-04  4.11381936e-04
 -8.55546652e-04 -3.64748382e-04 -5.08976114e-04  8.03802114e-03 -9.34179922e-04
  3.78654776e-03 -5.85666755e-04 -9.73118351e-04  1.81202914e-04  1.87611382e-03
  2.65324476e-03 -1.60481881e-04  8.69979625e-04  1.56724307e-04  4.14023815e-04
  4.62949459e-04 -1.01680132e-03 -3.65233633e-04 -6.48845741e-04  1.79005916e-03
  3.81612344e-05 -1.95414406e-04  4.04162657e-05 -7.11092855e-04  1.45267484e-03
 -8.68159706e-05 -3.23337601e-04 -1.72762315e-04 -5.27680099e-05  4.19587540e-05
  1.62440040e-04  2.28989464e-05  3.24510979e-05 -4.01705170e-04  1.28271246e-04
  3.74962006e-05  1.68792741e-06 -2.19138653e-04 -5.74429933e-04  7.83107438e-05
  1.81547770e-05 -2.40609735e-05  1.39509112e-06  2.57653401e-05  3.30532288e-05
 -2.01535263e-04  8.59524920e-04 -3.84246971e-04 -1.83661025e-04 -1.43078715e-05
 -1.39824237e-04  3.20316419e-04  1.69887201e-04 -9.48743858e-05  8.32390999e-05
 -5.45832939e-04  7.45421128e-04 -2.67201027e-05  2.92645555e-05 -1.62854463e-05
 -1.67694191e-04  3.48201785e-04  5.22663809e-05 -1.35325119e-04 -2.92553345e-05
  1.50714231e-04  6.29368994e-04  1.74820265e-04 -2.86472988e-04  1.94207159e-05
 -2.55901345e-03  1.11856207e-03 -1.18812642e-03  1.69397634e-03 -8.97311054e-04
 -6.58026811e-04 -5.13619554e-04  1.11361254e-03  1.25807166e-04  9.80915481e-05
 -1.43985731e-04 -1.21461174e-03 -2.75884986e-04  5.37012959e-04 -2.83041559e-04
 -6.70917838e-06 -1.29650623e-04 -2.60465172e-06 -1.09070082e-04 -9.04397962e-03
 -1.26221909e-03  4.97080990e-03  5.26495360e-04  1.02810838e-03 -2.32390029e-04
 -1.48809777e-03 -2.91324475e-03  4.72717637e-05  8.59680983e-04  3.25826817e-04
  5.71460347e-04  6.75289736e-04 -8.46658104e-04  1.00665487e+00  1.67930512e-02
 -2.11724707e-02 -2.54867209e-04  8.68992049e-05 -5.17199119e-04 -4.76861059e-03
 -1.61185950e-04  1.86315546e-03 -1.10859009e-03 -6.79182512e-05 -5.92569413e-05
  7.10766084e-04  3.61605236e-04 -2.47342871e-03 -8.74909549e-04  5.90635702e-03
  4.21480995e-04 -7.39567847e-04 -1.40182134e-04 -6.04068367e-04  3.31035375e-03
  9.35546604e-06  7.34599127e-04  2.92583060e-04 -3.40704219e-04  5.43003852e-04
  1.17320817e-03  1.90932476e-05  3.15649998e-05 -5.82598547e-04  6.36727983e-05
  1.52714683e-06 -5.18307739e-05 -1.66273035e-04 -7.55644395e-04  1.07452748e-04
 -1.10250077e-04  4.82495431e-06  5.87116429e-06  2.94404096e-05  1.82464415e-04
 -1.14285406e-04  4.78714815e-04 -1.09580205e-04 -1.44168088e-04 -1.76512180e-05
  1.46183370e-05  4.71669013e-04  6.65835991e-05 -3.39110452e-05 -4.28297374e-05
 -2.37657276e-04  1.63624476e-04  6.97186390e-06  1.21822496e-04 -6.81812248e-05
 -2.20793895e-04  7.90651370e-04  2.32488511e-04 -1.52209039e-04  2.90524955e-05
 -2.50833066e-03  1.08616978e-03 -2.24480324e-03 -4.88362866e-05 -1.78784245e-04
 -4.05247316e-05  5.04496399e-04  3.13417962e-04  2.15940375e-05  1.44849772e-04
  1.00686205e+00  1.72154935e-02 -1.90180632e-02  1.55654390e-04  7.62526338e-05
  5.15802564e-04  2.53295019e-03  1.98007174e-03 -4.39047287e-04 -1.19262468e-04
  3.56430879e-04 -8.25422084e-04 -4.86305447e-04  4.68958524e-04 -3.18801085e-03
 -3.91864417e-04  1.90014704e-03 -6.92127136e-04  4.81208687e-05 -1.09101659e-05
  3.24528720e-03  1.43372285e-03 -1.47954512e-04  7.76441319e-04  1.60374476e-04
  2.44883145e-05 -1.33468567e-03 -1.74810207e-04 -1.02093219e-05 -5.98821698e-04
  2.52278869e-03 -2.21942288e-04 -4.55520054e-05 -2.24969819e-05  1.24831103e-03
  2.02991283e-03 -3.35685353e-04 -3.70888024e-04  3.13408808e-05 -1.33348819e-04
 -2.87970776e-04 -1.81519485e-04 -1.77469946e-04 -5.17262275e-04 -5.35765284e-04
 -1.59547568e-04 -2.14088298e-04 -7.89671068e-05 -8.92539945e-04  5.29947765e-04
  2.07804354e-04 -5.02009596e-05 -2.95872052e-05 -5.10847866e-05 -1.02915956e-04
  2.36025308e-04 -2.55330844e-05 -5.45899082e-05  2.33417690e-04  1.28915483e-04
 -3.07887501e-05 -1.01203268e-04 -1.07444981e-03 -3.62450964e-04  5.18276523e-04
 -3.96401800e-05 -4.21725684e-07  1.13427481e-04  9.56259747e-05 -4.11588914e-05
 -8.85630639e-05  3.82507958e-03  2.40667260e-04 -1.33630372e-03 -4.78498104e-04
 -1.95585051e-03  1.28805508e-03  8.68291213e-04  1.73941882e-03 -9.79456033e-04
 -1.13486843e-03  2.13324194e-03  6.33632420e-04 -4.66469749e-04  1.80082964e-03
 -5.71456595e-05  3.17533044e-04  2.55073478e-05 -3.41582486e-05 -4.03924864e-05
  4.86664620e-05  4.78877661e-04  1.10236282e-05 -1.43296411e-04  3.18967056e-05
 -2.23489215e-04  2.49808842e-04 -2.87347794e-04 -1.95690076e-04  4.51353460e-05
 -5.90744752e-04  1.93518915e-02  1.29070939e-04 -4.98639782e-03 -1.09990789e-02
 -9.75359377e-05  2.44202999e-03  3.98185470e-03 -3.48702131e-03 -5.84432758e-04
 -5.12285852e-04  7.24070137e-04  2.56898285e-04  2.89015905e-05 -7.94293898e-04
  2.22339819e-02  1.62924671e-03  3.30314310e-03 -1.37226836e-02  1.13171476e-03
  3.45012832e-03  3.70312043e-03  1.59435532e-05 -1.47685162e-03 -4.02110567e-04
 -6.53653212e-04 -1.11654824e-03 -1.45448549e-04 -4.15864163e-03  4.04120742e-02
  3.32069834e-02  2.61769171e-02 -1.79633775e-02 -6.03395045e-03  1.96427131e-02
  4.02809826e-04 -4.21195819e-03 -3.78608235e-03 -2.18371704e-03  9.13286405e-04
  1.46221389e-03 -8.72767355e-03 -1.48276789e-02  2.12849043e-01  8.45264944e-02
  1.72447863e-01  2.02695802e-03 -2.10606989e-02  1.34958335e-02 -1.87519808e-03
 -7.61656424e-04 -1.37473829e-02 -7.63628343e-03 -2.00514086e-03  3.15090231e-02
 -4.13457331e-03 -9.54060020e-03  4.01228278e-01  3.73775275e-01 -1.43957390e-01
  2.69007730e-02  1.31137841e-02 -3.31459928e-02  1.22538309e-02  1.91840211e-03
 -6.34593286e-03 -2.58960992e-03 -1.46376964e-03  1.00957394e-02 -2.13713897e-03
  4.33865831e-02  3.90960405e-03 -4.66848656e-03 -4.68028332e-03  2.79825470e-03
  2.36775091e-03 -3.70992257e-03 -4.19302014e-04 -6.86184852e-04  3.44158522e-04
  8.46426661e-03  3.33612201e-03 -1.01614117e-03 -1.09284757e-03 -1.07581336e-03
  4.02986448e-02 -2.66708015e-03  8.79774933e-03  7.08944194e-03  4.65149020e-04
  6.84166962e-03  6.07875213e-03  1.02740263e-03 -1.72210873e-03 -1.07168809e-04
  2.70800604e-03 -8.61092891e-04 -1.36821660e-04 -7.39944438e-04  5.91833977e-05
  1.12232776e-02 -1.75475045e-01 -8.00190993e-02  7.61762148e-02  1.69964367e-02
 -6.78800846e-03  3.76639773e-03 -8.08610438e-03  7.77783097e-03  6.13584550e-03
  9.17080779e-04 -5.55570978e-04 -1.07185188e-02 -2.89732556e-03  1.93854500e-02
 -2.87776062e-01 -2.00281207e-01 -1.31667625e-02  7.51726314e-02 -8.01143831e-03
 -2.63248786e-02  3.02079661e-02 -9.48062993e-03  1.04235018e-02  2.32931908e-03
  2.25052291e-03 -1.09569918e-03 -7.37921651e-03  1.79565636e-02 -2.48952341e-01
 -1.32547103e-01 -6.48282970e-02 -4.91002782e-02  2.90147496e-02 -6.55110205e-03
 -1.61946340e-02  7.59526363e-03  6.84777370e-03  3.41392923e-03  3.13848946e-03
  7.94040547e-03 -7.93597342e-03  2.74427457e-03 -6.44089242e-02 -4.67664749e-02
  8.98057987e-02 -8.59304394e-02 -1.17679650e-02  2.45042730e-02 -2.29224653e-02
 -5.25343239e-03  2.73884291e-03 -1.00717039e-03 -1.35218513e-03  1.53617955e-02
  3.79462362e-03 -4.06363381e-04  9.92873150e-02  1.00098920e-01 -1.67648610e-02
 -2.60298487e-02  1.54302863e-03  8.08155512e-04 -9.84740463e-03 -2.65382108e-04
  9.60244314e-05 -2.63952379e-04 -5.77195265e-04  1.80088596e-03  2.25014915e-03
 -5.81206181e-02  2.49367988e-03  3.57472048e-03 -9.43695961e-03 -3.91579868e-03
 -5.11895579e-02  2.13871462e-03  5.40347985e-03  6.62692073e-03 -3.67127218e-03
 -6.51369286e-02 -4.46406337e-03  5.37881398e-03 -1.03899432e-03  7.84529943e-03
 -1.49543440e-02 -9.90821130e-04  1.18326669e-03 -2.89937407e-03 -1.86190846e-04
 -7.83725242e-02 -3.17336301e-03 -1.34128508e-02 -2.33098507e-03  7.61499418e-04
 -9.48778232e-02 -1.35833630e-02 -6.80479452e-03  1.22664978e-02 -4.79536999e-03
  1.32847072e-02 -2.61907299e-01 -1.22285253e-01  3.21346328e-02  6.21295805e-03
 -9.24055975e-03 -9.29117969e-03 -6.35941394e-03  6.28859894e-03  2.51191933e-03
  4.25731106e-05 -1.25618479e-03 -3.35157274e-03  3.05645562e-03  5.97239561e-03
 -7.86686733e-02 -9.40353773e-02 -1.33049627e-01 -7.71921055e-02  1.43897878e-02
 -7.27634020e-02 -3.68353639e-03 -3.51928927e-03  3.12509117e-03 -5.13042713e-04
 -1.26746962e-03 -1.72265113e-02  6.82971247e-03 -1.33473048e-02  2.20271235e-01
  1.52573199e-01  9.39988394e-04 -8.35391681e-02 -1.58222459e-02  2.44341588e-02
 -2.92647197e-02 -1.75485152e-03 -3.29432864e-03 -4.13751380e-04  2.95402434e-03
 -8.46317922e-03 -9.22350280e-03 -5.07023348e-03  2.00475931e-01  1.10525037e-01
 -1.10663240e-01  5.44321298e-02  1.28960501e-02 -3.73822023e-02  1.34076869e-02
  2.00768510e-03 -2.79746000e-03  1.94980885e-04  1.17584769e-03 -7.18050981e-03
 -1.06710560e-02 -1.85922632e-04 -8.75062460e-02 -9.67182259e-02 -5.43965374e-02
 -2.22595081e-02  9.14294174e-03 -3.30322860e-02 -1.16634946e-02  3.79193819e-03
 -1.17041097e-03 -5.55981828e-04  7.30276941e-04  4.38317342e-03 -1.74263553e-03
 -1.16024494e-01 -1.94512566e-02  4.52259201e-03 -8.22313635e-03 -6.37160213e-03
 -1.09712240e-01 -8.31854711e-03  6.67678853e-03  1.26599860e-02 -7.00207410e-03
 -1.21642475e-01 -1.90411279e-02  7.55219437e-03 -2.47141560e-03  1.39758698e-02
  9.56653013e-02  8.75291797e-03  3.86804616e-03  1.16114858e-02  2.20231225e-03
  1.10346162e-01  1.81955688e-02  1.45210165e-02 -1.32781847e-03 -3.53351258e-04
 -3.78322788e-02 -1.53100740e-02 -4.80068936e-03  1.52307824e-03 -1.28690211e-03
  7.02131632e-03 -2.04015314e-01 -1.24244317e-01 -6.52089975e-02 -5.63294804e-04
 -2.28715852e-02 -3.82491189e-02 -7.95515650e-04  1.39129686e-03 -5.05434923e-03
 -8.57374394e-04  3.83220344e-04  6.51652938e-03  5.04165052e-04 -4.79593285e-03
  1.98912057e-01  9.88705194e-02 -1.71581984e-01 -1.81548428e-02 -4.37696603e-03
 -5.91976510e-02 -2.57602667e-03 -3.05736981e-03  3.17695595e-03 -2.79914001e-03
 -1.55134805e-03 -7.31934992e-03  5.16452725e-03 -2.41506679e-03  3.51731535e-02
  4.10469386e-02 -1.62337601e-02  2.33927550e-01 -1.51246909e-02  3.32479460e-03
  6.71337137e-02 -5.23579574e-03  8.73722822e-04 -6.07026784e-04 -7.66265488e-03
 -6.32409705e-04  1.14702750e-02  3.15622248e-03 -2.14921248e-01 -1.48108820e-01
  1.38382427e-01  4.20050690e-03 -1.12111400e-02  4.14148973e-02 -1.69702732e-02
 -6.68089306e-03 -1.49861074e-03 -4.53398230e-04 -1.33992501e-03  5.43298503e-03
 -3.74530886e-04  1.17142606e-03  1.21083012e-01  1.47222079e-01  5.11777989e-02
 -1.23909294e-02 -5.30769512e-03  3.90181417e-02 -5.29391057e-03 -4.23233406e-03
  2.41282702e-03  4.18684510e-04 -5.72299284e-04 -2.17389540e-03  2.55791160e-04
 -7.11425078e-02  2.75933921e-03  4.45902224e-04 -1.25035734e-02 -4.02479187e-03
 -1.14752734e-01 -1.78494736e-02  3.84778679e-03  1.09803072e-02 -6.84053333e-03
 -1.34908944e-01 -2.44707272e-02  5.45760663e-03 -2.88424449e-03  1.26459265e-02
 -1.54831409e-01 -3.26917538e-02 -5.86261472e-03 -1.36701565e-02 -2.71738033e-03
  2.19143523e-02  5.76973753e-03  2.09776350e-03  4.83478136e-03 -3.11674541e-04
  1.51866039e-01  2.57528130e-02  5.75588336e-03 -1.42124423e-02  6.42657054e-03
  1.38237659e-03  4.91845704e-03 -2.11460087e-03  9.13141681e-02 -1.24802786e-01
  2.91194207e-02  2.68717180e-02 -3.46864739e-02  8.81826840e-03  3.87814508e-03
 -1.30638009e-03  1.68835693e-03 -1.00477593e-02  4.17902480e-03  3.22704262e-03
 -1.48479916e-01 -1.06788247e-01 -5.46670286e-03 -1.85614874e-01  5.61078783e-02
 -2.18984761e-02 -5.80340528e-02  1.30156130e-02 -4.23737094e-03 -1.07298878e-03
 -3.10145025e-04 -4.49817640e-03  3.58756654e-04 -3.34422720e-03  1.41425369e-01
  9.66422121e-02  1.76039213e-02 -2.42048651e-02  4.01450498e-03  2.29459630e-02
 -2.57206197e-02  9.09355403e-03  1.42886432e-03 -4.37816971e-04  2.05799509e-03
  9.32354426e-03 -1.16031207e-03 -1.17301716e-03 -1.48995965e-01 -1.11480929e-01
 -2.70976372e-02  2.40412047e-01  3.40517944e-02  1.18599644e-02  5.28852982e-02
  1.18773847e-03 -3.13188964e-03 -1.21323347e-03 -5.92816645e-04 -5.41653231e-03
  6.69805959e-03 -1.48849897e-03  6.63997370e-02  1.12369822e-01  1.73691747e-01
  1.70644950e-01 -1.53670213e-02  8.68447633e-02  9.22880536e-02 -4.46682154e-03
  2.56587809e-03  4.35215985e-04 -6.78500742e-05 -1.07741338e-02 -7.13231717e-03
  1.50316298e-01  5.25359592e-02 -5.81114477e-03 -4.90367322e-03  7.34799656e-03
 -4.61542814e-02 -1.10411169e-02  4.31991480e-03  5.55034992e-04 -1.08802266e-03
  6.63717392e-02  1.74263605e-02 -5.21800606e-04 -4.39650555e-03 -5.22932737e-03
 -2.00476004e-01 -4.94779149e-02 -1.02622747e-02 -1.29818990e-02 -2.93924388e-03
  7.53456209e-02  2.61505633e-02  8.12895156e-03  5.11891804e-04 -1.37959669e-04
 -1.93110949e-01 -5.05727260e-02 -1.02641930e-02  1.13963711e-02 -6.31052051e-03
 -6.12336573e-04  6.74169165e-02  4.40503760e-02  1.44597225e-01  8.34319033e-02
  1.95221558e-03  3.34030184e-02  5.13740482e-02 -5.78453090e-04  5.34583277e-03
  1.66354254e-03 -1.50852738e-03 -6.43544293e-03 -4.67704797e-03 -5.51228725e-04
 -7.53973969e-02 -5.26751170e-02 -1.12354676e-01  1.09429357e-01 -1.48924368e-02
 -6.95162654e-02  3.13740855e-02  5.90617929e-04 -7.26955850e-04 -4.62379822e-04
 -1.32401338e-03  1.10350144e-02  1.18398418e-02 -6.57115467e-03  8.34795759e-02