Generated by Psi4
        SP                           RHF                       CC-PVDZ
Number of atoms                            I               11
Charge                                     I                0
Multiplicity                               I                1
Number of electrons                        I               38
Number of alpha electrons                  I               19
Number of beta electrons                   I               19
Number of basis functions                  I              100
Number of independent functions            I              100
Atomic numbers                             I   N=          11
           6           6           6           6           8           1
           1           1           1           1           1
Nuclear charges                            R   N=          11
  6.00000000e+00  6.00000000e+00  6.00000000e+00  6.00000000e+00  8.00000000e+00
  1.00000000e+00  1.00000000e+00  1.00000000e+00  1.00000000e+00  1.00000000e+00
  1.00000000e+00
Current cartesian coordinates              R   N=          33
  1.97814989e+00  2.64490415e+00 -1.96311181e-01 -8.36863113e-01  2.39693956e+00
 -1.37771169e-01 -2.10173699e+00  1.91325376e-01  1.05156526e-01 -8.77269275e-01
 -2.31335845e+00  7.04613051e-02  1.39022153e+00 -2.72039639e+00  1.60852594e-01
  2.85103614e+00  1.06489701e+00 -1.23557912e+00  2.59869007e+00  4.45554444e+00
 -9.89441972e-01  2.72033089e+00  2.49161748e+00  1.74384100e+00 -2.22547818e+00
 -3.93198477e+00 -1.24821594e-01 -4.16760676e+00  1.93968593e-01  2.24609005e-01
 -1.95938562e+00  4.13493706e+00 -2.84644822e-01
Integer atomic weights                     I   N=          11
          12          12          12          12          16           1
           1           1           1           1           1
Real atomic weights                        R   N=          11
  1.20000000e+01  1.20000000e+01  1.20000000e+01  1.20000000e+01  1.59949146e+01
  1.00782503e+00  1.00782503e+00  1.00782503e+00  1.00782503e+00  1.00782503e+00
  1.00782503e+00
Number of primitive shells                 I              140
Number of contracted shells                I               48
Pure/Cartesian d shells                    I                0
Pure/Cartesian f shells                    I                0
Highest angular momentum                   I                2
Largest degree of contraction              I                8
Shell types                                I   N=          48
           0           0           0           1           1          -2
           0           0           0           1           1          -2
           0           0           0           1           1          -2
           0           0           0           1           1          -2
           0           0           0           1           1          -2
           0           0           1           0           0           1
           0           0           1           0           0           1
           0           0           1           0           0           1
Number of primitives per shell             I   N=          48
           8           8           1           3           1           1
           8           8           1           3           1           1
           8           8           1           3           1           1
           8           8           1           3           1           1
           8           8           1           3           1           1
           3           1           1           3           1           1
           3           1           1           3           1           1
           3           1           1           3           1           1
Shell to atom map                          I   N=          48
           1           1           1           1           1           1
           2           2           2           2           2           2
           3           3           3           3           3           3
           4           4           4           4           4           4
           5           5           5           5           5           5
           6           6           6           7           7           7
           8           8           8           9           9           9
          10          10          10          11          11          11
Primitive exponents                        R   N=         140
  6.66500000e+03  1.00000000e+03  2.28000000e+02  6.47100000e+01  2.10600000e+01
  7.49500000e+00  2.79700000e+00  5.21500000e-01  6.66500000e+03  1.00000000e+03
  2.28000000e+02  6.47100000e+01  2.10600000e+01  7.49500000e+00  2.79700000e+00
  5.21500000e-01  1.59600000e-01  9.43900000e+00  2.00200000e+00  5.45600000e-01
  1.51700000e-01  5.50000000e-01  6.66500000e+03  1.00000000e+03  2.28000000e+02
  6.47100000e+01  2.10600000e+01  7.49500000e+00  2.79700000e+00  5.21500000e-01
  6.66500000e+03  1.00000000e+03  2.28000000e+02  6.47100000e+01  2.10600000e+01
  7.49500000e+00  2.79700000e+00  5.21500000e-01  1.59600000e-01  9.43900000e+00
  2.00200000e+00  5.45600000e-01  1.51700000e-01  5.50000000e-01  6.66500000e+03
  1.00000000e+03  2.28000000e+02  6.47100000e+01  2.10600000e+01  7.49500000e+00
  2.79700000e+00  5.21500000e-01  6.66500000e+03  1.00000000e+03  2.28000000e+02
  6.47100000e+01  2.10600000e+01  7.49500000e+00  2.79700000e+00  5.21500000e-01
  1.59600000e-01  9.43900000e+00  2.00200000e+00  5.45600000e-01  1.51700000e-01
  5.50000000e-01  6.66500000e+03  1.00000000e+03  2.28000000e+02  6.47100000e+01
  2.10600000e+01  7.49500000e+00  2.79700000e+00  5.21500000e-01  6.66500000e+03
  1.00000000e+03  2.28000000e+02  6.47100000e+01  2.10600000e+01  7.49500000e+00
  2.79700000e+00  5.21500000e-01  1.59600000e-01  9.43900000e+00  2.00200000e+00
  5.45600000e-01  1.51700000e-01  5.50000000e-01  1.17200000e+04  1.75900000e+03
  4.00800000e+02  1.13700000e+02  3.70300000e+01  1.32700000e+01  5.02500000e+00
  1.01300000e+00  1.17200000e+04  1.75900000e+03  4.00800000e+02  1.13700000e+02
  3.70300000e+01  1.32700000e+01  5.02500000e+00  1.01300000e+00  3.02300000e-01
  1.77000000e+01  3.85400000e+00  1.04600000e+00  2.75300000e-01  1.18500000e+00
  1.30100000e+01  1.96200000e+00  4.44600000e-01  1.22000000e-01  7.27000000e-01
  1.30100000e+01  1.96200000e+00  4.44600000e-01  1.22000000e-01  7.27000000e-01
  1.30100000e+01  1.96200000e+00  4.44600000e-01  1.22000000e-01  7.27000000e-01
  1.30100000e+01  1.96200000e+00  4.44600000e-01  1.22000000e-01  7.27000000e-01
  1.30100000e+01  1.96200000e+00  4.44600000e-01  1.22000000e-01  7.27000000e-01
  1.30100000e+01  1.96200000e+00  4.44600000e-01  1.22000000e-01  7.27000000e-01
Contraction coefficients                   R   N=         140
  6.91583963e-04  5.32579615e-03  2.70607210e-02  1.01656846e-01  2.74574824e-01
  4.48294319e-01  2.84902611e-01  1.51948592e-02 -2.93269653e-04 -2.31803547e-03
 -1.14997860e-02 -4.68267270e-02 -1.28466169e-01 -3.01266272e-01 -2.55630702e-01
  1.09379336e+00  1.00000000e+00  5.69792516e-02  3.13207212e-01  7.60376742e-01
  1.00000000e+00  1.00000000e+00  6.91583963e-04  5.32579615e-03  2.70607210e-02
  1.01656846e-01  2.74574824e-01  4.48294319e-01  2.84902611e-01  1.51948592e-02
 -2.93269653e-04 -2.31803547e-03 -1.14997860e-02 -4.68267270e-02 -1.28466169e-01
 -3.01266272e-01 -2.55630702e-01  1.09379336e+00  1.00000000e+00  5.69792516e-02
  3.13207212e-01  7.60376742e-01  1.00000000e+00  1.00000000e+00  6.91583963e-04
  5.32579615e-03  2.70607210e-02  1.01656846e-01  2.74574824e-01  4.48294319e-01
  2.84902611e-01  1.51948592e-02 -2.93269653e-04 -2.31803547e-03 -1.14997860e-02
 -4.68267270e-02 -1.28466169e-01 -3.01266272e-01 -2.55630702e-01  1.09379336e+00
  1.00000000e+00  5.69792516e-02  3.13207212e-01  7.60376742e-01  1.00000000e+00
  1.00000000e+00  6.91583963e-04  5.32579615e-03  2.70607210e-02  1.01656846e-01
  2.74574824e-01  4.48294319e-01  2.84902611e-01  1.51948592e-02 -2.93269653e-04
 -2.31803547e-03 -1.14997860e-02 -4.68267270e-02 -1.28466169e-01 -3.01266272e-01
 -2.55630702e-01  1.09379336e+00  1.00000000e+00  5.69792516e-02  3.13207212e-01
  7.60376742e-01  1.00000000e+00  1.00000000e+00  7.09645947e-04  5.46727229e-03
  2.78231186e-02  1.04747740e-01  2.82920846e-01  4.48495239e-01  2.70816885e-01
  1.54502916e-02 -3.14443412e-04 -2.48213768e-03 -1.23163554e-02 -5.05389173e-02
 -1.39384903e-01 -3.25077495e-01 -2.29848308e-01  1.09537935e+00  1.00000000e+00
  6.26791663e-02  3.33536566e-01  7.41239642e-01  1.00000000e+00  1.00000000e+00
  3.34987264e-02  2.34800801e-01  8.13682958e-01  1.00000000e+00  1.00000000e+00
  3.34987264e-02  2.34800801e-01  8.13682958e-01  1.00000000e+00  1.00000000e+00
  3.34987264e-02  2.34800801e-01  8.13682958e-01  1.00000000e+00  1.00000000e+00
  3.34987264e-02  2.34800801e-01  8.13682958e-01  1.00000000e+00  1.00000000e+00
  3.34987264e-02  2.34800801e-01  8.13682958e-01  1.00000000e+00  1.00000000e+00
  3.34987264e-02  2.34800801e-01  8.13682958e-01  1.00000000e+00  1.00000000e+00
Coordinates of each shell                  R   N=         144
  1.97814989e+00  2.64490415e+00 -1.96311181e-01  1.97814989e+00  2.64490415e+00
 -1.96311181e-01  1.97814989e+00  2.64490415e+00 -1.96311181e-01  1.97814989e+00
  2.64490415e+00 -1.96311181e-01  1.97814989e+00  2.64490415e+00 -1.96311181e-01
  1.97814989e+00  2.64490415e+00 -1.96311181e-01 -8.36863113e-01  2.39693956e+00
 -1.37771169e-01 -8.36863113e-01  2.39693956e+00 -1.37771169e-01 -8.36863113e-01
  2.39693956e+00 -1.37771169e-01 -8.36863113e-01  2.39693956e+00 -1.37771169e-01
 -8.36863113e-01  2.39693956e+00 -1.37771169e-01 -8.36863113e-01  2.39693956e+00
 -1.37771169e-01 -2.10173699e+00  1.91325376e-01  1.05156526e-01 -2.10173699e+00
  1.91325376e-01  1.05156526e-01 -2.10173699e+00  1.91325376e-01  1.05156526e-01
 -2.10173699e+00  1.91325376e-01  1.05156526e-01 -2.10173699e+00  1.91325376e-01
  1.05156526e-01 -2.10173699e+00  1.91325376e-01  1.05156526e-01 -8.77269275e-01
 -2.31335845e+00  7.04613051e-02 -8.77269275e-01 -2.31335845e+00  7.04613051e-02
 -8.77269275e-01 -2.31335845e+00  7.04613051e-02 -8.77269275e-01 -2.31335845e+00
  7.04613051e-02 -8.77269275e-01 -2.31335845e+00  7.04613051e-02 -8.77269275e-01
 -2.31335845e+00  7.04613051e-02  1.39022153e+00 -2.72039639e+00  1.60852594e-01
  1.39022153e+00 -2.72039639e+00  1.60852594e-01  1.39022153e+00 -2.72039639e+00
  1.60852594e-01  1.39022153e+00 -2.72039639e+00  1.60852594e-01  1.39022153e+00
 -2.72039639e+00  1.60852594e-01  1.39022153e+00 -2.72039639e+00  1.60852594e-01
  2.85103614e+00  1.06489701e+00 -1.23557912e+00  2.85103614e+00  1.06489701e+00
 -1.23557912e+00  2.85103614e+00  1.06489701e+00 -1.23557912e+00  2.59869007e+00
  4.45554444e+00 -9.89441972e-01  2.59869007e+00  4.45554444e+00 -9.89441972e-01
  2.59869007e+00  4.45554444e+00 -9.89441972e-01  2.72033089e+00  2.49161748e+00
  1.74384100e+00  2.72033089e+00  2.49161748e+00  1.74384100e+00  2.72033089e+00
  2.49161748e+00  1.74384100e+00 -2.22547818e+00 -3.93198477e+00 -1.24821594e-01
 -2.22547818e+00 -3.93198477e+00 -1.24821594e-01 -2.22547818e+00 -3.93198477e+00
 -1.24821594e-01 -4.16760676e+00  1.93968593e-01  2.24609005e-01 -4.16760676e+00
  1.93968593e-01  2.24609005e-01 -4.16760676e+00  1.93968593e-01  2.24609005e-01
 -1.95938562e+00  4.13493706e+00 -2.84644822e-01 -1.95938562e+00  4.13493706e+00
 -2.84644822e-01 -1.95938562e+00  4.13493706e+00 -2.84644822e-01
Total Energy                               R     -2.312406569456942e+02
Alpha Orbital Energies                     R   N=         100
 -1.91350385e+01 -1.02728543e+01 -1.02231339e+01 -1.01975442e+01 -1.01899105e+01
 -1.03922696e+00 -8.10451392e-01 -7.16974044e-01 -6.28517285e-01 -5.33848423e-01
 -4.97213980e-01 -4.40511127e-01 -4.31976277e-01 -4.21932504e-01 -3.85446838e-01
 -3.78466467e-01 -3.75713019e-01 -2.74052956e-01 -2.49131704e-01 -6.51958128e-02
  5.22608737e-02  6.37636139e-02  8.96797419e-02  1.05015151e-01  1.29555762e-01
  1.46057864e-01  1.57709921e-01  2.16605428e-01  2.62281813e-01  3.22774762e-01
  3.39463362e-01  4.32893497e-01  4.38019660e-01  4.51021290e-01  4.74600247e-01
  4.85129218e-01  5.06809113e-01  5.26486422e-01  5.64096110e-01  5.99704984e-01
  6.15546394e-01  6.27237291e-01  6.38956223e-01  6.49873587e-01  6.68157809e-01
  6.84496244e-01  7.02533191e-01  7.69102755e-01  8.20548426e-01  8.52195743e-01
  9.12390319e-01  9.35426584e-01  9.59766183e-01  1.01050179e+00  1.02378451e+00
  1.04182763e+00  1.07989154e+00  1.14840588e+00  1.18535649e+00  1.19228208e+00
  1.29247131e+00  1.36224973e+00  1.39544745e+00  1.47038411e+00  1.48122804e+00
  1.49478050e+00  1.54743888e+00  1.56551407e+00  1.62033179e+00  1.62768076e+00
  1.65427745e+00  1.66084343e+00  1.67006999e+00  1.69257753e+00  1.73178338e+00
  1.75077602e+00  1.78456818e+00  1.80397797e+00  1.84987006e+00  1.92427125e+00
  1.96671875e+00  1.97228328e+00  2.01656859e+00  2.05985436e+00  2.10279960e+00
  2.23961959e+00  2.31547786e+00  2.33775108e+00  2.40155384e+00  2.41457452e+00
  2.42326268e+00  2.48656094e+00  2.57531531e+00  2.64804532e+00  2.69650719e+00
  2.78947863e+00  2.97876854e+00  3.06612950e+00  3.41916895e+00  3.47735073e+00
Alpha MO coefficients                      R   N=       10000
 -6.29504177e-05 -1.33836952e-04  3.94177063e-05  6.24504241e-05  3.96061983e-05
  1.46638282e-05 -2.09643674e-05 -9.06390711e-05  1.76671009e-04  6.43799911e-05
  3.50442573e-05  4.40152078e-05  6.98407869e-05 -1.00762337e-04 -2.12197713e-04
 -3.77832847e-04  5.52191738e-03 -1.99966834e-05 -1.69320110e-05 -4.54647306e-05
 -1.00671004e-03 -2.32012899e-03  3.88231073e-04 -3.49591016e-05  1.70773642e-05
 -1.33834764e-05 -5.31099793e-05 -5.05148057e-05  2.15453977e-04  3.31803339e-04
 -4.12295611e-03  2.83211275e-05  2.79199332e-04 -1.54854952e-05 -4.60042415e-03
 -3.57132511e-03  2.17716538e-04  1.40023595e-04  3.02811653e-05  7.71332129e-05
 -3.77299842e-04  5.01270379e-04  4.49424486e-04  5.88740650e-04  5.41409611e-03
 -1.01965709e-04 -1.77321450e-04 -2.28635229e-05  6.63675111e-03  5.93734926e-04
  2.23179319e-04 -2.50186557e-05 -1.35757445e-05  6.74408203e-05 -1.15673707e-03
  5.13485367e-04  1.00416996e+00  9.47144291e-03 -1.51262888e-02 -1.83552907e-03
  3.57393930e-04 -9.04481058e-05  3.51022096e-03 -8.43445982e-04  1.59921865e-04
 -1.90994481e-05  4.76230523e-06 -2.24401837e-06  6.67997343e-05  8.76380017e-06
 -1.07367061e-04 -9.52075347e-05  4.46140447e-05  1.43744410e-05  1.11605525e-05
  1.20714732e-04  3.45200184e-04 -7.14052019e-05 -7.36043107e-05  3.88503607e-05
 -9.03809740e-05 -2.50600962e-04  6.40776188e-05  5.72668129e-05  5.38906513e-05
 -1.50283488e-04  9.17564536e-04 -7.65131588e-04  1.11097005e-04 -1.87245413e-05
 -2.69939975e-04 -1.33715768e-03  1.89489602e-04  2.57759851e-04  4.46202612e-06
 -1.84245062e-04  2.41083769e-04  4.55996481e-05  8.51138598e-05 -2.22652213e-05
 -3.62228654e-04 -4.77090509e-04  8.96630515e-04  2.91396951e-04  6.62949641e-05
 -1.96210444e-06 -6.22679880e-04  1.14987975e-04  5.03798010e-05 -7.13307195e-06
 -5.02511422e-05  1.50235060e-05 -1.22636895e-04 -4.61428496e-05 -4.27217920e-04
 -6.28769805e-04  6.61882094e-03 -2.68969101e-04 -2.46123037e-05  3.73958652e-05
 -2.23391143e-03 -3.88092419e-03  4.74080107e-04 -4.14242343e-04 -1.51164817e-04
 -7.97328167e-05  3.12490611e-04  3.70741375e-04  1.62387912e-03 -2.43518672e-04
 -2.05955560e-03 -3.46784511e-04  7.54195621e-04  2.38062480e-05 -2.62956062e-03
 -6.07973259e-03  3.54766644e-04  1.04699123e-03 -1.87206850e-05  1.19237367e-05
  1.13717031e-03  8.53835797e-04  1.00593245e+00  1.52642007e-02 -1.07597951e-02
  7.29861311e-04 -4.92524067e-04 -4.02236910e-05  5.43662598e-03 -2.07910470e-03
  1.02453864e-04 -1.63747247e-03  2.43384212e-04  1.27422009e-04  8.29261308e-04
  1.07874910e-05  3.67179789e-04  9.11689967e-04 -5.94174636e-03  7.40606632e-04
 -2.13444113e-04  1.66598033e-05  3.39530534e-03 -2.15245306e-04  1.64485894e-04
  5.65474634e-04 -6.16508228e-05 -5.67989060e-06 -7.18801483e-04  2.58693143e-04
 -1.03194061e-04 -2.29330084e-05  5.34976643e-05  2.03299462e-05 -1.54192305e-05
 -4.69137652e-05  3.41175453e-04 -5.64410942e-05 -3.29103603e-05  4.31410922e-06
 -5.62173353e-05 -2.97198165e-05  9.80799793e-05  4.27245786e-05 -3.94924984e-05
 -1.66730243e-03  2.47483330e-03 -1.43657065e-03 -1.45560484e-03 -1.81884425e-04
 -5.11182169e-04 -4.81901271e-04  5.21476745e-05  3.13280457e-04 -2.56824656e-05
 -3.31826548e-05  6.17539890e-04  2.32097735e-04  1.04903311e-04 -2.54277241e-05
  3.13370551e-03 -4.28004288e-04  4.44259122e-03  7.26889073e-04  5.97036019e-05
  6.25818023e-05 -2.42917632e-03 -9.22898970e-04 -4.02693752e-04  8.00083204e-04
  7.69086620e-05  1.73565332e-05 -9.98919160e-04 -1.89229651e-05  1.00631823e+00
  1.61230744e-02 -2.01264047e-02 -5.20888622e-04  2.14701905e-04  5.64253113e-06
 -2.28845845e-03  3.81910585e-03 -2.95653490e-04 -1.05865861e-03  6.64348246e-05
 -2.17055444e-04 -5.44315674e-04 -3.58794558e-04  1.28277765e-02 -1.25615760e-03
  4.85406330e-03 -7.39266140e-04 -1.08158762e-03  1.34345039e-04  2.73557937e-03
  2.48611613e-03 -2.62121298e-04  8.74140921e-04  1.15583144e-04  2.38797545e-04
  5.28657852e-04 -9.66610992e-04 -2.67390345e-04 -5.31363666e-04  1.01413005e-03
 -2.62579644e-05 -2.10701728e-04  3.09057752e-05 -3.47053867e-04  1.01017153e-03
 -3.71025123e-05 -3.28139279e-04 -6.72978955e-05 -9.56366609e-06  1.75280385e-04
 -3.41222898e-05 -3.40576840e-05 -7.27325397e-05 -1.46097956e-04  1.21612826e-04
  9.49903712e-06  1.76040300e-05 -1.03924649e-04 -3.10253913e-04  1.79556863e-05
  1.12966823e-05 -2.22835232e-05  4.12192656e-06  2.65109214e-07  2.14299859e-05
 -4.36640568e-04  3.11237614e-04 -7.23802551e-05  1.16636261e-05  6.82354237e-05
 -3.12573877e-04  2.41026799e-04  1.15413549e-04  4.64518825e-05  7.22073955e-05
 -4.81080320e-04  1.17610424e-03 -1.55480468e-04  9.85518401e-06  1.90560415e-05
 -6.14045574e-05  3.62638712e-04  4.78634361e-05 -6.52496004e-05 -1.17562212e-05
  1.35901831e-04  9.45489814e-04  1.41868141e-04 -2.47812606e-04  2.28343584e-07
 -2.41301368e-03  1.12149298e-03 -1.22726346e-03  1.79583799e-03 -1.43924673e-04
  1.23193387e-03  4.47195537e-04 -1.01010805e-04 -1.02659823e-04 -1.28366494e-04
  9.60488468e-05  7.91941788e-04 -1.06398350e-05 -2.37105332e-04  3.05670997e-04
  3.32001236e-05  3.15656554e-05 -5.29376380e-05  1.54433231e-04  1.43089254e-02
  1.75364376e-03 -6.47155177e-03 -5.91014752e-04 -1.20212093e-03  1.34883884e-04
  6.02466344e-04  3.90476233e-03 -1.80203284e-04 -9.19202469e-04 -1.40836172e-04
 -2.32310635e-04 -5.70306794e-04  9.58528677e-04 -1.00648423e+00 -1.65461630e-02
  2.13052612e-02  3.27219797e-04 -2.67632187e-04  1.00262975e-04  5.44073202e-03
  2.99621557e-04 -6.53033137e-04  1.08103919e-03  1.64325941e-04  9.77533495e-05
 -4.26175517e-04 -4.32878878e-04  1.93804435e-03  7.86620015e-04 -5.75089336e-03
 -2.60272333e-04  7.20711564e-04  3.38677816e-05 -4.59000665e-04 -3.48587123e-03
  4.60680734e-05 -6.98570363e-04 -1.16802139e-04  1.71794224e-05 -5.90176371e-04
 -1.20814797e-03 -4.12418851e-05 -7.14119685e-05  8.23090476e-04 -2.19620405e-05
  6.74358218e-05  3.46519296e-05  1.14139116e-04  6.29141654e-04 -4.99848770e-05
  1.28230589e-04 -3.99122130e-05 -1.44831728e-05 -7.75274543e-05 -2.21491947e-04
  1.35979812e-04 -3.40505825e-04 -2.52551996e-05 -7.16349466e-05  5.57249401e-05
 -4.61947677e-05 -3.12446021e-04 -3.97507972e-05  5.71439175e-05  2.46865526e-05
  3.25152219e-05 -1.59026744e-04 -4.69200143e-05 -7.63976942e-05  1.34491579e-04
  2.72253797e-04 -9.85046578e-04 -7.62372946e-05  2.00615533e-04 -3.14663336e-05
  2.48122519e-03 -7.97368955e-04  2.16341761e-03 -1.23560607e-04 -8.54164969e-05
 -1.07254092e-04 -9.15701373e-04 -2.77347294e-04  3.57207046e-05 -2.24738053e-05
  1.00701235e+00  1.74851541e-02 -1.92806847e-02  4.37583056e-04  9.14927855e-05
  1.65281909e-04  2.87055758e-03  3.27157625e-04 -4.83285934e-04  2.34015778e-04
  2.78307718e-06 -1.26550531e-04 -5.95848427e-04 -1.26962174e-05 -3.34325439e-03
 -2.71946335e-04  1.67912408e-03 -4.96340713e-04  5.31272296e-05  4.68082248e-06
  4.21613605e-03  2.34853398e-03 -2.38068298e-04  6.28519076e-04  9.90519765e-05
 -3.19453155e-06 -1.34260906e-03 -4.54762654e-04  5.87720255e-04 -6.28543717e-04
  3.59279072e-03 -2.25843892e-04  5.59361593e-05 -4.71172813e-07  1.11866196e-03
  2.56916364e-03 -3.03642084e-04 -3.63429734e-04  2.34426073e-05 -8.32985992e-05
 -4.66354325e-04 -2.11248170e-04 -1.20340625e-04 -4.96133185e-04  4.59753491e-04
 -5.95940603e-05 -2.76341099e-04 -2.90183385e-05 -1.41756279e-04  5.03292245e-04
  1.01072779e-04 -3.23863322e-05 -2.44137564e-05 -1.94018065e-05  3.35084841e-05
  4.25070552e-05 -9.40472032e-05 -1.84424038e-04  2.72845734e-04  2.08273197e-05
 -1.19027820e-04 -1.59918114e-05 -1.85733391e-04  2.56170559e-04  4.76519994e-05
 -5.29594118e-05  1.85639269e-06  3.94458465e-06  1.89665672e-07 -1.81686619e-06
 -1.12020484e-03  1.98250102e-03  6.37254013e-04 -1.45546239e-03 -9.59671348e-04
 -1.46011138e-03  1.83771977e-03  5.46764239e-04  1.80816086e-03 -7.75723036e-04
 -1.11509715e-03  2.36985971e-03  5.15665381e-04 -1.64875946e-04  1.83786895e-03
  2.22424281e-05  3.97482669e-04  8.02497620e-06  6.56215464e-05 -1.23146350e-05
  3.98691750e-05  4.50400543e-04  7.23792057e-05 -1.95373375e-04  2.19524386e-05
 -4.12937633e-04  1.53124948e-04 -3.86585950e-04 -1.48415759e-04  2.06262388e-05
 -4.90279660e-04  7.47356096e-03  5.44889037e-03 -3.24923378e-03 -3.60154784e-03
 -5.61582664e-05 -2.93512378e-03 -1.81709589e-03  8.33099270e-04 -6.86705386e-04
 -1.51098647e-04 -1.74070065e-04  1.12055818e-04  8.90232439e-04  5.39151806e-04
  1.68029052e-02 -1.24766962e-02  2.11262328e-04 -1.06347308e-02  9.27676212e-04
 -2.08928306e-03  9.61891951e-03 -1.00458952e-03 -4.75850373e-04 -1.77776849e-04
 -3.90665073e-04 -1.53633085e-03  7.54606865e-04 -3.67359017e-03  3.62572154e-02
  3.21186952e-02  2.10517557e-02 -1.97228243e-02 -3.13353050e-04  2.00032537e-02
  1.68964808e-03 -1.31315576e-03 -3.78540679e-03 -1.91756844e-04 -2.64065994e-04
 -4.38925516e-04 -9.07281382e-03 -1.46655149e-02  2.24460907e-01  9.43592810e-02
  1.84335835e-01 -2.47229379e-02  7.32093133e-03  1.23335115e-02 -2.64482532e-03
  1.02580304e-03 -1.36907146e-02  1.68854634e-03 -1.33806246e-03  3.13002002e-02
 -1.36943834e-02 -9.17764296e-03  4.02190573e-01  3.60710057e-01 -1.55083323e-01
  3.11490481e-02 -6.70855266e-03 -3.17266214e-02  7.33247408e-03 -1.96726540e-03
 -5.31814499e-03  7.55148379e-04 -6.69839665e-04  1.21028047e-02 -5.00936582e-03
  6.46219357e-03  3.53768567e-03 -6.70793736e-04 -4.49974761e-04  6.58164060e-04
  1.05907218e-03 -3.12544118e-04  2.88469876e-05 -1.96092731e-05 -6.49347266e-05
  2.43361819e-03  8.54406260e-04 -3.09802535e-04 -3.04686718e-04 -5.18056482e-04
  3.99579922e-02 -3.40553705e-03  1.00852694e-02  6.06055119e-03  9.29652035e-04
  7.08476594e-03  6.08297270e-03  9.43504231e-04 -1.92948954e-03 -6.37936770e-05
  1.85288826e-03 -3.14719048e-03 -1.82907595e-04 -8.43283039e-04  1.12265294e-04
  1.11821244e-02 -1.80940844e-01 -7.44073628e-02  6.67578311e-02  1.29454525e-02
 -4.36965117e-03  2.62763218e-03 -8.58551529e-03  1.79209351e-03  5.74402996e-03
  5.84895902e-04 -7.62493315e-05 -9.99210367e-03 -3.23145465e-03  1.99122550e-02
 -2.90169736e-01 -2.03099984e-01 -3.25772086e-03  6.93250346e-02 -6.93637198e-03
 -3.23137663e-02  2.39051572e-02 -2.41175630e-03  1.00146475e-02  1.09265652e-03
  1.49886000e-03 -2.42420040e-03 -1.04330113e-02  1.71469477e-02 -2.54239505e-01
 -1.39539263e-01 -5.89557298e-02 -5.72750198e-02  1.09674578e-02 -2.48576246e-03
 -2.22377410e-02  2.91367007e-03  6.90921182e-03  1.21776606e-03  1.65187394e-03
  8.79364389e-03 -8.78292518e-03  2.54168152e-03 -6.43045063e-02 -5.15191065e-02
  7.14047102e-02 -8.04751559e-02  2.79225849e-03  2.42833657e-02 -2.26772857e-02
 -2.14535399e-04  2.69945751e-03  5.28560400e-04 -8.79230565e-05  1.34386777e-02
  3.09560112e-03 -3.42233786e-04  7.64175839e-02  7.33272049e-02 -1.19575259e-02
 -1.65019036e-02 -6.38706175e-05  1.34172909e-03 -7.08753547e-03  5.92486432e-04
  1.77547509e-04  3.62872284e-05  9.09133733e-05  1.67362734e-03  1.60243807e-03
 -6.68319498e-02 -2.73391602e-03  4.83949067e-03 -7.52280724e-03 -5.20383881e-03
 -6.13953358e-02 -1.23309037e-03  4.57380620e-03  8.41609544e-03 -3.59157898e-03
 -6.84536342e-02 -3.45141512e-03  4.49873347e-03  1.64077057e-05  9.17665317e-03
 -1.84344085e-02  4.16987033e-04  5.24330778e-05 -3.45287679e-03 -6.59126526e-05
 -8.33266222e-02 -2.41296818e-03 -1.42118376e-02 -1.73318252e-03  1.00861479e-03
 -9.97257476e-02 -1.33364099e-02 -7.01760542e-03  1.39027855e-02 -1.14856004e-03
  1.43441900e-02 -2.85217275e-01 -1.20132973e-01  1.86859414e-02 -9.92677084e-03
 -4.08904999e-03 -1.65118721e-02 -7.40695277e-03 -6.91192303e-05  1.48916647e-03
 -4.03263322e-05 -1.47424081e-04 -2.96458676e-03  2.28359059e-03  5.39058581e-03
 -5.05658720e-02 -8.65398653e-02 -1.37869021e-01 -9.12521967e-02  8.75475431e-03
 -9.13738912e-02 -6.83957703e-03  2.07758685e-03  3.87331617e-03 -1.68091992e-04
 -8.74040760e-04 -1.75235674e-02  3.84547267e-03 -1.38604422e-02  2.27558452e-01
  1.67699066e-01 -6.02830574e-03 -5.85309738e-02 -2.42656048e-03  3.58947730e-02
 -3.84959578e-02 -1.03817502e-03 -4.62514504e-03  1.64345811e-06  1.04329122e-04
 -9.80816995e-03 -5.70806083e-03 -3.13804383e-03  1.56076495e-01  6.61767553e-02
 -1.09388485e-01  7.59897514e-02 -2.00188074e-03 -3.81776421e-02  8.10124100e-03
 -1.55174191e-03 -1.66359812e-03 -4.67927810e-04  1.22424357e-04 -9.74056792e-03
 -5.75238739e-03 -2.51181841e-04 -8.40119029e-02 -8.38148668e-02 -2.04425090e-02
  7.92833815e-03  9.74042752e-04 -2.12912541e-02  2.23943429e-03 -2.13890878e-04
 -9.65917983e-04  1.04001830e-04  2.11905637e-04  1.11791715e-03 -2.00604937e-03
 -1.21213542e-01 -1.68347258e-02  6.87269176e-03 -1.27372715e-02 -8.26776819e-03
 -1.33971047e-01 -1.62582662e-02  5.54381065e-03  1.56547258e-02 -7.13231230e-03
 -1.30092458e-01 -1.61775251e-02  6.04866332e-03 -1.79693335e-03  1.62300460e-02
  7.33598055e-02  2.93579199e-03  3.58757157e-03  8.90907364e-03  8.33194908e-04
  1.15651670e-01  2.30933065e-02  1.46552004e-02 -1.22965601e-03 -8.89541225e-04
 -2.94046111e-02 -1.63984995e-02 -4.11341207e-03  8.31916538e-04 -3.21977638e-05
  5.57562540e-03 -1.77872272e-01 -9.73838395e-02 -7.48625696e-02 -4.73860147e-03
 -3.32129384e-03 -3.86939474e-02 -6.19466961e-03  6.23024522e-03 -4.98633158e-03
 -7.23672012e-04 -2.05152330e-04  7.39125581e-03  8.05573421e-04 -5.25663152e-03
  2.10748121e-01  9.95118022e-02 -1.40980798e-01 -1.40904739e-02  5.94563814e-03
 -4.29316508e-02  3.53295391e-04 -7.63148346e-04  2.73611379e-03 -1.07053106e-03
 -6.72659391e-04 -5.36786992e-03  3.58326610e-03 -1.40350936e-03  1.75013469e-03
  1.27446436e-02  8.86627152e-03  2.47463958e-01 -1.06345718e-02  5.92950554e-03
  7.63242023e-02 -2.53453481e-03  6.72555517e-04 -3.99174362e-04 -2.68192155e-03
  1.56974225e-03  1.13181884e-02  2.46575441e-03 -2.33670894e-01 -1.52476171e-01
  1.55212497e-01 -2.62376331e-02  6.40641226e-03  4.73958407e-02 -1.87436806e-02
  1.57288886e-03 -1.12415781e-03  9.20139786e-04 -4.30128019e-04  5.82749403e-03
  1.65170038e-03  9.99276788e-04  1.22436206e-01  1.42924949e-01  5.22452106e-02
 -9.95636999e-03  3.10665340e-03  3.97905527e-02 -6.27655815e-03  2.46492493e-03
  2.55239977e-03 -2.77963613e-04  2.61033381e-05 -2.31092235e-03  6.48504627e-04
 -1.00903473e-01 -7.83736272e-03  3.48826113e-03 -1.00367648e-02 -5.85265831e-03
 -1.04372624e-01 -1.61292251e-02  1.77880711e-03  1.06201748e-02 -5.12244506e-03
 -1.07457482e-01 -2.05313289e-02  3.17005303e-03 -9.57759180e-04  1.13138141e-02
 -1.58515135e-01 -2.85816327e-02 -7.97193572e-03 -1.41558917e-02 -1.50303068e-03
 -4.55428827e-03 -4.13938573e-04 -2.45757791e-04  4.97125563e-03 -2.09357685e-04
  1.47953216e-01  2.53484862e-02  6.78310544e-03 -1.49994554e-02  1.48552752e-03
  1.60325160e-03 -4.52363783e-02 -3.62568314e-02 -1.16912438e-01  8.84197844e-02
 -7.50874267e-03 -3.32002879e-02  3.70898419e-02 -5.10933780e-03 -5.27129422e-03
  4.17675170e-04 -1.60067161e-03  9.56398512e-03 -6.19096768e-03 -2.43514967e-03
  1.43374486e-01  1.00906131e-01  6.69096001e-04  2.22944472e-01 -2.39283625e-02
  2.65776190e-02  6.88454095e-02 -7.60304765e-03  4.01050325e-03  1.19423590e-03
  1.04965966e-03  6.33083504e-04 -6.58413122e-03  2.90057725e-03 -1.53548713e-01
 -1.07084978e-01 -1.63507974e-02  2.02156620e-04 -6.43003114e-03 -2.06620210e-02
  3.04955771e-02 -4.98138583e-03 -3.97526686e-03  1.51639501e-04 -5.95184299e-04
 -1.34016033e-02  1.27850987e-03  6.59377511e-04  1.58932586e-01  1.21830790e-01
 -6.04656114e-02 -2.36904583e-01 -1.56692186e-02 -4.77947314e-02 -5.28511461e-02
 -3.89550642e-03  5.24228687e-03  3.82963686e-04 -8.16839176e-05 -2.23297468e-04
  1.22521181e-03  3.68517760e-04 -8.71331669e-02 -1.21862296e-01 -1.41893247e-01
 -1.09912935e-01 -8.70284506e-03 -8.36627986e-02 -6.06730509e-02 -4.90704510e-03
 -3.54392746e-03  1.19672309e-03  5.78684894e-04  8.93932806e-03  6.73094089e-03
 -1.08224578e-01 -3.50663427e-02  1.73624527e-03 -4.68175231e-03 -6.04845451e-03
  2.93694479e-03 -4.56406856e-03 -3.36197865e-03  2.16977126e-03 -2.39663925e-05
 -6.43046410e-02 -1.97537521e-02 -7.14056015e-04  2.38495566e-03  5.94299409e-03
  2.28792213e-01  5.98766608e-02  1.17291076e-02  1.27866528e-02  1.81641349e-03
 -8.42796898e-02 -3.04780534e-02 -8.65047468e-03 -7.76432622e-04  3.98510872e-04
  2.17413639e-01  6.47887523e-02  1.08207716e-02 -1.22892917e-02  9.54478421e-04
  2.74493807e-03 -4.84989570e-02 -4.91325410e-02 -1.47734439e-01 -9.81226548e-02
  5.52135892e-03 -3.36851130e-02 -4.10820792e-02 -2.86639942e-03 -5.22649965e-03
 -8.27333801e-04  2.14260919e-03  7.54907097e-03  4.45746586e-03  8.40256917e-04
  8.63588912e-02  5.56415904e-02  1.39225512e-01 -1.14438619e-01  1.57928327e-03
  8.49338719e-02 -3.04962571e-02 -1.63063867e-03  1.68261127e-03  1.59710834e-03
  5.89205325e-04 -9.79554199e-03 -1.06831053e-02  5.62691331e-03 -7.21999691e-02