Generated by Psi4
        SP                           RHF                       CC-PVDZ
Number of atoms                            I               11
Charge                                     I                0
Multiplicity                               I                1
Number of electrons                        I               38
Number of alpha electrons                  I               19
Number of beta electrons                   I               19
Number of basis functions                  I              100
Number of independent functions            I              100
Atomic numbers                             I   N=          11
           6           6           6           6           8           1
           1           1           1           1           1
Nuclear charges                            R   N=          11
  6.00000000e+00  6.00000000e+00  6.00000000e+00  6.00000000e+00  8.00000000e+00
  1.00000000e+00  1.00000000e+00  1.00000000e+00  1.00000000e+00  1.00000000e+00
  1.00000000e+00
Current cartesian coordinates              R   N=          33
  1.85913247e+00  2.39353251e+00 -1.34022933e-01 -9.29571293e-01  2.35477948e+00
 -6.87779657e-02 -2.16872418e+00  1.44760598e-01  3.94515077e-01 -7.67915635e-01
 -2.20556320e+00  7.44004413e-02  1.53586048e+00 -2.44065435e+00 -1.61336657e-01
  2.28324187e+00  4.88517143e-01 -8.20648383e-01  2.65264814e+00  4.14338170e+00
 -9.40252985e-01  2.73198699e+00  2.02700713e+00  1.74304375e+00 -1.90356590e+00
 -3.92979841e+00 -2.32857481e-01 -4.22747941e+00  2.75055483e-02  4.21709748e-01
 -2.01411061e+00  3.97862855e+00 -7.79046005e-01
Integer atomic weights                     I   N=          11
          12          12          12          12          16           1
           1           1           1           1           1
Real atomic weights                        R   N=          11
  1.20000000e+01  1.20000000e+01  1.20000000e+01  1.20000000e+01  1.59949146e+01
  1.00782503e+00  1.00782503e+00  1.00782503e+00  1.00782503e+00  1.00782503e+00
  1.00782503e+00
Number of primitive shells                 I              140
Number of contracted shells                I               48
Pure/Cartesian d shells                    I                0
Pure/Cartesian f shells                    I                0
Highest angular momentum                   I                2
Largest degree of contraction              I                8
Shell types                                I   N=          48
           0           0           0           1           1          -2
           0           0           0           1           1          -2
           0           0           0           1           1          -2
           0           0           0           1           1          -2
           0           0           0           1           1          -2
           0           0           1           0           0           1
           0           0           1           0           0           1
           0           0           1           0           0           1
Number of primitives per shell             I   N=          48
           8           8           1           3           1           1
           8           8           1           3           1           1
           8           8           1           3           1           1
           8           8           1           3           1           1
           8           8           1           3           1           1
           3           1           1           3           1           1
           3           1           1           3           1           1
           3           1           1           3           1           1
Shell to atom map                          I   N=          48
           1           1           1           1           1           1
           2           2           2           2           2           2
           3           3           3           3           3           3
           4           4           4           4           4           4
           5           5           5           5           5           5
           6           6           6           7           7           7
           8           8           8           9           9           9
          10          10          10          11          11          11
Primitive exponents                        R   N=         140
  6.66500000e+03  1.00000000e+03  2.28000000e+02  6.47100000e+01  2.10600000e+01
  7.49500000e+00  2.79700000e+00  5.21500000e-01  6.66500000e+03  1.00000000e+03
  2.28000000e+02  6.47100000e+01  2.10600000e+01  7.49500000e+00  2.79700000e+00
  5.21500000e-01  1.59600000e-01  9.43900000e+00  2.00200000e+00  5.45600000e-01
  1.51700000e-01  5.50000000e-01  6.66500000e+03  1.00000000e+03  2.28000000e+02
  6.47100000e+01  2.10600000e+01  7.49500000e+00  2.79700000e+00  5.21500000e-01
  6.66500000e+03  1.00000000e+03  2.28000000e+02  6.47100000e+01  2.10600000e+01
  7.49500000e+00  2.79700000e+00  5.21500000e-01  1.59600000e-01  9.43900000e+00
  2.00200000e+00  5.45600000e-01  1.51700000e-01  5.50000000e-01  6.66500000e+03
  1.00000000e+03  2.28000000e+02  6.47100000e+01  2.10600000e+01  7.49500000e+00
  2.79700000e+00  5.21500000e-01  6.66500000e+03  1.00000000e+03  2.28000000e+02
  6.47100000e+01  2.10600000e+01  7.49500000e+00  2.79700000e+00  5.21500000e-01
  1.59600000e-01  9.43900000e+00  2.00200000e+00  5.45600000e-01  1.51700000e-01
  5.50000000e-01  6.66500000e+03  1.00000000e+03  2.28000000e+02  6.47100000e+01
  2.10600000e+01  7.49500000e+00  2.79700000e+00  5.21500000e-01  6.66500000e+03
  1.00000000e+03  2.28000000e+02  6.47100000e+01  2.10600000e+01  7.49500000e+00
  2.79700000e+00  5.21500000e-01  1.59600000e-01  9.43900000e+00  2.00200000e+00
  5.45600000e-01  1.51700000e-01  5.50000000e-01  1.17200000e+04  1.75900000e+03
  4.00800000e+02  1.13700000e+02  3.70300000e+01  1.32700000e+01  5.02500000e+00
  1.01300000e+00  1.17200000e+04  1.75900000e+03  4.00800000e+02  1.13700000e+02
  3.70300000e+01  1.32700000e+01  5.02500000e+00  1.01300000e+00  3.02300000e-01
  1.77000000e+01  3.85400000e+00  1.04600000e+00  2.75300000e-01  1.18500000e+00
  1.30100000e+01  1.96200000e+00  4.44600000e-01  1.22000000e-01  7.27000000e-01
  1.30100000e+01  1.96200000e+00  4.44600000e-01  1.22000000e-01  7.27000000e-01
  1.30100000e+01  1.96200000e+00  4.44600000e-01  1.22000000e-01  7.27000000e-01
  1.30100000e+01  1.96200000e+00  4.44600000e-01  1.22000000e-01  7.27000000e-01
  1.30100000e+01  1.96200000e+00  4.44600000e-01  1.22000000e-01  7.27000000e-01
  1.30100000e+01  1.96200000e+00  4.44600000e-01  1.22000000e-01  7.27000000e-01
Contraction coefficients                   R   N=         140
  6.91583963e-04  5.32579615e-03  2.70607210e-02  1.01656846e-01  2.74574824e-01
  4.48294319e-01  2.84902611e-01  1.51948592e-02 -2.93269653e-04 -2.31803547e-03
 -1.14997860e-02 -4.68267270e-02 -1.28466169e-01 -3.01266272e-01 -2.55630702e-01
  1.09379336e+00  1.00000000e+00  5.69792516e-02  3.13207212e-01  7.60376742e-01
  1.00000000e+00  1.00000000e+00  6.91583963e-04  5.32579615e-03  2.70607210e-02
  1.01656846e-01  2.74574824e-01  4.48294319e-01  2.84902611e-01  1.51948592e-02
 -2.93269653e-04 -2.31803547e-03 -1.14997860e-02 -4.68267270e-02 -1.28466169e-01
 -3.01266272e-01 -2.55630702e-01  1.09379336e+00  1.00000000e+00  5.69792516e-02
  3.13207212e-01  7.60376742e-01  1.00000000e+00  1.00000000e+00  6.91583963e-04
  5.32579615e-03  2.70607210e-02  1.01656846e-01  2.74574824e-01  4.48294319e-01
  2.84902611e-01  1.51948592e-02 -2.93269653e-04 -2.31803547e-03 -1.14997860e-02
 -4.68267270e-02 -1.28466169e-01 -3.01266272e-01 -2.55630702e-01  1.09379336e+00
  1.00000000e+00  5.69792516e-02  3.13207212e-01  7.60376742e-01  1.00000000e+00
  1.00000000e+00  6.91583963e-04  5.32579615e-03  2.70607210e-02  1.01656846e-01
  2.74574824e-01  4.48294319e-01  2.84902611e-01  1.51948592e-02 -2.93269653e-04
 -2.31803547e-03 -1.14997860e-02 -4.68267270e-02 -1.28466169e-01 -3.01266272e-01
 -2.55630702e-01  1.09379336e+00  1.00000000e+00  5.69792516e-02  3.13207212e-01
  7.60376742e-01  1.00000000e+00  1.00000000e+00  7.09645947e-04  5.46727229e-03
  2.78231186e-02  1.04747740e-01  2.82920846e-01  4.48495239e-01  2.70816885e-01
  1.54502916e-02 -3.14443412e-04 -2.48213768e-03 -1.23163554e-02 -5.05389173e-02
 -1.39384903e-01 -3.25077495e-01 -2.29848308e-01  1.09537935e+00  1.00000000e+00
  6.26791663e-02  3.33536566e-01  7.41239642e-01  1.00000000e+00  1.00000000e+00
  3.34987264e-02  2.34800801e-01  8.13682958e-01  1.00000000e+00  1.00000000e+00
  3.34987264e-02  2.34800801e-01  8.13682958e-01  1.00000000e+00  1.00000000e+00
  3.34987264e-02  2.34800801e-01  8.13682958e-01  1.00000000e+00  1.00000000e+00
  3.34987264e-02  2.34800801e-01  8.13682958e-01  1.00000000e+00  1.00000000e+00
  3.34987264e-02  2.34800801e-01  8.13682958e-01  1.00000000e+00  1.00000000e+00
  3.34987264e-02  2.34800801e-01  8.13682958e-01  1.00000000e+00  1.00000000e+00
Coordinates of each shell                  R   N=         144
  1.85913247e+00  2.39353251e+00 -1.34022933e-01  1.85913247e+00  2.39353251e+00
 -1.34022933e-01  1.85913247e+00  2.39353251e+00 -1.34022933e-01  1.85913247e+00
  2.39353251e+00 -1.34022933e-01  1.85913247e+00  2.39353251e+00 -1.34022933e-01
  1.85913247e+00  2.39353251e+00 -1.34022933e-01 -9.29571293e-01  2.35477948e+00
 -6.87779657e-02 -9.29571293e-01  2.35477948e+00 -6.87779657e-02 -9.29571293e-01
  2.35477948e+00 -6.87779657e-02 -9.29571293e-01  2.35477948e+00 -6.87779657e-02
 -9.29571293e-01  2.35477948e+00 -6.87779657e-02 -9.29571293e-01  2.35477948e+00
 -6.87779657e-02 -2.16872418e+00  1.44760598e-01  3.94515077e-01 -2.16872418e+00
  1.44760598e-01  3.94515077e-01 -2.16872418e+00  1.44760598e-01  3.94515077e-01
 -2.16872418e+00  1.44760598e-01  3.94515077e-01 -2.16872418e+00  1.44760598e-01
  3.94515077e-01 -2.16872418e+00  1.44760598e-01  3.94515077e-01 -7.67915635e-01
 -2.20556320e+00  7.44004413e-02 -7.67915635e-01 -2.20556320e+00  7.44004413e-02
 -7.67915635e-01 -2.20556320e+00  7.44004413e-02 -7.67915635e-01 -2.20556320e+00
  7.44004413e-02 -7.67915635e-01 -2.20556320e+00  7.44004413e-02 -7.67915635e-01
 -2.20556320e+00  7.44004413e-02  1.53586048e+00 -2.44065435e+00 -1.61336657e-01
  1.53586048e+00 -2.44065435e+00 -1.61336657e-01  1.53586048e+00 -2.44065435e+00
 -1.61336657e-01  1.53586048e+00 -2.44065435e+00 -1.61336657e-01  1.53586048e+00
 -2.44065435e+00 -1.61336657e-01  1.53586048e+00 -2.44065435e+00 -1.61336657e-01
  2.28324187e+00  4.88517143e-01 -8.20648383e-01  2.28324187e+00  4.88517143e-01
 -8.20648383e-01  2.28324187e+00  4.88517143e-01 -8.20648383e-01  2.65264814e+00
  4.14338170e+00 -9.40252985e-01  2.65264814e+00  4.14338170e+00 -9.40252985e-01
  2.65264814e+00  4.14338170e+00 -9.40252985e-01  2.73198699e+00  2.02700713e+00
  1.74304375e+00  2.73198699e+00  2.02700713e+00  1.74304375e+00  2.73198699e+00
  2.02700713e+00  1.74304375e+00 -1.90356590e+00 -3.92979841e+00 -2.32857481e-01
 -1.90356590e+00 -3.92979841e+00 -2.32857481e-01 -1.90356590e+00 -3.92979841e+00
 -2.32857481e-01 -4.22747941e+00  2.75055483e-02  4.21709748e-01 -4.22747941e+00
  2.75055483e-02  4.21709748e-01 -4.22747941e+00  2.75055483e-02  4.21709748e-01
 -2.01411061e+00  3.97862855e+00 -7.79046005e-01 -2.01411061e+00  3.97862855e+00
 -7.79046005e-01 -2.01411061e+00  3.97862855e+00 -7.79046005e-01
Total Energy                               R     -2.312161225720231e+02
Alpha Orbital Energies                     R   N=         100
 -1.91366069e+01 -1.02728668e+01 -1.02265935e+01 -1.01965373e+01 -1.01764167e+01
 -1.04429608e+00 -8.17238667e-01 -7.17966591e-01 -6.22728035e-01 -5.51395390e-01
 -5.02819534e-01 -4.42760294e-01 -4.39947042e-01 -4.12460900e-01 -3.95139120e-01
 -3.80493005e-01 -3.60324013e-01 -2.75618371e-01 -2.41378094e-01 -6.42090623e-02
  3.89111147e-02  6.37523394e-02  9.55903468e-02  1.08672363e-01  1.27513764e-01
  1.49667170e-01  1.97313063e-01  2.17804952e-01  2.74210056e-01  3.16579319e-01
  3.33963382e-01  4.23292312e-01  4.45479187e-01  4.51366558e-01  4.69778992e-01
  4.84839182e-01  5.15663604e-01  5.27004748e-01  5.68323280e-01  5.81364642e-01
  6.20609235e-01  6.24688575e-01  6.34626499e-01  6.53891082e-01  6.81992655e-01
  6.95303381e-01  7.11363052e-01  7.60733032e-01  7.91094744e-01  8.60917034e-01
  8.94777527e-01  9.25392641e-01  9.60334328e-01  1.02515401e+00  1.05010536e+00
  1.08669485e+00  1.09831471e+00  1.14438586e+00  1.20072954e+00  1.23125232e+00
  1.28788288e+00  1.33954637e+00  1.43179078e+00  1.48485897e+00  1.49488271e+00
  1.51612786e+00  1.55491133e+00  1.56925628e+00  1.60941955e+00  1.63112581e+00
  1.64753647e+00  1.66212667e+00  1.69016642e+00  1.72162036e+00  1.75203446e+00
  1.76202399e+00  1.80074959e+00  1.85271149e+00  1.85691991e+00  1.89026620e+00
  1.94372298e+00  1.97532849e+00  2.02894588e+00  2.04716947e+00  2.14385917e+00
  2.21973127e+00  2.33529243e+00  2.35781571e+00  2.37249728e+00  2.39453509e+00
  2.44518471e+00  2.53799306e+00  2.58882960e+00  2.65957498e+00  2.77454081e+00
  2.91086421e+00  3.05304699e+00  3.08984368e+00  3.40003346e+00  3.48325315e+00
Alpha MO coefficients                      R   N=       10000
 -6.65387930e-06 -1.03376986e-05  6.14411909e-05  1.16950966e-04 -1.04278555e-04
 -1.13564502e-04 -1.44489490e-04 -3.30640176e-04  3.05006024e-04  5.10122298e-05
 -2.51785204e-07  1.37664524e-04  4.09855502e-05 -2.26314240e-04 -1.09028705e-04
 -1.95420821e-04  4.13275474e-03 -1.83055861e-05 -3.55055008e-05 -8.31983374e-05
 -8.51017983e-04 -1.63502627e-03  5.71793524e-04  5.91674294e-06  7.09380700e-05
 -7.35093673e-05 -6.97230917e-05 -7.14651460e-05  2.03632383e-04  3.12181819e-04
 -3.57349814e-03  9.44661817e-06  2.46961838e-04  1.74380057e-05 -4.05235637e-03
 -2.90028892e-03  5.04554777e-04  1.27259771e-04  1.27108235e-04  7.56751969e-05
 -5.14318789e-04  4.15176631e-04  4.35575906e-04  5.94602594e-04  5.95032772e-03
  3.51746343e-05 -1.75255377e-04 -8.06973018e-05  5.83691409e-03  1.17328793e-03
 -5.04186530e-04 -6.17423745e-05  1.27291171e-04  1.61076334e-04 -1.15800647e-03
  4.74299227e-04  1.00422684e+00  9.59859606e-03 -1.51009526e-02 -1.76538946e-03
  3.95414060e-04  1.16891229e-04  3.45416921e-03 -1.09033826e-03 -2.50872901e-04
  4.44701417e-05 -4.45981118e-06  1.30559469e-05  9.50371705e-05  4.03251865e-05
  3.40609768e-05  9.82054218e-05 -1.58610305e-04 -6.86063823e-04  1.48140592e-04
  2.20299494e-04  4.21777990e-04 -7.52142126e-05 -8.44518317e-05  4.90557620e-05
 -1.51864999e-04 -2.90309880e-04  7.06756283e-05  9.21828631e-05  5.48524428e-05
 -4.28709854e-04  7.17576368e-04 -7.31313072e-04 -7.96902849e-05  5.56421354e-05
 -1.95985017e-04 -1.22925491e-03  1.97060868e-04  2.29598592e-04 -3.45412874e-05
 -1.70953882e-04  1.78834219e-04  3.21116970e-05  7.00676283e-05 -4.31856741e-05
 -3.55782713e-04 -4.99622657e-04  1.23486876e-03  2.73543261e-04  1.05332821e-05
 -4.98050277e-05 -7.86925959e-04 -3.24597174e-04 -3.97255775e-05 -1.05209270e-04
 -1.44659618e-04  1.98096203e-05 -8.99543910e-05 -9.36790399e-05 -4.12953336e-04
 -6.33495276e-04  5.13815587e-03 -1.76791125e-04  8.24295425e-07  3.24688183e-05
 -1.92569940e-03 -2.99081896e-03  7.33383621e-04 -3.12475951e-04 -2.29361808e-04
 -7.68261613e-05  1.50543224e-04  1.69874756e-04  1.82385033e-03 -3.26307363e-04
 -1.04295217e-03 -4.09416914e-04  8.67243810e-04  1.27522094e-04 -2.15820882e-03
 -4.97623624e-03  3.88955947e-04  1.01528970e-03  1.80490005e-04 -1.57266576e-04
  7.90549229e-04  1.03052711e-03  1.00598173e+00  1.53838921e-02 -1.02968765e-02
  8.10710791e-04 -4.15593298e-04 -3.51343277e-04  4.92576817e-03 -1.68406933e-03
 -4.86306757e-04 -1.59413344e-03 -1.54257322e-04  4.28251828e-04  6.09692891e-04
  1.32746744e-04  4.36241834e-04  1.00334573e-03 -5.66333498e-03  6.95448142e-04
 -8.94415425e-05 -8.31678787e-05  3.41562946e-03 -7.82060581e-05 -3.47631842e-04
  5.96218274e-04  1.97625636e-04 -4.70202677e-05 -7.68835230e-04  1.20647208e-04
 -7.84770736e-05 -4.15216655e-04 -2.77418507e-04 -2.92083554e-04  5.21490128e-06
 -2.23801540e-05  4.69319450e-04 -3.78509913e-05 -5.78283274e-06  3.11308832e-05
 -6.52778309e-05  1.48899856e-04  7.29921048e-05  8.40295853e-05 -8.47205519e-05
 -1.93176798e-03  2.34761237e-03 -1.34362938e-03 -1.56988735e-03 -2.82537318e-04
 -4.42868064e-04 -4.90223952e-04  9.57224424e-05  2.77263275e-04 -2.73351838e-05
 -7.47270649e-05  3.94177720e-04  1.83485406e-04  1.00140843e-04 -4.95149430e-05
  2.43276535e-03 -4.05666479e-04  4.47023287e-03  7.63150351e-04 -6.62748482e-05
  2.20116624e-05 -2.53757269e-03 -4.21510673e-04  3.92862815e-05  8.12755130e-04
  1.58084919e-04  6.90921256e-05 -9.69908008e-04 -1.29574043e-04  1.00642873e+00
  1.62594894e-02 -2.02263224e-02 -4.54863270e-04  4.13976520e-05 -3.56982618e-04
 -2.31808708e-03  4.02839795e-03 -6.71813677e-04 -7.68265972e-04  3.87846735e-04
 -8.41796503e-04 -4.76205332e-04 -5.54281910e-04  1.00362214e-02 -1.01515835e-03
  4.28193882e-03 -6.14651686e-04 -1.00560276e-03  1.75105039e-04  2.12449915e-03
  2.72752366e-03 -2.53306804e-04  8.69562198e-04  1.42837147e-04  3.73496715e-04
  4.06222728e-04 -1.02082444e-03 -3.39781722e-04 -6.33431918e-04  1.51117825e-03
  3.43674254e-05 -2.06397706e-04  3.32393778e-05 -7.31014878e-04  1.32111713e-03
 -6.87374217e-05 -3.04123149e-04 -1.52638304e-04 -4.85610597e-05  4.17819644e-05
  1.74002704e-04  4.81992232e-07 -4.94780969e-06 -2.00908470e-04  1.20373996e-04
  4.07238695e-05  8.58353705e-07 -2.49682098e-04 -5.36133372e-04  7.51099742e-05
  1.07303139e-05 -2.44720240e-05 -4.37798683e-06  2.35297219e-05  4.16950878e-05
 -3.22753823e-04  9.19832794e-04 -3.42685103e-04 -1.18407314e-04  2.45895386e-05
 -1.69602889e-04  2.03247464e-04  1.51905023e-04 -7.57566822e-05  6.84181628e-05
 -5.37319700e-04  8.49511471e-04 -8.08502421e-05  1.65412218e-05  2.51054086e-05
 -1.69696396e-04  3.23783013e-04  4.60534251e-05 -1.28893956e-04 -3.07784507e-05
  1.89525767e-04  7.16056971e-04  1.95281118e-04 -2.85339174e-04  2.17321364e-05
 -2.54525438e-03  1.10284417e-03 -1.20214831e-03  1.70570839e-03 -8.68287250e-04
  5.59348188e-04  4.79341393e-04 -7.37453475e-04 -1.43096439e-04 -8.72978970e-05
  1.48660051e-04  1.07552363e-03  2.09154208e-04 -5.25851592e-04  2.76926416e-04
  5.26546911e-05  1.22688120e-04  4.22669721e-06  5.88060882e-05  1.11872248e-02
  1.41566954e-03 -5.37701981e-03 -5.52803374e-04 -1.08377695e-03  2.37309274e-04
  1.25255823e-03  2.99614231e-03 -8.68031250e-05 -8.63425958e-04 -2.88051514e-04
 -5.58152973e-04 -6.86263301e-04  8.05579383e-04 -1.00660999e+00 -1.67326943e-02
  2.11318291e-02  2.89502200e-04 -1.24053900e-04  4.56669164e-04  4.86971277e-03
  1.49669521e-04 -1.74148139e-03  1.10044299e-03  7.16739721e-05  8.01345597e-05
 -7.02797384e-04 -4.69159250e-04  2.18344208e-03  7.82411793e-04 -5.76360516e-03
 -3.46873692e-04  6.67894499e-04  1.20029059e-04  5.71911395e-04 -3.35046672e-03
 -2.89427512e-05 -7.20048437e-04 -2.86441398e-04  3.01735062e-04 -5.16668678e-04
 -1.19343217e-03 -1.32358898e-05 -2.21715650e-05  4.64685142e-04 -4.06857681e-05
  1.41805371e-05  4.98108936e-05  1.87360800e-04  7.60283360e-04 -8.60618121e-05
  1.20106562e-04 -1.00686413e-05  4.16492998e-06 -4.80844723e-05 -2.15171928e-04
  1.47841099e-04 -5.11158912e-04  7.79929402e-05  6.45872122e-05  3.72760728e-05
  2.13628608e-06 -4.40275760e-04 -5.35858908e-05  1.50643315e-05  4.76387399e-05
  1.84249372e-04 -1.58304078e-04 -1.03412575e-05 -1.05515047e-04  1.02299544e-04
  2.59774748e-04 -8.19025759e-04 -2.10082945e-04  1.79712041e-04 -2.68277518e-05
  2.53569475e-03 -1.03842017e-03  2.25176718e-03  3.11726598e-05  1.55145977e-04
 -8.57183138e-06 -5.52305663e-04 -3.12486527e-04  9.85914235e-06 -1.48231084e-04
  1.00711896e+00  1.77595067e-02 -1.93268122e-02  2.79622675e-04 -2.81526596e-04
  2.70715714e-04  2.64792869e-03  1.50101721e-03 -5.21514861e-04 -2.37547439e-04
  2.51450564e-04 -4.63187663e-04 -9.47384569e-04  3.28917302e-04 -2.60797729e-03
 -2.59739809e-04  1.94261593e-03 -5.42362320e-04  6.23069060e-05  8.98347626e-07
  3.42574171e-03  1.50770956e-03 -2.37004316e-04  7.33271030e-04  1.83301156e-04
 -3.50021315e-05 -1.27220811e-03 -1.28082881e-04 -9.36399952e-05 -6.13835495e-04
  2.54528456e-03 -2.29433564e-04 -4.55402171e-05 -2.06015991e-05  1.11858200e-03
  2.13548030e-03 -3.24743902e-04 -3.60966602e-04  1.48317917e-05 -1.28439549e-04
 -2.68681669e-04 -1.88439184e-04 -1.94877813e-04 -5.51775709e-04 -1.29844128e-04
 -1.55556969e-04 -2.25064760e-04 -7.59647703e-05 -6.82279133e-04  6.82019229e-04
  2.01760118e-04 -8.03754582e-05 -4.07429769e-05 -4.41939074e-05 -7.31082178e-05
  2.33411677e-04 -7.56819354e-05 -1.37824041e-04  4.45019807e-04  1.11991895e-04
 -2.15659048e-05 -9.80337275e-05 -8.37343948e-04 -1.33500608e-04  4.04663566e-04
 -7.01445540e-05 -9.49740907e-06  6.64328699e-05  4.06131492e-05  8.03769601e-07
 -1.18264145e-03  3.62940833e-03  4.28763287e-04 -1.72254765e-03 -7.79518028e-04
 -1.90480250e-03  1.37588315e-03  8.79091136e-04  1.77809440e-03 -9.92559559e-04
 -9.23102758e-04  2.14742876e-03  5.38994202e-04 -3.25468244e-04  1.75847148e-03
 -5.98246411e-05  3.81556494e-04  1.89751568e-05 -3.38456424e-05 -4.19960518e-05
  2.81936391e-05  4.58849120e-04  1.51690651e-05 -1.51444564e-04  2.36667506e-05
 -2.65385509e-04  2.00662213e-04 -3.31963635e-04 -1.75942115e-04  5.89803630e-05
  1.04453631e-03 -1.66885283e-02 -1.14010653e-03  4.72299022e-03  9.04823879e-03
  7.55731286e-06 -6.42397672e-04 -3.15029720e-03  1.54275584e-03  5.45895293e-04
  3.50415724e-04 -8.63157543e-05 -5.07015502e-04 -5.22401210e-04  4.82813369e-04
 -2.08763047e-02  1.73974417e-03 -2.39364149e-03  1.29477357e-02 -1.17503684e-03
 -1.70194598e-03 -4.77167750e-03  5.53970730e-04  1.20953955e-03  4.52201356e-04
  5.79642262e-04  1.06629153e-03 -3.63162334e-04  4.18143390e-03 -3.82141355e-02
 -3.19166352e-02 -2.43043461e-02  1.73700439e-02  5.09838676e-03 -1.89658160e-02
 -3.72469820e-04  3.78180860e-03  3.80367038e-03  1.96048154e-03 -8.60223577e-04
 -1.50908395e-03  8.79220422e-03  1.50959607e-02 -2.19001413e-01 -8.89780784e-02
 -1.78104353e-01  7.83533949e-03  1.87597926e-02 -1.47295131e-02  8.50909961e-04
  3.89889298e-04  1.38244039e-02  6.80519024e-03  1.66200556e-03 -3.18335714e-02
  7.71326416e-03  9.82294552e-03 -3.99705929e-01 -3.67183235e-01  1.49719338e-01
 -2.57600685e-02 -1.32193767e-02  3.26613281e-02 -1.08690979e-02 -1.75194629e-03
  5.93977405e-03  2.37887317e-03  1.12711747e-03 -1.10384035e-02  3.15115111e-03
 -2.91233701e-02 -5.35478206e-03  2.80867921e-03  1.13696198e-03 -1.97772232e-03
 -2.20414360e-03  2.68288149e-03  3.39359732e-04  5.51705312e-04 -2.31517515e-04
 -6.77153271e-03 -1.97237161e-03  7.20477668e-04  9.09647447e-04  9.24342447e-04
 -4.29271367e-02  2.01751465e-03 -8.98694854e-03 -7.43510505e-03 -7.74669938e-04
 -6.73882950e-03 -5.85899262e-03 -9.60168116e-04  1.77693089e-03  1.14224212e-04
 -2.66126198e-03  1.38199717e-03  8.44756361e-05  8.19484696e-04 -1.36697087e-04
  1.20481471e-02 -1.78609320e-01 -7.37733942e-02  7.26017818e-02  1.72294860e-02
 -6.37616919e-03  1.44169613e-03 -1.07177469e-02  7.22980003e-03  5.77233055e-03
  1.04397704e-03 -3.23618493e-04 -1.08585910e-02 -2.49901815e-03  1.96381919e-02
 -2.85668156e-01 -2.05055902e-01 -1.11165989e-02  7.81988698e-02 -7.42773277e-03
 -2.95035991e-02  3.17829691e-02 -8.56925656e-03  1.05068225e-02  2.41504981e-03
  2.24899430e-03 -1.38347155e-03 -7.38658100e-03  1.76299316e-02 -2.49756963e-01
 -1.30817221e-01 -6.46289951e-02 -5.22824166e-02  2.75203076e-02 -4.19627932e-03
 -1.63030426e-02  6.74776199e-03  6.69224186e-03  3.15974860e-03  3.03436852e-03
  7.78676825e-03 -7.94935287e-03  2.75279785e-03 -6.14127909e-02 -4.76057903e-02
  8.55375281e-02 -8.45411496e-02 -9.72316959e-03  2.28694385e-02 -2.40773761e-02
 -4.73141983e-03  2.94628113e-03 -6.10104115e-04 -1.19412275e-03  1.45216469e-02
  3.53629980e-03 -5.69845995e-04  9.22142137e-02  9.18913419e-02 -1.77054423e-02
 -2.33999889e-02  1.92821461e-03 -1.50758064e-04 -9.38261395e-03 -1.19577184e-05
  5.56180857e-05 -2.75755547e-04 -4.89884581e-04  1.98346786e-03  1.98940694e-03
 -7.44598592e-02  8.47549908e-04  4.07172680e-03 -9.99976761e-03 -4.87719389e-03
 -5.41518555e-02  2.20038029e-03  5.46024641e-03  7.39715226e-03 -3.76041032e-03
 -6.61020370e-02 -5.00794966e-03  5.07889463e-03 -4.91654511e-04  8.25796742e-03
 -1.45841949e-02 -1.31358663e-03  9.88617904e-04 -2.83944154e-03 -1.48285157e-04
 -7.83277390e-02 -2.58140193e-03 -1.34578382e-02 -2.43505592e-03  8.02853133e-04
 -9.30961466e-02 -1.40482201e-02 -6.50430308e-03  1.22567597e-02 -4.57928901e-03
  1.46315267e-02 -2.72474703e-01 -1.17314527e-01  2.37783868e-02  6.61675460e-03
 -7.08447496e-03 -1.36772704e-02 -9.84486028e-03  5.37783741e-03  1.46931728e-03
  2.14633753e-05 -7.61250992e-04 -3.23206192e-03  3.06632101e-03  5.55922759e-03
 -6.07712414e-02 -9.29618930e-02 -1.36656618e-01 -7.77068290e-02  1.59570074e-02
 -7.88936161e-02  3.36296546e-04 -2.39098286e-03  3.49237735e-03 -1.73121885e-04
 -1.20382728e-03 -1.76245375e-02  7.24823153e-03 -1.34706863e-02  2.25078019e-01
  1.63619498e-01 -1.65755461e-03 -7.16488599e-02 -1.45797126e-02  2.88198088e-02
 -2.79444092e-02 -2.52734345e-03 -3.55663269e-03 -3.67602675e-04  2.35952910e-03
 -8.94681509e-03 -8.15433330e-03 -4.17158646e-03  1.82950246e-01  9.51669320e-02
 -1.11462133e-01  5.75963614e-02  1.17096291e-02 -3.88086809e-02  1.12336496e-02
  1.47247250e-03 -2.23116460e-03  3.11842804e-04  1.04247132e-03 -7.61445860e-03
 -9.84633899e-03 -8.37541701e-05 -8.24473343e-02 -8.83072164e-02 -4.15838956e-02
 -1.27130226e-02  6.20383300e-03 -2.79766285e-02 -8.16288757e-03  2.58624811e-03
 -1.02376829e-03 -3.90526017e-04  5.50840402e-04  3.22909252e-03 -1.64135447e-03
 -1.32831143e-01 -2.06734131e-02  5.16074344e-03 -1.25401316e-02 -7.43656486e-03
 -1.17971988e-01 -9.39752574e-03  6.86409336e-03  1.40363403e-02 -7.22912973e-03
 -1.24431038e-01 -1.93524467e-02  6.97917497e-03 -1.87579872e-03  1.46561082e-02
  8.74651055e-02  6.54494634e-03  3.54610017e-03  1.06836006e-02  2.08138225e-03
  1.14435998e-01  1.99546520e-02  1.48617356e-02 -9.35579581e-04 -3.40404958e-04
 -2.98417221e-02 -1.58698682e-02 -4.14036964e-03  6.46438538e-04 -9.07125943e-04
  6.73698955e-03 -1.88600866e-01 -1.07056312e-01 -7.02436101e-02  1.09015118e-02
 -1.54136723e-02 -4.00429120e-02 -3.72757901e-03  4.16602198e-03 -5.41836599e-03
 -9.43360472e-04 -7.12640519e-06  7.21627047e-03  1.17254795e-04 -5.24138537e-03
  2.12809712e-01  1.04438400e-01 -1.57235465e-01 -6.82487598e-03 -2.99850094e-03
 -5.27143029e-02  5.70298545e-03 -2.71916905e-03  3.30898700e-03 -2.33851752e-03
 -1.37369352e-03 -6.19808212e-03  5.54354844e-03 -1.95891124e-03  1.75217273e-02
  3.23885774e-02 -1.13467141e-02  2.39951912e-01 -1.37393249e-02  3.57993855e-03
  7.10230285e-02 -5.45076489e-03  1.09434282e-03 -4.49252850e-04 -7.36167734e-03
 -2.97097974e-04  1.20472516e-02  3.33850477e-03 -2.17922145e-01 -1.50292384e-01
  1.49468402e-01 -1.00807046e-02 -9.58760090e-03  4.44723989e-02 -2.24854846e-02
 -5.84950252e-03 -1.19818738e-03 -1.49468939e-04 -1.16080923e-03  5.94219553e-03
 -4.90497636e-04  1.03261333e-03  1.23062846e-01  1.46243468e-01  4.57268109e-02
 -1.63457458e-02 -2.14052820e-03  3.69160174e-02 -7.58460867e-03 -2.57210792e-03
  2.40760423e-03  2.74887185e-04 -4.78056906e-04 -1.86883090e-03  3.49690935e-04
 -9.77484165e-02 -1.96544539e-03  1.43693618e-03 -1.23132610e-02 -4.99471817e-03
 -1.03477446e-01 -1.39630962e-02  3.13657637e-03  1.07088087e-02 -5.93914784e-03
 -1.21469295e-01 -2.33548223e-02  4.50034243e-03 -1.51680044e-03  1.17126689e-02
 -1.52687964e-01 -3.19124431e-02 -5.82423611e-03 -1.35763226e-02 -2.65804366e-03
  8.25399152e-03  2.64737694e-03  7.01337912e-04  4.84691394e-03 -2.43362397e-04
  1.58407011e-01  2.60013168e-02  6.55904469e-03 -1.49267185e-02  6.44432150e-03
  1.11004643e-04  7.45745119e-03  6.27937036e-04  8.76361388e-02 -1.32812778e-01
  2.19321544e-02  2.40489431e-02 -3.72635543e-02  1.01885675e-02  3.88261423e-03
 -1.46236345e-03  1.98388086e-03 -9.14022772e-03  5.20222516e-03  3.06178767e-03
 -1.42387029e-01 -1.07195352e-01 -1.04216697e-02 -1.99237592e-01  5.90703489e-02
 -2.74266417e-02 -6.32374816e-02  1.34987956e-02 -4.02195700e-03 -1.61132369e-03
 -3.94740139e-04 -4.11458945e-03  1.70927130e-03 -3.13132438e-03  1.43967828e-01
  1.00930870e-01  1.82380720e-02 -5.91540025e-03  6.18600132e-03  2.43516598e-02
 -2.37894505e-02  1.01396535e-02  1.80347108e-03 -4.35249581e-04  1.55999159e-03
  1.09117185e-02 -7.58455441e-04 -1.12529297e-03 -1.56912065e-01 -1.16008110e-01
  1.35678719e-02  2.40202445e-01  3.35376118e-02  2.82520337e-02  5.08710482e-02
  9.07650382e-04 -4.30416909e-03 -1.64030189e-03 -5.31373949e-04 -1.97081241e-03
  4.23016122e-03 -1.39901833e-03  7.71145919e-02  1.20819266e-01  1.57547194e-01
  1.44256378e-01 -6.14435879e-03  8.38888716e-02  8.09189135e-02 -1.05266183e-03
  2.92115381e-03  7.30610490e-05  5.68457054e-05 -9.96446947e-03 -7.13791379e-03
  1.32964490e-01  4.78663000e-02 -4.31091895e-03 -3.19145568e-04  6.57021062e-03
 -5.03426233e-02 -1.15459153e-02  4.32145885e-03  4.43795285e-04 -1.41103063e-03
  5.61944957e-02  1.48023924e-02 -7.05613634e-05 -4.41250682e-03 -4.56416197e-03
 -2.17912994e-01 -5.49759835e-02 -1.03032581e-02 -1.37031779e-02 -3.10985556e-03
  7.68841805e-02  2.76452157e-02  8.05925287e-03  9.13578686e-04 -1.47070008e-04
 -1.99059672e-01 -5.50388910e-02 -1.02811594e-02  1.13100459e-02 -5.78424633e-03
  1.01984860e-03 -6.87182635e-02 -4.32456670e-02 -1.48104096e-01 -8.80854969e-02
 -1.55279335e-03 -3.54109965e-02 -5.05394637e-02 -2.82382761e-03 -6.07503147e-03
 -2.04038416e-03  1.88376079e-03  6.45360577e-03  4.08464413e-03  5.61919518e-04
  8.17498667e-02  6.00924515e-02  1.13281803e-01 -1.09923533e-01  1.18153320e-02
  6.93848657e-02 -3.37451402e-02  1.11162072e-04  1.01335992e-03  6.99405496e-04
  1.28665718e-03 -1.12825770e-02 -1.21304090e-02  6.56580171e-03 -8.64158775e-02