[Molden Format]
[Atoms] (AU)
C    1    6           1.9576326520         2.6238787897        -0.2012313157
C    2    6          -0.8532320829         2.3953032623        -0.1475698401
C    3    6          -2.0988227975         0.1911239695         0.1686066630
C    4    6          -0.8616727336        -2.2971033454         0.0746190366
O    5    8           1.4092964536        -2.7006213838         0.1215496290
H    6    1           2.7628458423         0.9836295830        -1.1929052379
H    7    1           2.6472270878         4.4227935781        -0.9698938768
H    8    1           2.6653080629         2.4227644600         1.7479836338
H    9    1          -2.1983857963        -3.9127811236        -0.1739119042
H   10    1          -4.1602479080         0.1434485226         0.3016173418
H   11    1          -1.9830999758         4.1139609476        -0.3849019048
[GTO]
  1 0
 s    8  1.00
     6665.0000000000         0.0006920000
     1000.0000000000         0.0053290000
      228.0000000000         0.0270770000
       64.7100000000         0.1017180000
       21.0600000000         0.2747400000
        7.4950000000         0.4485640000
        2.7970000000         0.2850740000
        0.5215000000         0.0152040000
 s    8  1.00
     6665.0000000000        -0.0001460000
     1000.0000000000        -0.0011540000
      228.0000000000        -0.0057250000
       64.7100000000        -0.0233120000
       21.0600000000        -0.0639550000
        7.4950000000        -0.1499810000
        2.7970000000        -0.1272620000
        0.5215000000         0.5445290000
 s    1  1.00
        0.1596000000         1.0000000000
 p    3  1.00
        9.4390000000         0.0381090000
        2.0020000000         0.2094800000
        0.5456000000         0.5085570000
 p    1  1.00
        0.1517000000         1.0000000000
 d    1  1.00
        0.5500000000         1.0000000000

  2 0
 s    8  1.00
     6665.0000000000         0.0006920000
     1000.0000000000         0.0053290000
      228.0000000000         0.0270770000
       64.7100000000         0.1017180000
       21.0600000000         0.2747400000
        7.4950000000         0.4485640000
        2.7970000000         0.2850740000
        0.5215000000         0.0152040000
 s    8  1.00
     6665.0000000000        -0.0001460000
     1000.0000000000        -0.0011540000
      228.0000000000        -0.0057250000
       64.7100000000        -0.0233120000
       21.0600000000        -0.0639550000
        7.4950000000        -0.1499810000
        2.7970000000        -0.1272620000
        0.5215000000         0.5445290000
 s    1  1.00
        0.1596000000         1.0000000000
 p    3  1.00
        9.4390000000         0.0381090000
        2.0020000000         0.2094800000
        0.5456000000         0.5085570000
 p    1  1.00
        0.1517000000         1.0000000000
 d    1  1.00
        0.5500000000         1.0000000000

  3 0
 s    8  1.00
     6665.0000000000         0.0006920000
     1000.0000000000         0.0053290000
      228.0000000000         0.0270770000
       64.7100000000         0.1017180000
       21.0600000000         0.2747400000
        7.4950000000         0.4485640000
        2.7970000000         0.2850740000
        0.5215000000         0.0152040000
 s    8  1.00
     6665.0000000000        -0.0001460000
     1000.0000000000        -0.0011540000
      228.0000000000        -0.0057250000
       64.7100000000        -0.0233120000
       21.0600000000        -0.0639550000
        7.4950000000        -0.1499810000
        2.7970000000        -0.1272620000
        0.5215000000         0.5445290000
 s    1  1.00
        0.1596000000         1.0000000000
 p    3  1.00
        9.4390000000         0.0381090000
        2.0020000000         0.2094800000
        0.5456000000         0.5085570000
 p    1  1.00
        0.1517000000         1.0000000000
 d    1  1.00
        0.5500000000         1.0000000000

  4 0
 s    8  1.00
     6665.0000000000         0.0006920000
     1000.0000000000         0.0053290000
      228.0000000000         0.0270770000
       64.7100000000         0.1017180000
       21.0600000000         0.2747400000
        7.4950000000         0.4485640000
        2.7970000000         0.2850740000
        0.5215000000         0.0152040000
 s    8  1.00
     6665.0000000000        -0.0001460000
     1000.0000000000        -0.0011540000
      228.0000000000        -0.0057250000
       64.7100000000        -0.0233120000
       21.0600000000        -0.0639550000
        7.4950000000        -0.1499810000
        2.7970000000        -0.1272620000
        0.5215000000         0.5445290000
 s    1  1.00
        0.1596000000         1.0000000000
 p    3  1.00
        9.4390000000         0.0381090000
        2.0020000000         0.2094800000
        0.5456000000         0.5085570000
 p    1  1.00
        0.1517000000         1.0000000000
 d    1  1.00
        0.5500000000         1.0000000000

  5 0
 s    8  1.00
    11720.0000000000         0.0007100000
     1759.0000000000         0.0054700000
      400.8000000000         0.0278370000
      113.7000000000         0.1048000000
       37.0300000000         0.2830620000
       13.2700000000         0.4487190000
        5.0250000000         0.2709520000
        1.0130000000         0.0154580000
 s    8  1.00
    11720.0000000000        -0.0001600000
     1759.0000000000        -0.0012630000
      400.8000000000        -0.0062670000
      113.7000000000        -0.0257160000
       37.0300000000        -0.0709240000
       13.2700000000        -0.1654110000
        5.0250000000        -0.1169550000
        1.0130000000         0.5573680000
 s    1  1.00
        0.3023000000         1.0000000000
 p    3  1.00
       17.7000000000         0.0430180000
        3.8540000000         0.2289130000
        1.0460000000         0.5087280000
 p    1  1.00
        0.2753000000         1.0000000000
 d    1  1.00
        1.1850000000         1.0000000000

  6 0
 s    3  1.00
       13.0100000000         0.0196850000
        1.9620000000         0.1379770000
        0.4446000000         0.4781480000
 s    1  1.00
        0.1220000000         1.0000000000
 p    1  1.00
        0.7270000000         1.0000000000

  7 0
 s    3  1.00
       13.0100000000         0.0196850000
        1.9620000000         0.1379770000
        0.4446000000         0.4781480000
 s    1  1.00
        0.1220000000         1.0000000000
 p    1  1.00
        0.7270000000         1.0000000000

  8 0
 s    3  1.00
       13.0100000000         0.0196850000
        1.9620000000         0.1379770000
        0.4446000000         0.4781480000
 s    1  1.00
        0.1220000000         1.0000000000
 p    1  1.00
        0.7270000000         1.0000000000

  9 0
 s    3  1.00
       13.0100000000         0.0196850000
        1.9620000000         0.1379770000
        0.4446000000         0.4781480000
 s    1  1.00
        0.1220000000         1.0000000000
 p    1  1.00
        0.7270000000         1.0000000000

  10 0
 s    3  1.00
       13.0100000000         0.0196850000
        1.9620000000         0.1379770000
        0.4446000000         0.4781480000
 s    1  1.00
        0.1220000000         1.0000000000
 p    1  1.00
        0.7270000000         1.0000000000

  11 0
 s    3  1.00
       13.0100000000         0.0196850000
        1.9620000000         0.1379770000
        0.4446000000         0.4781480000
 s    1  1.00
        0.1220000000         1.0000000000
 p    1  1.00
        0.7270000000         1.0000000000

[5D7F]
[9G]

[MO]
 Sym= A
 Ene=        -1.9134720888e+01
 Spin= Alpha
 Occup=         2.0000000000e+00
  1        -6.9692725092e-05
  2        -1.4525591098e-04
  3         7.9316126389e-05
  4         6.5164948428e-05
  5         4.2507759947e-05
  6         9.1796936758e-06
  7        -4.6439566681e-05
  8        -1.5289043097e-04
  9         1.6192251889e-04
 10         7.5940733784e-05
 11         3.2845764394e-05
 12         3.4958654340e-05
 13         7.7642102661e-05
 14        -1.0059953166e-04
 15        -2.0311721130e-04
 16        -3.6251245808e-04
 17         5.3423069993e-03
 18        -2.2677184046e-05
 19        -1.9214206524e-05
 20        -6.0142452167e-05
 21        -9.5778796974e-04
 22        -2.1948393783e-03
 23         5.0161769705e-04
 24        -3.0496586160e-05
 25         3.1442222333e-05
 26        -2.1079520355e-05
 27        -5.0056307733e-05
 28        -5.2391761445e-05
 29         2.0277999247e-04
 30         3.1121500058e-04
 31        -3.8718203605e-03
 32         2.3808230919e-05
 33         2.7815912631e-04
 34        -1.1288791432e-05
 35        -4.4837295173e-03
 36        -3.5739158489e-03
 37         2.9884684826e-04
 38         1.2660299509e-04
 39         5.3265391355e-05
 40         8.9717088289e-05
 41        -3.9577728040e-04
 42         4.9668684544e-04
 43         4.5332581100e-04
 44         5.9521254031e-04
 45         5.3146187915e-03
 46        -9.4850540329e-05
 47        -1.8101460922e-04
 48        -3.2817420568e-05
 49         6.6030291243e-03
 50         5.3853920361e-04
 51         1.2203534745e-04
 52        -1.4544379280e-05
 53         1.3421062116e-05
 54         9.2268772948e-05
 55        -1.1589385607e-03
 56         5.1639392334e-04
 57         1.0041655311e+00
 58         9.4641678848e-03
 59        -1.5076650175e-02
 60        -1.8350779897e-03
 61         3.5876989868e-04
 62        -5.7007588962e-05
 63         3.5020999833e-03
 64        -8.3435706171e-04
 65         9.2930274239e-05
 66        -1.8449664664e-05
 67         1.8673915347e-06
 68        -3.5220608430e-06
 69         6.7505629792e-05
 70         9.3988928151e-06
 71        -1.1708797370e-04
 72        -1.1558270811e-04
 73         3.1818034291e-05
 74        -2.2264561452e-05
 75         3.1254410654e-05
 76         1.2334649706e-04
 77         3.5954321363e-04
 78        -7.4818600018e-05
 79        -6.9130374911e-05
 80         4.3974626491e-05
 81        -1.0892513315e-04
 82        -2.4495994318e-04
 83         6.8676256828e-05
 84         6.3515596179e-05
 85         5.8501974379e-05
 86        -1.6827812912e-04
 87         8.9709877517e-04
 88        -7.6692061597e-04
 89         1.0669138811e-04
 90        -3.3844150746e-06
 91        -2.8360326536e-04
 92        -1.3107045957e-03
 93         1.8396465300e-04
 94         2.4891753242e-04
 95        -6.6208728436e-07
 96        -1.8159617672e-04
 97         2.2239077535e-04
 98         4.1891645752e-05
 99         8.0569634974e-05
100        -2.9274760979e-05
 Sym= A
 Ene=        -1.0272157742e+01
 Spin= Alpha
 Occup=         2.0000000000e+00
  1        -3.7170459512e-04
  2        -4.9242204082e-04
  3         8.9323287669e-04
  4         2.8928994287e-04
  5         7.1802825363e-05
  6         6.9426042866e-07
  7        -6.2616679607e-04
  8         5.6784845487e-05
  9         1.9406262960e-05
 10        -1.7409504548e-05
 11        -7.0232515520e-05
 12         8.1770678390e-07
 13        -1.1507042380e-04
 14        -4.0710052529e-05
 15        -4.3233555764e-04
 16        -6.3436784979e-04
 17         6.5123435715e-03
 18        -2.7173780193e-04
 19        -2.5272714241e-05
 20         5.0772546876e-05
 21        -2.1160089388e-03
 22        -3.8097392735e-03
 23         6.1725732508e-04
 24        -3.9754738422e-04
 25        -1.9619695837e-04
 26        -9.7589207338e-05
 27         2.9104710263e-04
 28         3.5498835500e-04
 29         1.6697505569e-03
 30        -2.6362853288e-04
 31        -1.9438379975e-03
 32        -3.5406818398e-04
 33         7.7326597092e-04
 34         4.7679224829e-05
 35        -2.6056399087e-03
 36        -5.9658077465e-03
 37         4.1957407587e-04
 38         1.0447745263e-03
 39         6.0755087309e-06
 40        -2.0340661347e-05
 41         1.1199546562e-03
 42         8.6257061915e-04
 43         1.0059460390e+00
 44         1.5297433189e-02
 45        -1.0728896188e-02
 46         7.2059226810e-04
 47        -4.8883807530e-04
 48        -1.0057921591e-04
 49         5.4023030169e-03
 50        -2.0614101657e-03
 51         4.9335399350e-06
 52        -1.6387716726e-03
 53         2.1632001792e-04
 54         2.0097641240e-04
 55         8.2769853691e-04
 56        -1.5000636571e-06
 57         3.6797041113e-04
 58         9.1006607481e-04
 59        -5.9174833516e-03
 60         7.4123271397e-04
 61        -2.0906414612e-04
 62         5.8139533101e-07
 63         3.3997283793e-03
 64        -2.0627022154e-04
 65         9.5393726551e-05
 66         5.6915691615e-04
 67        -2.6775706034e-05
 68        -1.9142490439e-05
 69        -7.2684967438e-04
 70         2.5359426955e-04
 71        -1.1266919722e-04
 72        -6.0951173387e-05
 73         2.5239863784e-05
 74         1.9569778575e-06
 75        -1.3212497701e-05
 76        -5.1720993953e-05
 77         3.5920815008e-04
 78        -5.2636951883e-05
 79        -2.6158167516e-05
 80         9.1147387306e-06
 81        -6.4967178176e-05
 82        -7.3432105063e-06
 83         1.0571582256e-04
 84         5.2893062171e-05
 85        -4.4987595930e-05
 86        -1.6951234180e-03
 87         2.4745766789e-03
 88        -1.4340153753e-03
 89        -1.4586462854e-03
 90        -2.3201443059e-04
 91        -5.3249192847e-04
 92        -4.9411000935e-04
 93         5.0536137955e-05
 94         2.7435901932e-04
 95        -3.1879590812e-05
 96        -3.0238557439e-05
 97         6.1440864856e-04
 98         2.2489309816e-04
 99         1.0360321990e-04
100        -3.4329897216e-05
 Sym= A
 Ene=        -1.0223276150e+01
 Spin= Alpha
 Occup=         2.0000000000e+00
  1         3.1388658058e-03
  2        -4.0399426888e-04
  3         4.3530217092e-03
  4         7.2993463845e-04
  5         4.3288515196e-05
  6         5.9594034435e-05
  7        -2.4126856025e-03
  8        -8.3129059672e-04
  9        -3.3898451023e-04
 10         7.8853367289e-04
 11         8.4550612648e-05
 12         3.3897779871e-05
 13        -9.8605420593e-04
 14        -6.1651556057e-05
 15         1.0063557516e+00
 16         1.6195989528e-02
 17        -2.0265482119e-02
 18        -5.2188106846e-04
 19         1.9080616556e-04
 20        -1.7864783173e-05
 21        -2.2693352372e-03
 22         3.9180287660e-03
 23        -4.8088490782e-04
 24        -1.0445580554e-03
 25         1.1341197583e-04
 26        -3.3152578125e-04
 27        -5.4103389114e-04
 28        -4.2696589179e-04
 29         1.2569571186e-02
 30        -1.2369139293e-03
 31         4.8315684382e-03
 32        -7.2002705957e-04
 33        -1.0788234752e-03
 34         1.6643188732e-04
 35         2.7242508381e-03
 36         2.6783090808e-03
 37        -2.9601091021e-04
 38         8.7365091154e-04
 39         1.4089049898e-04
 40         3.0559286499e-04
 41         5.0538331707e-04
 42        -9.6865784965e-04
 43        -2.8160804826e-04
 44        -5.6059137464e-04
 45         1.1863173917e-03
 46        -2.1399832639e-05
 47        -2.0772935551e-04
 48         4.0241551974e-05
 49        -4.5631394054e-04
 50         1.0671369887e-03
 51        -6.0681023423e-05
 52        -3.2888641876e-04
 53        -1.0079571542e-04
 54        -1.1677875276e-05
 55         1.6337873316e-04
 56        -9.9046665283e-06
 57        -3.3891932444e-05
 58        -7.1822242344e-05
 59        -1.1884555674e-04
 60         1.2120747508e-04
 61         1.4037430367e-05
 62         1.6935647984e-05
 63        -1.2236440019e-04
 64        -3.3850648050e-04
 65         3.0268965186e-05
 66         1.1213830423e-05
 67        -2.6659488015e-05
 68         3.5360531661e-06
 69         3.6304129882e-06
 70         2.4599608450e-05
 71        -4.2471296063e-04
 72         4.1283053662e-04
 73        -1.3369326291e-04
 74        -8.1980989630e-06
 75         5.2402517456e-05
 76        -2.6674049844e-04
 77         2.0616268559e-04
 78         1.4721207239e-04
 79         1.4683642149e-05
 80         7.4006380451e-05
 81        -4.6899338647e-04
 82         1.1645776894e-03
 83        -2.0091887467e-04
 84         3.5421272071e-06
 85         2.6685206492e-05
 86        -8.6641719849e-05
 87         3.3225422331e-04
 88         4.6302259363e-05
 89        -7.3096135078e-05
 90        -1.5650263967e-05
 91         1.7683293676e-04
 92         9.5191526742e-04
 93         1.6293307813e-04
 94        -2.6490194080e-04
 95         1.0947283289e-08
 96        -2.4728263026e-03
 97         1.1009317134e-03
 98        -1.2494139664e-03
 99         1.8005817567e-03
100        -2.4517898536e-04
 Sym= A
 Ene=        -1.0196854623e+01
 Spin= Alpha
 Occup=         2.0000000000e+00
  1         1.2231458341e-03
  2         4.7991511133e-04
  3        -2.8122013793e-04
  4        -1.0778512114e-04
  5        -1.3689875467e-04
  6         1.0661198966e-04
  7         8.9897562888e-04
  8         7.6053224506e-05
  9        -2.8418030996e-04
 10         3.0386348332e-04
 11         2.6077728606e-05
 12         6.2609619984e-05
 13        -4.7256242121e-05
 14         1.2273284467e-04
 15         1.4035056653e-02
 16         1.7438665220e-03
 17        -6.1847938472e-03
 18        -5.9823648708e-04
 19        -1.2194971095e-03
 20         1.8069876743e-04
 21         7.2267307551e-04
 22         3.7299083141e-03
 23        -1.9492614852e-04
 24        -9.1608807437e-04
 25        -1.9361567197e-04
 26        -3.2932785920e-04
 27        -6.1144992933e-04
 28         9.2404627762e-04
 29        -1.0065112526e+00
 30        -1.6605274083e-02
 31         2.1174016891e-02
 32         3.2987150992e-04
 33        -2.4088686435e-04
 34         1.6640001022e-04
 35         5.2880230831e-03
 36         2.8849436398e-04
 37        -9.4491357985e-04
 38         1.1015968709e-03
 39         1.8631035396e-04
 40         1.2004179693e-04
 41        -4.4126308466e-04
 42        -5.2254509139e-04
 43         1.9929550621e-03
 44         7.8287125518e-04
 45        -5.6827905111e-03
 46        -2.6581266501e-04
 47         7.1428986512e-04
 48         5.5696151199e-05
 49        -3.4445035999e-04
 50        -3.4425278184e-03
 51         4.9263423513e-05
 52        -7.0609039253e-04
 53        -1.6806557355e-04
 54         7.3940747907e-05
 55        -5.5771111376e-04
 56        -1.2179489199e-03
 57        -3.6375320239e-05
 58        -6.3159052871e-05
 59         7.3254076054e-04
 60        -1.5174033755e-05
 61         6.2682893679e-05
 62         4.1711294161e-05
 63         1.4028939269e-04
 64         6.3165857184e-04
 65        -5.3680860742e-05
 66         1.2877228485e-04
 67        -4.2271172850e-05
 68        -1.2334939677e-05
 69        -8.2495899794e-05
 70        -2.1892645832e-04
 71         1.3845067570e-04
 72        -3.2760082997e-04
 73        -1.8035155594e-05
 74        -7.5093558262e-05
 75         5.3823760978e-05
 76        -3.4771908065e-05
 77        -3.5525652327e-04
 78        -4.5999600054e-05
 79         4.7862998808e-05
 80         2.9444036374e-05
 81         8.0579672594e-05
 82        -2.0002947882e-04
 83        -4.1504463111e-05
 84        -8.3966477922e-05
 85         1.3523481613e-04
 86         2.8698608270e-04
 87        -9.6621437286e-04
 88        -7.3924025567e-05
 89         1.9466396569e-04
 90        -3.5163976682e-05
 91         2.5099684026e-03
 92        -8.3546175134e-04
 93         2.1907670728e-03
 94        -9.1138387500e-05
 95        -7.2170392266e-05
 96        -1.1004347439e-04
 97        -8.5016386703e-04
 98        -2.9315526108e-04
 99         4.0564772524e-05
100        -4.2583171120e-05
 Sym= A
 Ene=        -1.0189036960e+01
 Spin= Alpha
 Occup=         2.0000000000e+00
  1         1.0070372897e+00
  2         1.7539495008e-02
  3        -1.9339134174e-02
  4         4.0355135472e-04
  5         3.4139593059e-06
  6         2.0805916304e-04
  7         2.8990096510e-03
  8         5.0471333075e-04
  9        -5.3791751835e-04
 10         1.7105610453e-04
 11        -3.6374468051e-06
 12        -1.4825307808e-04
 13        -6.6597912941e-04
 14         8.1215307711e-05
 15        -3.3268019469e-03
 16        -2.6113283317e-04
 17         1.5651988987e-03
 18        -4.9460613850e-04
 19         5.1078469587e-05
 20         1.3146190186e-06
 21         4.1777975910e-03
 22         2.3811027331e-03
 23        -3.1028660473e-04
 24         6.4787274223e-04
 25         1.0464753917e-04
 26        -1.2307261761e-05
 27        -1.3319971329e-03
 28        -3.9294293987e-04
 29         5.4088078269e-04
 30        -6.6124653744e-04
 31         3.7041733695e-03
 32        -2.3668415786e-04
 33         3.7468558432e-05
 34        -4.2183268617e-06
 35         1.2423689760e-03
 36         2.6055103745e-03
 37        -3.8491357245e-04
 38        -3.7190259271e-04
 39         2.6994751426e-05
 40        -1.1109530047e-04
 41        -4.2062701922e-04
 42        -2.1442186823e-04
 43        -1.2803185918e-04
 44        -5.0865621640e-04
 45         3.5896697563e-04
 46        -7.3564118071e-05
 47        -2.6973269145e-04
 48        -4.0894205660e-05
 49        -2.3232633230e-04
 50         4.7794723407e-04
 51         1.3273360189e-04
 52        -3.6755883482e-05
 53        -2.9148729800e-05
 54        -3.0115667430e-05
 55         3.1472946563e-05
 56         5.3937514144e-05
 57        -1.0420070027e-04
 58        -2.0193522325e-04
 59         3.5969254106e-04
 60         3.1647853132e-05
 61        -1.1132936165e-04
 62        -2.3191218026e-05
 63        -2.5678783191e-04
 64         2.4274837826e-04
 65         6.6754200473e-05
 66        -5.7109978779e-05
 67         6.2711061647e-07
 68         6.6841987734e-06
 69         1.9740997921e-06
 70        -1.4373256800e-06
 71        -1.1054981786e-03
 72         2.1076537314e-03
 73         6.0104642865e-04
 74        -1.4935264974e-03
 75        -9.2251608816e-04
 76        -1.5348722573e-03
 77         1.7379565403e-03
 78         6.1920858108e-04
 79         1.8122273687e-03
 80        -7.7839641869e-04
 81        -1.0568467791e-03
 82         2.3932040238e-03
 83         4.7470906215e-04
 84        -2.1607366027e-04
 85         1.8317934224e-03
 86         1.6407595838e-05
 87         3.7543087397e-04
 88         1.1769589460e-05
 89         5.9112943812e-05
 90        -1.6162140471e-05
 91         4.0956203322e-05
 92         4.9970090799e-04
 93         6.2159552687e-05
 94        -1.9154254371e-04
 95         2.8298486453e-05
 96        -3.7924266442e-04
 97         1.4359961830e-04
 98        -3.8980209574e-04
 99        -1.7761910547e-04
100         2.7916370302e-05
 Sym= A
 Ene=        -1.0390744403e+00
 Spin= Alpha
 Occup=         2.0000000000e+00
  1        -5.1391686302e-04
  2         8.1989702519e-03
  3         5.0051932306e-03
  4        -3.3974587629e-03
  5        -3.9558659454e-03
  6        -2.6627999664e-05
  7        -2.7571953046e-03
  8        -1.3286916773e-03
  9         8.2030661613e-04
 10        -7.2129575092e-04
 11        -1.1839068033e-04
 12        -1.6421149525e-04
 13         1.0349409068e-04
 14         9.0107460782e-04
 15         4.4968747414e-04
 16         1.7214219809e-02
 17        -1.1698436545e-02
 18         4.1047430766e-04
 19        -1.0854064039e-02
 20         1.1422426569e-03
 21        -1.8334821158e-03
 22         9.1340329587e-03
 23        -1.2145756586e-03
 24        -5.1572424553e-04
 25        -2.1094331137e-04
 26        -4.8087241581e-04
 27        -1.5217757073e-03
 28         7.3695138656e-04
 29        -3.7325246031e-03
 30         3.6695305881e-02
 31         3.1772385080e-02
 32         2.1437328624e-02
 33        -1.9640853609e-02
 34        -1.1547739180e-03
 35         1.9809380590e-02
 36         1.8990052192e-03
 37        -1.9523414765e-03
 38        -3.7290778981e-03
 39        -4.9257129166e-04
 40        -6.8708170344e-05
 41        -2.8412903904e-04
 42        -9.0997540216e-03
 43        -1.4791352342e-02
 44         2.2418177835e-01
 45         9.4549858508e-02
 46         1.8386983407e-01
 47        -2.4148523624e-02
 48         3.7817954740e-03
 49         1.2534009248e-02
 50        -2.3663817747e-03
 51         9.4500852266e-04
 52        -1.3840066852e-02
 53         4.2252898204e-04
 54        -1.4928173601e-03
 55         3.1321499521e-02
 56        -1.3559160620e-02
 57        -9.2326474985e-03
 58         4.0190665505e-01
 59         3.6099665484e-01
 60        -1.5479579503e-01
 61         3.1149187098e-02
 62        -3.8369476687e-03
 63        -3.1762954550e-02
 64         7.6395948624e-03
 65        -1.5192524172e-03
 66        -5.3926039869e-03
 67         2.9921712637e-04
 68        -7.6992370953e-04
 69         1.2035766808e-02
 70        -4.9546265426e-03
 71         7.8547270328e-03
 72         4.0125464857e-03
 73        -7.1124218531e-04
 74        -3.4990426568e-04
 75         7.0704666623e-04
 76         1.1281792598e-03
 77        -4.4919254474e-04
 78         2.2244696720e-05
 79        -5.5760200423e-05
 80        -7.4841173677e-05
 81         2.8603417391e-03
 82         7.7020233714e-04
 83        -3.3072026267e-04
 84        -3.6301216254e-04
 85        -5.6446736397e-04
 86         4.0375592612e-02
 87        -3.2752696854e-03
 88         1.0061139106e-02
 89         6.1342407232e-03
 90         1.0619714493e-03
 91         7.3608670835e-03
 92         6.0608721543e-03
 93         1.0657222130e-03
 94        -1.8784409354e-03
 95        -9.5023926153e-05
 96         1.9530184581e-03
 97        -2.9703919496e-03
 98        -1.7248332206e-04
 99        -8.5146313900e-04
100         1.4202507613e-04
 Sym= A
 Ene=        -8.1232572270e-01
 Spin= Alpha
 Occup=         2.0000000000e+00
  1         1.1329483599e-02
  2        -1.8088554144e-01
  3        -7.3987090256e-02
  4         6.7692531891e-02
  5         1.4473419166e-02
  6        -5.2136113406e-03
  7         1.8762947754e-03
  8        -9.2574752027e-03
  9         2.7316335849e-03
 10         5.7425920577e-03
 11         6.4091440762e-04
 12        -9.0273575831e-05
 13        -1.0104356372e-02
 14        -3.2303318661e-03
 15         2.0077657906e-02
 16        -2.8945843369e-01
 17        -2.0341405155e-01
 18        -4.8800116420e-03
 19         7.0856353921e-02
 20        -8.9717047427e-03
 21        -3.3111622853e-02
 22         2.5314712906e-02
 23        -3.8105170879e-03
 24         1.0007472524e-02
 25         1.3225671028e-03
 26         1.8974576847e-03
 27        -2.1958921175e-03
 28        -9.9737039280e-03
 29         1.7405555236e-02
 30        -2.5363816746e-01
 31        -1.3788410422e-01
 32        -5.9319005709e-02
 33        -5.6585759973e-02
 34         1.5242711153e-02
 35        -2.1420834421e-03
 36        -2.1916668418e-02
 37         3.9270634032e-03
 38         6.8301787135e-03
 39         1.6210696877e-03
 40         2.1187044878e-03
 41         8.7800548445e-03
 42        -8.6187476790e-03
 43         2.6128507172e-03
 44        -6.4226451617e-02
 45        -5.1578842321e-02
 46         7.2821016743e-02
 47        -8.1147665760e-02
 48         1.0897158003e-03
 49         2.3727598593e-02
 50        -2.3169163549e-02
 51        -1.2028012906e-03
 52         2.7181748677e-03
 53         4.2950793023e-04
 54        -3.3028469858e-04
 55         1.3467091731e-02
 56         3.1475224301e-03
 57        -3.7119189385e-04
 58         7.7892534528e-02
 59         7.5133970325e-02
 60        -1.2657877179e-02
 61        -1.6693390206e-02
 62         1.0825284872e-04
 63         1.0562913644e-03
 64        -7.2505305472e-03
 65         5.9912328507e-04
 66         1.6665783691e-04
 67         9.1658423303e-06
 68         2.8747589937e-05
 69         1.7430410337e-03
 70         1.5931051145e-03
 71        -6.8226583660e-02
 72        -2.1216754574e-03
 73         4.6315307983e-03
 74        -7.9388673476e-03
 75        -5.2073393937e-03
 76        -5.9342965331e-02
 77        -4.4708148017e-04
 78         4.8725152487e-03
 79         8.1480985672e-03
 80        -3.4597337128e-03
 81        -6.9330782472e-02
 82        -3.5428375466e-03
 83         4.3455219778e-03
 84        -1.2701800924e-04
 85         9.2921672639e-03
 86        -1.8532027575e-02
 87        -4.3291557385e-05
 88         9.1359841945e-05
 89        -3.4940150471e-03
 90        -1.2967087438e-04
 91        -8.2380950913e-02
 92        -2.2127037716e-03
 93        -1.4062353532e-02
 94        -1.9693494354e-03
 95         1.1728262659e-03
 96        -9.8765491029e-02
 97        -1.3686447990e-02
 98        -7.0143608909e-03
 99         1.3661547532e-02
100        -1.7960030779e-03
 Sym= A
 Ene=        -7.1750673467e-01
 Spin= Alpha
 Occup=         2.0000000000e+00
  1         1.4436465548e-02
  2        -2.8314801755e-01
  3        -1.2036488840e-01
  4         2.0050134223e-02
  5        -6.8108723896e-03
  6        -5.3994996860e-03
  7        -1.5940001695e-02
  8        -8.0005782625e-03
  9         7.5743924847e-04
 10         1.4561165848e-03
 11        -7.8804610252e-05
 12        -1.6646245188e-04
 13        -3.1006736275e-03
 14         2.3205783612e-03
 15         5.4064364661e-03
 16        -5.2833356436e-02
 17        -8.7858905270e-02
 18        -1.3741506046e-01
 19        -8.9413371414e-02
 20         1.0338294777e-02
 21        -8.9207208500e-02
 22        -6.2074285377e-03
 23         1.5086723922e-03
 24         3.8157764800e-03
 25        -4.1688971672e-04
 26        -1.1249238146e-03
 27        -1.7694359401e-02
 28         4.3006663242e-03
 29        -1.3868156760e-02
 30         2.2759020789e-01
 31         1.6606496086e-01
 32        -6.6398396541e-03
 33        -6.2303469471e-02
 34        -4.9023878987e-03
 35         3.4331548393e-02
 36        -3.6120631667e-02
 37        -1.5376104491e-03
 38        -4.3622197371e-03
 39        -7.0607951425e-05
 40         4.7378569420e-04
 41        -9.7864010516e-03
 42        -6.0757997403e-03
 43        -3.3430061755e-03
 44         1.5917156696e-01
 45         7.0881531159e-02
 46        -1.1125666898e-01
 47         7.5519061472e-02
 48         3.2863624970e-04
 49        -3.9254845546e-02
 50         9.3576426143e-03
 51        -1.3161159102e-03