[Molden Format]
[Atoms] (AU)
C    1    6           1.6443492797         3.0042402944         0.3031899757
C    2    6          -0.7901136451         2.4111177946        -0.1662022902
C    3    6          -2.0458574802        -0.0137351547         0.2917216625
C    4    6          -0.8903570209        -2.2811742579         0.1021412006
O    5    8           1.5791376657        -2.6748472767        -0.4103117065
H    6    1           2.3560916458        -1.0303976813        -0.6939199515
H    7    1           2.4313264805         4.8261322439        -0.2701345437
H    8    1           2.9024985472         1.7423096849         1.3571235140
H    9    1          -1.9190612225        -4.0726615156         0.2607965968
H   10    1          -4.0791946654        -0.0187160003         0.6288255029
H   11    1          -1.9639558051         3.8504528314        -1.0914931193
[GTO]
  1 0
 s    8  1.00
     6665.0000000000         0.0006920000
     1000.0000000000         0.0053290000
      228.0000000000         0.0270770000
       64.7100000000         0.1017180000
       21.0600000000         0.2747400000
        7.4950000000         0.4485640000
        2.7970000000         0.2850740000
        0.5215000000         0.0152040000
 s    8  1.00
     6665.0000000000        -0.0001460000
     1000.0000000000        -0.0011540000
      228.0000000000        -0.0057250000
       64.7100000000        -0.0233120000
       21.0600000000        -0.0639550000
        7.4950000000        -0.1499810000
        2.7970000000        -0.1272620000
        0.5215000000         0.5445290000
 s    1  1.00
        0.1596000000         1.0000000000
 p    3  1.00
        9.4390000000         0.0381090000
        2.0020000000         0.2094800000
        0.5456000000         0.5085570000
 p    1  1.00
        0.1517000000         1.0000000000
 d    1  1.00
        0.5500000000         1.0000000000

  2 0
 s    8  1.00
     6665.0000000000         0.0006920000
     1000.0000000000         0.0053290000
      228.0000000000         0.0270770000
       64.7100000000         0.1017180000
       21.0600000000         0.2747400000
        7.4950000000         0.4485640000
        2.7970000000         0.2850740000
        0.5215000000         0.0152040000
 s    8  1.00
     6665.0000000000        -0.0001460000
     1000.0000000000        -0.0011540000
      228.0000000000        -0.0057250000
       64.7100000000        -0.0233120000
       21.0600000000        -0.0639550000
        7.4950000000        -0.1499810000
        2.7970000000        -0.1272620000
        0.5215000000         0.5445290000
 s    1  1.00
        0.1596000000         1.0000000000
 p    3  1.00
        9.4390000000         0.0381090000
        2.0020000000         0.2094800000
        0.5456000000         0.5085570000
 p    1  1.00
        0.1517000000         1.0000000000
 d    1  1.00
        0.5500000000         1.0000000000

  3 0
 s    8  1.00
     6665.0000000000         0.0006920000
     1000.0000000000         0.0053290000
      228.0000000000         0.0270770000
       64.7100000000         0.1017180000
       21.0600000000         0.2747400000
        7.4950000000         0.4485640000
        2.7970000000         0.2850740000
        0.5215000000         0.0152040000
 s    8  1.00
     6665.0000000000        -0.0001460000
     1000.0000000000        -0.0011540000
      228.0000000000        -0.0057250000
       64.7100000000        -0.0233120000
       21.0600000000        -0.0639550000
        7.4950000000        -0.1499810000
        2.7970000000        -0.1272620000
        0.5215000000         0.5445290000
 s    1  1.00
        0.1596000000         1.0000000000
 p    3  1.00
        9.4390000000         0.0381090000
        2.0020000000         0.2094800000
        0.5456000000         0.5085570000
 p    1  1.00
        0.1517000000         1.0000000000
 d    1  1.00
        0.5500000000         1.0000000000

  4 0
 s    8  1.00
     6665.0000000000         0.0006920000
     1000.0000000000         0.0053290000
      228.0000000000         0.0270770000
       64.7100000000         0.1017180000
       21.0600000000         0.2747400000
        7.4950000000         0.4485640000
        2.7970000000         0.2850740000
        0.5215000000         0.0152040000
 s    8  1.00
     6665.0000000000        -0.0001460000
     1000.0000000000        -0.0011540000
      228.0000000000        -0.0057250000
       64.7100000000        -0.0233120000
       21.0600000000        -0.0639550000
        7.4950000000        -0.1499810000
        2.7970000000        -0.1272620000
        0.5215000000         0.5445290000
 s    1  1.00
        0.1596000000         1.0000000000
 p    3  1.00
        9.4390000000         0.0381090000
        2.0020000000         0.2094800000
        0.5456000000         0.5085570000
 p    1  1.00
        0.1517000000         1.0000000000
 d    1  1.00
        0.5500000000         1.0000000000

  5 0
 s    8  1.00
    11720.0000000000         0.0007100000
     1759.0000000000         0.0054700000
      400.8000000000         0.0278370000
      113.7000000000         0.1048000000
       37.0300000000         0.2830620000
       13.2700000000         0.4487190000
        5.0250000000         0.2709520000
        1.0130000000         0.0154580000
 s    8  1.00
    11720.0000000000        -0.0001600000
     1759.0000000000        -0.0012630000
      400.8000000000        -0.0062670000
      113.7000000000        -0.0257160000
       37.0300000000        -0.0709240000
       13.2700000000        -0.1654110000
        5.0250000000        -0.1169550000
        1.0130000000         0.5573680000
 s    1  1.00
        0.3023000000         1.0000000000
 p    3  1.00
       17.7000000000         0.0430180000
        3.8540000000         0.2289130000
        1.0460000000         0.5087280000
 p    1  1.00
        0.2753000000         1.0000000000
 d    1  1.00
        1.1850000000         1.0000000000

  6 0
 s    3  1.00
       13.0100000000         0.0196850000
        1.9620000000         0.1379770000
        0.4446000000         0.4781480000
 s    1  1.00
        0.1220000000         1.0000000000
 p    1  1.00
        0.7270000000         1.0000000000

  7 0
 s    3  1.00
       13.0100000000         0.0196850000
        1.9620000000         0.1379770000
        0.4446000000         0.4781480000
 s    1  1.00
        0.1220000000         1.0000000000
 p    1  1.00
        0.7270000000         1.0000000000

  8 0
 s    3  1.00
       13.0100000000         0.0196850000
        1.9620000000         0.1379770000
        0.4446000000         0.4781480000
 s    1  1.00
        0.1220000000         1.0000000000
 p    1  1.00
        0.7270000000         1.0000000000

  9 0
 s    3  1.00
       13.0100000000         0.0196850000
        1.9620000000         0.1379770000
        0.4446000000         0.4781480000
 s    1  1.00
        0.1220000000         1.0000000000
 p    1  1.00
        0.7270000000         1.0000000000

  10 0
 s    3  1.00
       13.0100000000         0.0196850000
        1.9620000000         0.1379770000
        0.4446000000         0.4781480000
 s    1  1.00
        0.1220000000         1.0000000000
 p    1  1.00
        0.7270000000         1.0000000000

  11 0
 s    3  1.00
       13.0100000000         0.0196850000
        1.9620000000         0.1379770000
        0.4446000000         0.4781480000
 s    1  1.00
        0.1220000000         1.0000000000
 p    1  1.00
        0.7270000000         1.0000000000

[5D7F]
[9G]

[MO]
 Sym= A
 Ene=        -1.9174142891e+01
 Spin= Alpha
 Occup=         2.0000000000e+00
  1        -8.0648947910e-05
  2        -1.3879514639e-04
  3         1.2383011414e-03
  4        -1.0343096769e-04
  5         7.5900590394e-05
  6         2.3149331179e-05
  7        -2.5616507023e-04
  8        -1.3636193395e-03
  9         1.5813851681e-04
 10        -7.0861937287e-05
 11         1.3243261535e-05
 12         4.1519406515e-05
 13        -5.0368682271e-05
 14         7.7282034908e-05
 15         2.1428457608e-04
 16         3.6931237067e-04
 17        -5.5993512127e-03
 18        -5.5030768190e-06
 19         4.4189870073e-06
 20         6.5332553838e-05
 21         2.1507844460e-04
 22         2.9713346748e-03
 23        -8.9651577395e-04
 24         6.8849251934e-05
 25        -1.2631688734e-04
 26         1.0330538121e-04
 27        -6.5119110717e-06
 28         2.0971210518e-05
 29        -1.9005966942e-04
 30        -2.7633567988e-04
 31         4.7994252831e-03
 32         5.4442991073e-05
 33        -2.6799600625e-04
 34         7.4667213675e-06
 35         4.6644170719e-03
 36         3.1215311739e-03
 37        -1.0683473785e-03
 38        -1.5894921183e-04
 39        -1.4067500259e-04
 40         6.7566861801e-05
 41         3.9087995340e-04
 42        -3.9658847754e-04
 43        -1.9483850599e-04
 44        -3.5441025174e-04
 45        -5.7206796110e-03
 46        -3.2821563005e-04
 47         2.1440468123e-04
 48         1.0065598151e-04
 49        -5.8555609641e-03
 50        -1.4969736585e-03
 51         1.2051457372e-03
 52         4.0384043317e-04
 53         3.5049186352e-06
 54         7.0129184753e-05
 55         7.1372139315e-04
 56        -4.0138864390e-04
 57        -1.0040855665e+00
 58        -9.3646497242e-03
 59         1.4040664739e-02
 60         8.8736846195e-04
 61        -1.4576569109e-03
 62        -6.6468446978e-05
 63        -3.2328975236e-03
 64         1.4053321534e-03
 65         6.1436768614e-04
 66         2.5232721638e-05
 67         1.4917502960e-06
 68         8.3504430002e-05
 69         1.5105664034e-04
 70        -2.6803394972e-04
 71        -2.3884542698e-04
 72        -3.4232750240e-04
 73        -2.3419304897e-04
 74        -9.9742964174e-04
 75         5.6325060563e-05
 76         5.5526948282e-05
 77         3.0206375990e-04
 78         3.7629652394e-05
 79         6.2875706794e-05
 80         7.9932694907e-06
 81        -2.3531995340e-04
 82        -1.9261781472e-04
 83         2.9482954448e-06
 84        -2.7819120253e-05
 85        -1.5783599904e-05
 86         4.0195152675e-04
 87        -8.9661708240e-04
 88         6.3258531335e-04
 89         1.4822624919e-04
 90        -1.2538106613e-04
 91         1.6596659395e-04
 92         1.2585223406e-03
 93        -2.2700813579e-04
 94        -2.0853764236e-04
 95         6.3083067899e-05
 96         8.8814430312e-05
 97        -6.1653970531e-04
 98        -3.4709179293e-05
 99        -1.0830120856e-04
100         2.8141893864e-05
 Sym= A
 Ene=        -1.0250666971e+01
 Spin= Alpha
 Occup=         2.0000000000e+00
  1        -2.7955797642e-04
  2        -3.4230014096e-04
  3         1.1144631202e-03
  4         1.4494451930e-04
  5         7.9007051743e-05
  6         7.2412687696e-05
  7        -1.2725916025e-03
  8         5.0111710756e-04
  9        -6.3786693077e-04
 10        -7.4719916453e-05
 11        -1.5227767857e-05
 12        -2.7923384841e-05
 13         5.4894148081e-05
 14        -3.8479872164e-05
 15        -4.9587863585e-04
 16        -7.0838631632e-04
 17         4.8456423614e-03
 18        -1.1601919186e-04
 19         1.4128921491e-05
 20         1.6254536119e-06
 21        -2.3990324020e-03
 22        -4.1411608474e-03
 23         7.5440912301e-04
 24        -3.5245188066e-04
 25        -9.4415602735e-05
 26        -1.0286290412e-04
 27         4.2135276454e-06
 28         1.8457274564e-04
 29         4.6285013847e-03
 30        -1.0219967472e-03
 31         1.8622440912e-04
 32        -5.7862229101e-04
 33         1.3602397333e-03
 34         9.5317516620e-05
 35        -1.9367195883e-03
 36        -6.4795372785e-03
 37         7.5696054334e-04
 38         1.0748914988e-03
 39         2.3952069471e-04
 40        -5.5151210914e-05
 41         5.6392978370e-04
 42         9.0088727405e-04
 43         1.0059048896e+00
 44         1.5280810909e-02
 45        -1.2561007466e-02
 46         5.8069479900e-04
 47        -4.4612642435e-04
 48        -1.8901633047e-04
 49         5.0664236608e-03
 50        -2.3828777278e-03
 51        -1.0081311709e-03
 52        -1.6328711774e-03
 53        -5.0720673054e-04
 54         4.4567603456e-05
 55        -3.1409581741e-04
 56        -2.5366862347e-05
 57         7.1828803138e-04
 58         1.2968396097e-03
 59        -4.9326904577e-03
 60         2.6560523997e-04
 61        -2.0904862603e-04
 62        -3.5102548499e-05
 63         3.2693700471e-03
 64        -2.4704023000e-04
 65        -7.0514707984e-04
 66         6.9562779748e-04
 67         4.3229458541e-04
 68        -1.9889411923e-05
 69        -7.6614272961e-04
 70         1.9289977686e-04
 71         5.1588799489e-04
 72        -4.4766446786e-04
 73        -6.2595932625e-04
 74        -2.3914233231e-05
 75         1.1988637554e-04
 76        -5.5801256068e-05
 77         1.6458918964e-04
 78        -2.5836023342e-05
 79        -5.4852021030e-05
 80         3.0672050434e-05
 81         6.2180372366e-06
 82         9.4263548911e-04
 83         1.0359856757e-05
 84         6.2826035692e-05
 85        -2.9549821484e-05
 86        -2.1372811722e-03
 87         2.3013129363e-03
 88        -1.5289564065e-03
 89        -1.5909998172e-03
 90         2.5480718576e-04
 91        -1.3553690402e-04
 92        -2.5466467323e-04
 93         3.0701176318e-04
 94         2.9291809343e-04
 95        -7.6265311791e-05
 96        -5.5471255463e-05
 97         5.4675721012e-04
 98         1.7147409939e-04
 99         1.3051268349e-04
100        -3.0967511381e-05
 Sym= A
 Ene=        -1.0206233343e+01
 Spin= Alpha
 Occup=         2.0000000000e+00
  1         2.2155354897e-02
  2        -1.1302852438e-03
  3         4.7943634820e-03
  4         1.3330461192e-03
  5         3.3804799830e-04
  6         1.6374616787e-04
  7        -2.0764037827e-03
  8        -1.8127532249e-03
  9         3.7769792148e-04
 10         7.6107141046e-04
 11        -5.3431537732e-04
 12        -2.6443290028e-05
 13        -1.0650628830e-03
 14        -4.0282500903e-04
 15         1.0061820841e+00
 16         1.6256110952e-02
 17        -1.9216034062e-02
 18        -1.1975845477e-04
 19         2.1212677979e-04
 20        -2.5760799935e-04
 21        -1.7158799532e-03
 22         3.2012412503e-03
 23        -1.7305864184e-03
 24        -7.4685585760e-04
 25         7.0500754000e-04
 26        -6.4978875217e-04
 27         2.3735959635e-04
 28        -3.0514676457e-05
 29         5.4330637245e-03
 30        -4.3741362967e-04
 31         1.1025092781e-03
 32        -4.6220535881e-04
 33        -6.1743148616e-04
 34         1.4200684758e-04
 35         7.8486358079e-04
 36         3.8619029006e-03
 37         2.7244672028e-04
 38         7.9517951740e-04
 39         3.3368112784e-05
 40         5.7886698852e-04
 41         1.0997246483e-03
 42        -9.5953803298e-04
 43        -3.5511201477e-04
 44        -7.0364097909e-04
 45         4.1106405219e-03
 46        -1.0635439647e-04
 47        -1.6330918602e-04
 48         1.2876980728e-04
 49        -6.1655269173e-04
 50         2.7732142929e-03
 51        -2.6333466120e-04
 52        -4.2951339819e-04
 53        -3.1638382135e-04
 54         6.1746878197e-05
 55         4.1293421353e-04
 56        -3.1295222182e-04
 57         8.7693982714e-05
 58         1.2772503206e-04
 59        -1.2254212337e-03
 60         1.6395937156e-04
 61        -4.1957356718e-05
 62        -2.6364410750e-05
 63         1.3603380968e-04
 64        -6.8234027037e-04
 65         8.3366141803e-05
 66         8.3086480462e-05
 67         2.5490873979e-05
 68         1.8344736855e-05
 69        -1.5397054747e-05
 70         1.5873572175e-05
 71         2.8909893469e-04
 72         6.0571950690e-04
 73        -2.7828168540e-04
 74        -7.9535174957e-05
 75        -2.0749350929e-05
 76        -4.9761309071e-05
 77         8.9777686900e-04
 78         1.4368658478e-04
 79        -1.1440688837e-04
 80         7.6985789006e-05
 81        -2.6676397772e-04
 82        -2.1188822987e-04
 83         3.6415167424e-05
 84         2.4061849089e-04
 85        -1.1029383158e-04
 86         1.0186437039e-04
 87         7.9262811057e-04
 88         1.7977676818e-04
 89        -5.3202434678e-05
 90         2.5308610194e-06
 91        -2.9973536300e-04
 92         4.2147644546e-04
 93        -7.2478217987e-05
 94        -3.8736823460e-04
 95        -5.8198576394e-05
 96        -2.2898132117e-03
 97         1.2028754688e-03
 98        -1.1500525602e-03
 99         1.5074150730e-03
100        -9.4891363468e-04
 Sym= A
 Ene=        -1.0190764409e+01
 Spin= Alpha
 Occup=         2.0000000000e+00
  1         1.0061787713e+00
  2         1.6354510148e-02
  3        -1.5265474182e-02
  4         2.7626530844e-04
  5        -5.5839428266e-05
  6         2.8962057671e-05
  7         2.2082168890e-03
  8         7.3716922390e-04
  9         7.3603069482e-04
 10        -1.0420051658e-03
 11         7.2484576776e-04
 12        -1.1877922957e-03
 13         5.0808694411e-05
 14         3.2779384085e-04
 15        -2.3384668065e-02
 16        -1.4535990963e-03
 17         1.0373562641e-03
 18        -1.3402815525e-03
 19        -3.3250487415e-04
 20        -2.7312875544e-04
 21         2.9235891444e-03
 22         2.4727642053e-03
 23        -3.2342293838e-05
 24         1.0003999793e-03
 25        -5.8598309184e-04
 26         1.8496187932e-04
 27        -9.9486660282e-04
 28        -7.6947181383e-04
 29        -1.0311001631e-03
 30        -5.1702067226e-04
 31         3.4740111867e-03
 32        -8.3754445870e-05
 33         5.0669856380e-05
 34        -6.5291248203e-05
 35         1.9218629645e-03
 36         2.4583496029e-03
 37        -4.9990039932e-04
 38        -3.7308782689e-04
 39         7.6202973888e-05
 40        -2.4315891373e-04
 41        -3.3753341676e-04
 42         3.1322871286e-05
 43         1.0471216570e-05
 44        -2.0646543686e-04
 45        -6.3145452232e-04
 46        -2.1774931172e-07
 47        -1.3382583292e-04
 48        -5.1029362833e-05
 49        -1.3105917070e-03
 50        -1.5943109434e-04
 51         3.0047874832e-04
 52         5.9204737754e-05
 53         9.8841926317e-05
 54        -8.9525857099e-05
 55        -4.7061853826e-05
 56         1.0510375554e-04
 57         1.1500655874e-05
 58         3.6113501643e-05
 59         4.0780843637e-04
 60         1.2068060829e-04
 61         6.7629726335e-05
 62        -3.7098425252e-05
 63        -6.6115258698e-04
 64        -1.6902104199e-04
 65         1.0082814915e-04
 66        -3.1978225799e-05
 67        -3.3390914679e-05
 68        -2.7066883192e-05
 69         7.9019416121e-05
 70         5.6289365883e-05
 71         1.6829111536e-04
 72         1.2741849390e-03
 73        -1.1988442857e-04
 74         4.2762514647e-04
 75         8.5942828829e-05
 76        -2.3066648475e-03
 77         1.8906394218e-03
 78         7.4938153274e-04
 79         2.0157632906e-03
 80        -7.0443602149e-04
 81        -2.1265918165e-03
 82         1.4913125132e-03
 83         1.2186861191e-03
 84        -1.4871479894e-03
 85         1.2159999780e-03
 86        -8.1695985637e-05
 87        -3.5384228801e-05
 88         3.9929557857e-05
 89         1.9155085396e-05
 90        -1.9932478750e-05
 91         1.1059917127e-04
 92         5.7640918705e-04
 93         1.2893355956e-05
 94        -1.3076409778e-04
 95         4.3945496485e-05
 96         8.3022273408e-05
 97         2.5927326533e-04
 98         1.8203642435e-05
 99        -3.1704118395e-04
100         1.0941608048e-04
 Sym= A
 Ene=        -1.0182393529e+01
 Spin= Alpha
 Occup=         2.0000000000e+00
  1         3.1948782993e-04
  2        -4.4834788203e-04
  3         2.7697449486e-03
  4         7.3427917734e-05
  5         1.0556628031e-04
  6        -8.6139993525e-05
  7        -2.0758885452e-03
  8        -4.1116492372e-04
  9        -4.3822980205e-05
 10        -2.5452880981e-04
 11         5.2104732103e-04
 12        -3.0090032244e-04
 13         2.7307119047e-04
 14        -4.8512963997e-04
 15        -5.8121267857e-03
 16        -6.8090999172e-04
 17         3.0343899598e-03
 18         2.0634325209e-04
 19         6.9452290819e-04
 20        -1.7597229288e-04
 21        -2.0716452278e-03
 22        -3.8610439802e-03
 23        -3.2857048043e-05
 24         9.0377438860e-04
 25         4.9606857668e-04
 26         3.5192512916e-04
 27         5.5901590818e-04
 28        -1.3104580591e-03
 29         1.0066502346e+00
 30         1.6753288894e-02
 31        -2.1869329724e-02
 32        -2.3354587693e-04
 33        -1.6868732155e-04
 34        -1.0124003117e-04
 35        -5.1560253073e-03
 36        -2.4919746817e-04
 37         1.5644648618e-03
 38        -1.0773149257e-03
 39        -3.9683217332e-04
 40        -2.3886184119e-06
 41         2.9528257467e-04
 42        -2.2111531597e-04
 43        -5.8966587009e-03
 44        -1.6057264904e-03
 45         6.7706440753e-03
 46         6.4184715277e-04
 47        -1.2406891475e-03
 48        -9.3043907959e-05
 49         3.0648815316e-04
 50         4.2056289572e-03
 51        -3.3305969505e-04
 52         8.4302061935e-04
 53         1.6078049175e-04
 54        -2.0493656029e-04
 55         7.0371371121e-04
 56         1.0127853060e-03
 57         3.3244483868e-05
 58         4.6522762218e-05
 59        -9.6567639777e-04
 60         2.9259212222e-05
 61        -5.8839373595e-05
 62        -2.7974711903e-06
 63        -1.0478215788e-04
 64        -7.0198990612e-04
 65         6.5980477903e-05
 66        -5.7819870536e-05
 67        -4.1525024075e-05
 68        -1.1361174637e-05
 69         9.4477072668e-05
 70         7.9934823086e-05
 71         2.7136521152e-04
 72         3.9387144689e-05
 73        -1.3897125947e-04
 74        -1.6066526506e-04
 75         2.2838186443e-05
 76         1.1380994275e-04
 77         5.0408849527e-04
 78         1.4015549170e-04
 79        -1.4752298527e-04
 80         5.0581463263e-05
 81        -6.9951322560e-04
 82         5.0726563741e-04
 83         1.8805633935e-04
 84        -1.2365188767e-04
 85         1.1996601197e-04
 86         1.5121001125e-04
 87         1.2066175050e-03
 88         2.8693691939e-04
 89        -1.9252967144e-05
 90        -1.6394852263e-05
 91        -2.4024219804e-03
 92         8.3942618444e-04
 93        -2.1214717310e-03
 94        -5.8931969636e-05
 95         2.8081436260e-04
 96        -3.4050929241e-04
 97         7.0915522503e-04
 98         1.9975938557e-04
 99         2.8918929470e-04
100         7.1472417324e-05
 Sym= A
 Ene=        -1.0655915145e+00
 Spin= Alpha
 Occup=         2.0000000000e+00
  1         1.5498044779e-04
  2         8.4733782480e-03
  3        -4.7245368928e-03
  4        -1.8783910630e-03
  5        -5.1211515877e-03
  6        -6.6916858440e-04
  7         2.7880765201e-03
  8         5.3370252972e-03
  9        -1.9114986331e-03
 10        -2.4593946389e-04
 11        -5.6987355609e-04
 12         6.9791758897e-04
 13        -8.1390887532e-04
 14         9.6754600533e-04
 15        -1.1279409167e-04
 16         1.3083411064e-02
 17         2.3746209688e-03
 18         1.5538537553e-03
 19        -8.6305503093e-03
 20         9.4640442498e-04
 21         6.2472331358e-03
 22         3.0821812208e-03
 23         2.5690088282e-04
 24        -1.3999681928e-03
 25        -1.5079484117e-04
 26        -4.2347108972e-04
 27        -1.3226455385e-03
 28         4.1796243274e-04
 29        -1.2830968448e-03
 30         3.5263406581e-02
 31        -5.0621705978e-03
 32         2.1282598135e-02
 33        -1.8125801654e-02
 34        -4.3002420670e-03
 35         5.0477930670e-03
 36         1.5327385119e-02
 37        -2.0607397799e-03
 38        -2.2166690350e-03
 39        -1.0904170028e-03
 40         1.5387810947e-03
 41         2.1733868977e-03
 42        -8.0490661738e-03
 43        -1.2706209786e-02
 44         1.5398598450e-01
 45         8.5645991536e-02
 46         1.2600073655e-01
 47        -5.3150910057e-03
 48        -2.7149544036e-02
 49         4.9248698432e-03
 50         2.4517503594e-02
 51        -1.1230116066e-03
 52        -1.1105803521e-02
 53        -1.0788116948e-02
 54         8.6254515810e-04
 55         2.8385746936e-02
 56        -4.7118151180e-03
 57        -6.7293128772e-03
 58         4.2394751560e-01
 59         3.7200892895e-01
 60        -7.2801626458e-02
 61         9.0451314475e-02
 62         9.6118566620e-03
 63        -3.1161697709e-02
 64        -2.0536438370e-03
 65         6.7761735874e-03
 66        -6.3539855805e-03
 67        -3.3571735183e-03
 68        -3.2090469014e-04
 69         3.9546666208e-03
 70        -1.7615430590e-03
 71         1.7229325505e-01
 72         5.0096969082e-03
 73        -1.8947338910e-02
 74        -2.9898133961e-02
 75         6.7442575804e-03
 76         1.8928349534e-05
 77        -3.9837535983e-03
 78         5.2493117789e-05
 79         1.0405604584e-04
 80        -1.6207884848e-04
 81         7.5845612882e-03
 82         4.5944778426e-03
 83        -1.1479812316e-03
 84        -6.3635787790e-04
 85        -9.0837714885e-04
 86         3.4119154710e-02
 87         5.4903386502e-03
 88         8.2448672779e-03
 89         4.5234206955e-03
 90        -1.4979166413e-03
 91         5.0894973414e-03
 92         1.8950182543e-03
 93         4.3811464922e-04
 94        -2.2972389007e-03
 95         1.2381026155e-05
 96         1.6505641753e-03
 97        -1.0666943981e-03
 98        -3.0441071714e-04
 99        -4.4736827791e-04
100        -8.8062072795e-05
 Sym= A
 Ene=        -8.0173843702e-01
 Spin= Alpha
 Occup=         2.0000000000e+00
  1         1.4766647508e-02
  2        -1.9247334241e-01
  3        -1.0449728269e-01
  4         8.3132423604e-02
  5         2.9197631711e-02
  6         1.3876574139e-02
  7         8.6365557693e-03
  8        -2.8957175501e-03
  9         8.2865318105e-03
 10         4.8062486316e-03
 11        -2.2981146631e-03
 12        -3.3177329967e-03
 13        -7.8190735550e-03
 14        -6.0033958317e-03
 15         1.9349659889e-02
 16        -2.7768149643e-01
 17        -1.7787199621e-01
 18        -3.8368538236e-02
 19         3.9877654180e-02
 20        -1.8737463492e-02
 21        -1.8746433111e-02
 22         2.0639871942e-02
 23        -1.3778260891e-02
 24         1.0482602289e-02
 25        -8.4561401429e-04
 26         1.2695426345e-03
 27        -1.5503753750e-03
 28        -1.0975221268e-02
 29         1.8223892166e-02
 30        -2.4080949753e-01
 31        -1.4242696672e-01
 32        -5.4457402855e-02
 33        -1.5021262445e-02
 34         1.5113374549e-02
 35        -1.9574528159e-02
 36        -1.1868717230e-02
 37         9.6289921642e-03
 38         8.6585850442e-03
 39         1.6932305165e-03
 40         2.5682212942e-03
 41         9.4678129347e-03
 42        -5.2778887198e-03
 43         5.4729219744e-03
 44        -1.2455368982e-01
 45        -6.6711482418e-02
 46         6.0929128426e-02
 47        -8.5732272647e-02
 48        -1.0110587181e-02
 49         2.3538195698e-02
 50        -1.2306021672e-02
 51        -6.7533799700e-03
 52         3.3613791630e-03
 53        -1.6544385970e-03
 54        -5.3989245677e-04
 55         1.2111914922e-02
 56         4.1376034927e-03
 57         1.1010361589e-03
 58         8.8260926767e-02
 59         8.1168204423e-02
 60         2.6956431163e-02
 61         2.3897365358e-03
 62        -7.2597597814e-03
 63         1.6399432383e-02
 64        -7.9401006879e-03
 65        -3.3356714351e-03
 66         7.9259664290e-04
 67         4.1034669336e-04
 68        -6.9571414150e-04
 69        -1.0722910137e-03
 70         2.9284152920e-03
 71         3.4061764166e-02
 72         3.7195139316e-03
 73        -1.9822469812e-03
 74        -9.2058109317e-03
 75         2.5295088744e-04
 76        -5.9842044693e-02
 77        -5.4106109290e-04
 78         5.8720088741e-03
 79         8.8305890442e-03
 80        -2.1741508564e-03
 81        -6.9473712445e-02
 82        -4.6612243355e-03
 83         8.1761663535e-03
 84        -5.5847231077e-03
 85         5.8378427576e-03
 86        -3.2820115277e-02
 87         1.1931667240e-03
 88        -4.8698833998e-04
 89        -5.8149504919e-03
 90         2.1038455884e-04
 91        -8.1512584084e-02
 92        -8.7119741965e-03
 93        -1.3074678823e-02
 94        -9.1969336019e-04
 95         2.0680122512e-03
 96        -9.5402418427e-02
 97        -1.2202001692e-02
 98        -8.5044035968e-03
 99         1.0761252571e-02
100        -6.3882543265e-03
 Sym= A
 Ene=        -7.3172458498e-01
 Spin= Alpha
 Occup=         2.0000000000e+00
  1         1.6281174011e-02
  2        -2.2714008803e-01
  3        -1.2674983987e-01
  4         5.4466219796e-02
  5         9.3013337850e-03
  6         1.3798164024e-02
  7         2.5978927840e-03
  8         1.0183651430e-03
  9         2.8556317458e-03
 10         3.1094694579e-03
 11        -2.5859452230e-03
 12        -2.2481382499e-03
 13        -5.4803249497e-03
 14         4.9634453316e-05
 15         8.8704615062e-03
 16        -1.3458679808e-01
 17        -1.0154251383e-01
 18        -1.0962046916e-01
 19        -7.6474685575e-02
 20        -6.6462990273e-03
 21        -4.7650416712e-02
 22        -1.2641217364e-02
 23        -6.5636521356e-03
 24         2.3662616768e-03
 25        -4.1451259607e-03
 26        -2.5668648619e-03
 27        -1.4512827452e-02
 28         3.9728625904e-04
 29        -1.3407381319e-02
 30         1.9880958688e-01
 31         1.2981220468e-01
 32         1.0170755957e-02
 33        -1.1980668913e-01
 34        -4.4989696808e-03
 35         1.8866433458e-02
 36        -3.3342956960e-02
 37        -2.8823153883e-04
 38        -3.3673601722e-03
 39         1.7923439837e-04
 40         1.9972219870e-03
 41        -6.7962493963e-03
 42        -1.2130944622e-02
 43        -9.9735784699e-03
 44         2.5170244379e-01
 45         1.4019482513e-01
 46        -7.2635411980e-02
 47         5.9775242972e-02
 48         1.1134629529e-02
 49        -2.2656967728e-02
 50         9.4618829508e-03
 51         2.6827120003e-03