Generated by Psi4
        SP                           RHF                       CC-PVDZ
Number of atoms                            I               11
Charge                                     I                0
Multiplicity                               I                1
Number of electrons                        I               38
Number of alpha electrons                  I               19
Number of beta electrons                   I               19
Number of basis functions                  I              100
Number of independent functions            I              100
Atomic numbers                             I   N=          11
           6           6           6           6           8           1
           1           1           1           1           1
Nuclear charges                            R   N=          11
  6.00000000e+00  6.00000000e+00  6.00000000e+00  6.00000000e+00  8.00000000e+00
  1.00000000e+00  1.00000000e+00  1.00000000e+00  1.00000000e+00  1.00000000e+00
  1.00000000e+00
Current cartesian coordinates              R   N=          33
  2.02187937e+00  2.71160954e+00 -2.15312506e-01 -7.88772339e-01  2.38487816e+00
 -1.07132999e-01 -2.08660931e+00  1.91243429e-01  1.21780915e-02 -9.23108755e-01
 -2.34100245e+00  7.04719095e-02  1.33746692e+00 -2.76505041e+00  2.19961699e-01
  2.94592256e+00  1.18284726e+00 -1.27123817e+00  2.52734692e+00  4.56648022e+00
 -1.00897870e+00  2.81538506e+00  2.62016311e+00  1.71550375e+00 -2.30107233e+00
 -3.94787397e+00 -2.90617419e-02 -4.15478294e+00  2.43833959e-01  6.22186251e-02
 -1.90556658e+00  4.13171240e+00 -1.04191565e-01
Integer atomic weights                     I   N=          11
          12          12          12          12          16           1
           1           1           1           1           1
Real atomic weights                        R   N=          11
  1.20000000e+01  1.20000000e+01  1.20000000e+01  1.20000000e+01  1.59949146e+01
  1.00782503e+00  1.00782503e+00  1.00782503e+00  1.00782503e+00  1.00782503e+00
  1.00782503e+00
Number of primitive shells                 I              140
Number of contracted shells                I               48
Pure/Cartesian d shells                    I                0
Pure/Cartesian f shells                    I                0
Highest angular momentum                   I                2
Largest degree of contraction              I                8
Shell types                                I   N=          48
           0           0           0           1           1          -2
           0           0           0           1           1          -2
           0           0           0           1           1          -2
           0           0           0           1           1          -2
           0           0           0           1           1          -2
           0           0           1           0           0           1
           0           0           1           0           0           1
           0           0           1           0           0           1
Number of primitives per shell             I   N=          48
           8           8           1           3           1           1
           8           8           1           3           1           1
           8           8           1           3           1           1
           8           8           1           3           1           1
           8           8           1           3           1           1
           3           1           1           3           1           1
           3           1           1           3           1           1
           3           1           1           3           1           1
Shell to atom map                          I   N=          48
           1           1           1           1           1           1
           2           2           2           2           2           2
           3           3           3           3           3           3
           4           4           4           4           4           4
           5           5           5           5           5           5
           6           6           6           7           7           7
           8           8           8           9           9           9
          10          10          10          11          11          11
Primitive exponents                        R   N=         140
  6.66500000e+03  1.00000000e+03  2.28000000e+02  6.47100000e+01  2.10600000e+01
  7.49500000e+00  2.79700000e+00  5.21500000e-01  6.66500000e+03  1.00000000e+03
  2.28000000e+02  6.47100000e+01  2.10600000e+01  7.49500000e+00  2.79700000e+00
  5.21500000e-01  1.59600000e-01  9.43900000e+00  2.00200000e+00  5.45600000e-01
  1.51700000e-01  5.50000000e-01  6.66500000e+03  1.00000000e+03  2.28000000e+02
  6.47100000e+01  2.10600000e+01  7.49500000e+00  2.79700000e+00  5.21500000e-01
  6.66500000e+03  1.00000000e+03  2.28000000e+02  6.47100000e+01  2.10600000e+01
  7.49500000e+00  2.79700000e+00  5.21500000e-01  1.59600000e-01  9.43900000e+00
  2.00200000e+00  5.45600000e-01  1.51700000e-01  5.50000000e-01  6.66500000e+03
  1.00000000e+03  2.28000000e+02  6.47100000e+01  2.10600000e+01  7.49500000e+00
  2.79700000e+00  5.21500000e-01  6.66500000e+03  1.00000000e+03  2.28000000e+02
  6.47100000e+01  2.10600000e+01  7.49500000e+00  2.79700000e+00  5.21500000e-01
  1.59600000e-01  9.43900000e+00  2.00200000e+00  5.45600000e-01  1.51700000e-01
  5.50000000e-01  6.66500000e+03  1.00000000e+03  2.28000000e+02  6.47100000e+01
  2.10600000e+01  7.49500000e+00  2.79700000e+00  5.21500000e-01  6.66500000e+03
  1.00000000e+03  2.28000000e+02  6.47100000e+01  2.10600000e+01  7.49500000e+00
  2.79700000e+00  5.21500000e-01  1.59600000e-01  9.43900000e+00  2.00200000e+00
  5.45600000e-01  1.51700000e-01  5.50000000e-01  1.17200000e+04  1.75900000e+03
  4.00800000e+02  1.13700000e+02  3.70300000e+01  1.32700000e+01  5.02500000e+00
  1.01300000e+00  1.17200000e+04  1.75900000e+03  4.00800000e+02  1.13700000e+02
  3.70300000e+01  1.32700000e+01  5.02500000e+00  1.01300000e+00  3.02300000e-01
  1.77000000e+01  3.85400000e+00  1.04600000e+00  2.75300000e-01  1.18500000e+00
  1.30100000e+01  1.96200000e+00  4.44600000e-01  1.22000000e-01  7.27000000e-01
  1.30100000e+01  1.96200000e+00  4.44600000e-01  1.22000000e-01  7.27000000e-01
  1.30100000e+01  1.96200000e+00  4.44600000e-01  1.22000000e-01  7.27000000e-01
  1.30100000e+01  1.96200000e+00  4.44600000e-01  1.22000000e-01  7.27000000e-01
  1.30100000e+01  1.96200000e+00  4.44600000e-01  1.22000000e-01  7.27000000e-01
  1.30100000e+01  1.96200000e+00  4.44600000e-01  1.22000000e-01  7.27000000e-01
Contraction coefficients                   R   N=         140
  6.91583963e-04  5.32579615e-03  2.70607210e-02  1.01656846e-01  2.74574824e-01
  4.48294319e-01  2.84902611e-01  1.51948592e-02 -2.93269653e-04 -2.31803547e-03
 -1.14997860e-02 -4.68267270e-02 -1.28466169e-01 -3.01266272e-01 -2.55630702e-01
  1.09379336e+00  1.00000000e+00  5.69792516e-02  3.13207212e-01  7.60376742e-01
  1.00000000e+00  1.00000000e+00  6.91583963e-04  5.32579615e-03  2.70607210e-02
  1.01656846e-01  2.74574824e-01  4.48294319e-01  2.84902611e-01  1.51948592e-02
 -2.93269653e-04 -2.31803547e-03 -1.14997860e-02 -4.68267270e-02 -1.28466169e-01
 -3.01266272e-01 -2.55630702e-01  1.09379336e+00  1.00000000e+00  5.69792516e-02
  3.13207212e-01  7.60376742e-01  1.00000000e+00  1.00000000e+00  6.91583963e-04
  5.32579615e-03  2.70607210e-02  1.01656846e-01  2.74574824e-01  4.48294319e-01
  2.84902611e-01  1.51948592e-02 -2.93269653e-04 -2.31803547e-03 -1.14997860e-02
 -4.68267270e-02 -1.28466169e-01 -3.01266272e-01 -2.55630702e-01  1.09379336e+00
  1.00000000e+00  5.69792516e-02  3.13207212e-01  7.60376742e-01  1.00000000e+00
  1.00000000e+00  6.91583963e-04  5.32579615e-03  2.70607210e-02  1.01656846e-01
  2.74574824e-01  4.48294319e-01  2.84902611e-01  1.51948592e-02 -2.93269653e-04
 -2.31803547e-03 -1.14997860e-02 -4.68267270e-02 -1.28466169e-01 -3.01266272e-01
 -2.55630702e-01  1.09379336e+00  1.00000000e+00  5.69792516e-02  3.13207212e-01
  7.60376742e-01  1.00000000e+00  1.00000000e+00  7.09645947e-04  5.46727229e-03
  2.78231186e-02  1.04747740e-01  2.82920846e-01  4.48495239e-01  2.70816885e-01
  1.54502916e-02 -3.14443412e-04 -2.48213768e-03 -1.23163554e-02 -5.05389173e-02
 -1.39384903e-01 -3.25077495e-01 -2.29848308e-01  1.09537935e+00  1.00000000e+00
  6.26791663e-02  3.33536566e-01  7.41239642e-01  1.00000000e+00  1.00000000e+00
  3.34987264e-02  2.34800801e-01  8.13682958e-01  1.00000000e+00  1.00000000e+00
  3.34987264e-02  2.34800801e-01  8.13682958e-01  1.00000000e+00  1.00000000e+00
  3.34987264e-02  2.34800801e-01  8.13682958e-01  1.00000000e+00  1.00000000e+00
  3.34987264e-02  2.34800801e-01  8.13682958e-01  1.00000000e+00  1.00000000e+00
  3.34987264e-02  2.34800801e-01  8.13682958e-01  1.00000000e+00  1.00000000e+00
  3.34987264e-02  2.34800801e-01  8.13682958e-01  1.00000000e+00  1.00000000e+00
Coordinates of each shell                  R   N=         144
  2.02187937e+00  2.71160954e+00 -2.15312506e-01  2.02187937e+00  2.71160954e+00
 -2.15312506e-01  2.02187937e+00  2.71160954e+00 -2.15312506e-01  2.02187937e+00
  2.71160954e+00 -2.15312506e-01  2.02187937e+00  2.71160954e+00 -2.15312506e-01
  2.02187937e+00  2.71160954e+00 -2.15312506e-01 -7.88772339e-01  2.38487816e+00
 -1.07132999e-01 -7.88772339e-01  2.38487816e+00 -1.07132999e-01 -7.88772339e-01
  2.38487816e+00 -1.07132999e-01 -7.88772339e-01  2.38487816e+00 -1.07132999e-01
 -7.88772339e-01  2.38487816e+00 -1.07132999e-01 -7.88772339e-01  2.38487816e+00
 -1.07132999e-01 -2.08660931e+00  1.91243429e-01  1.21780915e-02 -2.08660931e+00
  1.91243429e-01  1.21780915e-02 -2.08660931e+00  1.91243429e-01  1.21780915e-02
 -2.08660931e+00  1.91243429e-01  1.21780915e-02 -2.08660931e+00  1.91243429e-01
  1.21780915e-02 -2.08660931e+00  1.91243429e-01  1.21780915e-02 -9.23108755e-01
 -2.34100245e+00  7.04719095e-02 -9.23108755e-01 -2.34100245e+00  7.04719095e-02
 -9.23108755e-01 -2.34100245e+00  7.04719095e-02 -9.23108755e-01 -2.34100245e+00
  7.04719095e-02 -9.23108755e-01 -2.34100245e+00  7.04719095e-02 -9.23108755e-01
 -2.34100245e+00  7.04719095e-02  1.33746692e+00 -2.76505041e+00  2.19961699e-01
  1.33746692e+00 -2.76505041e+00  2.19961699e-01  1.33746692e+00 -2.76505041e+00
  2.19961699e-01  1.33746692e+00 -2.76505041e+00  2.19961699e-01  1.33746692e+00
 -2.76505041e+00  2.19961699e-01  1.33746692e+00 -2.76505041e+00  2.19961699e-01
  2.94592256e+00  1.18284726e+00 -1.27123817e+00  2.94592256e+00  1.18284726e+00
 -1.27123817e+00  2.94592256e+00  1.18284726e+00 -1.27123817e+00  2.52734692e+00
  4.56648022e+00 -1.00897870e+00  2.52734692e+00  4.56648022e+00 -1.00897870e+00
  2.52734692e+00  4.56648022e+00 -1.00897870e+00  2.81538506e+00  2.62016311e+00
  1.71550375e+00  2.81538506e+00  2.62016311e+00  1.71550375e+00  2.81538506e+00
  2.62016311e+00  1.71550375e+00 -2.30107233e+00 -3.94787397e+00 -2.90617419e-02
 -2.30107233e+00 -3.94787397e+00 -2.90617419e-02 -2.30107233e+00 -3.94787397e+00
 -2.90617419e-02 -4.15478294e+00  2.43833959e-01  6.22186251e-02 -4.15478294e+00
  2.43833959e-01  6.22186251e-02 -4.15478294e+00  2.43833959e-01  6.22186251e-02
 -1.90556658e+00  4.13171240e+00 -1.04191565e-01 -1.90556658e+00  4.13171240e+00
 -1.04191565e-01 -1.90556658e+00  4.13171240e+00 -1.04191565e-01
Total Energy                               R     -2.312416192919898e+02
Alpha Orbital Energies                     R   N=         100
 -1.91347278e+01 -1.02727990e+01 -1.02227152e+01 -1.01973958e+01 -1.01923924e+01
 -1.03874473e+00 -8.09182318e-01 -7.18087304e-01 -6.29189028e-01 -5.32691501e-01
 -4.96212419e-01 -4.42105252e-01 -4.31358478e-01 -4.21179638e-01 -3.86165163e-01
 -3.79235726e-01 -3.74556339e-01 -2.73765837e-01 -2.49849869e-01 -6.56453665e-02
  5.58720322e-02  6.17397049e-02  8.81657571e-02  1.04356429e-01  1.29785074e-01
  1.46026396e-01  1.54862956e-01  2.16146826e-01  2.60029496e-01  3.23782880e-01
  3.40685615e-01  4.29681828e-01  4.38249466e-01  4.52572059e-01  4.77103950e-01
  4.84113105e-01  5.08306411e-01  5.26241035e-01  5.61450536e-01  6.04508888e-01
  6.13468001e-01  6.26462422e-01  6.35360886e-01  6.48801571e-01  6.62653277e-01
  6.85463385e-01  7.01011996e-01  7.65564873e-01  8.28289899e-01  8.55139123e-01
  9.11744920e-01  9.34855211e-01  9.78568011e-01  9.90611177e-01  1.02024275e+00
  1.03744031e+00  1.07798720e+00  1.15646950e+00  1.18120832e+00  1.19878358e+00
  1.29759577e+00  1.36391626e+00  1.38848703e+00  1.44553812e+00  1.47407459e+00
  1.49343054e+00  1.54721683e+00  1.56486103e+00  1.61846099e+00  1.62169151e+00
  1.64779521e+00  1.66504360e+00  1.67108832e+00  1.68920927e+00  1.72798769e+00
  1.75211306e+00  1.78865109e+00  1.80472141e+00  1.84731559e+00  1.91915137e+00
  1.95779369e+00  1.97723407e+00  2.01519612e+00  2.06562203e+00  2.11066457e+00
  2.22601178e+00  2.31070571e+00  2.33381617e+00  2.39585517e+00  2.41300662e+00
  2.42539958e+00  2.48985479e+00  2.57778605e+00  2.65135719e+00  2.69509640e+00
  2.78714051e+00  2.96545563e+00  3.06611868e+00  3.42028469e+00  3.48047190e+00
Alpha MO coefficients                      R   N=       10000
 -4.38017984e-05 -9.87652419e-05 -3.10988111e-05  6.50710793e-05  2.27686277e-05
  1.49090447e-05 -9.41415839e-07  8.34614253e-05  1.86525907e-04  5.11820652e-05
  2.70267825e-05  5.95933863e-05  5.83566707e-05 -1.05173397e-04 -2.30325325e-04
 -4.08837908e-04  5.90835869e-03 -1.89199399e-05 -1.03683468e-05 -2.15700227e-05
 -1.11248332e-03 -2.60902871e-03  1.91430661e-04 -4.40068341e-05 -9.17501940e-06
  4.11539067e-07 -4.39293567e-05 -3.88484120e-05  2.25565719e-04  3.46974402e-04
 -4.62454892e-03  2.01380910e-05  2.92198994e-04 -1.70329457e-05 -4.82645819e-03
 -3.63541002e-03  4.79952200e-05  1.45682691e-04 -5.33640158e-06  5.69789227e-05
 -3.23577126e-04  5.12979763e-04  4.41652279e-04  5.76704739e-04  5.48779852e-03
 -1.10090389e-04 -1.72194398e-04 -6.95331796e-06  6.70162295e-03  6.43719625e-04
  3.61034731e-04 -4.32154748e-05 -5.41949823e-05  2.74558206e-05 -1.14826847e-03
  5.30092080e-04  1.00417100e+00  9.47202290e-03 -1.51673275e-02 -1.82812068e-03
  3.65576556e-04 -1.37350543e-04  3.50049150e-03 -8.71181675e-04  2.53855150e-04
 -2.07586079e-05  8.33230303e-06 -3.35699040e-08  6.57538280e-05  7.92879744e-06
 -8.12235375e-05 -2.52133025e-05  5.52714826e-05  4.07520739e-05 -5.81239019e-06
  1.05868967e-04  2.77789579e-04 -6.59578130e-05 -7.99048928e-05  2.75184013e-05
 -5.46104725e-05 -2.35559542e-04  5.58560692e-05  3.56771751e-05  4.29611379e-05
 -1.25750176e-04  9.69826654e-04 -7.62555732e-04  1.21429938e-04 -4.23526134e-05
 -2.69575458e-04 -1.36412506e-03  1.89440838e-04  2.61511703e-04  1.09403692e-05
 -1.74362922e-04  2.98069241e-04  5.77263572e-05  8.96478860e-05 -1.18573218e-05
 -3.31370370e-04 -4.26340992e-04  8.34914937e-04  2.97475685e-04  5.56693841e-05
 -1.04877347e-05 -5.81434346e-04  2.91496072e-04  1.15430784e-04  1.79743422e-05
 -1.21854866e-05  3.41135107e-05 -1.26637562e-04 -7.88140554e-05 -4.25927721e-04
 -6.30115612e-04  7.03832668e-03 -2.69276014e-04 -2.79417958e-05  1.21016590e-05
 -2.40242730e-03 -4.13415764e-03  2.32324953e-04 -4.44276359e-04 -7.45630705e-05
 -4.69389171e-05  3.38740440e-04  3.90148105e-04  1.62927961e-03 -2.35281131e-04
 -2.46112722e-03 -3.39442863e-04  7.47448401e-04 -1.25941713e-05 -2.81822335e-03
 -6.30382581e-03  2.24958022e-04  1.05833873e-03 -4.67690828e-05  6.41074507e-05
  1.17934143e-03  8.01627371e-04  1.00592591e+00  1.52501710e-02 -1.08371086e-02
  7.16387510e-04 -4.92643757e-04  5.31539039e-05  5.46339350e-03 -2.11531928e-03
  2.50932465e-04 -1.64192148e-03  2.63427899e-04  9.34457672e-06  8.14958653e-04
  2.95197514e-05  3.68014732e-04  9.15002761e-04 -5.95022126e-03  7.34309619e-04
 -2.22957349e-04  3.91570105e-05  3.37841691e-03 -2.42951796e-04  2.57545659e-04
  5.59037290e-04 -1.09672638e-04  1.63997646e-05 -7.05532261e-04  2.72780512e-04
 -7.50240595e-05  7.38459834e-05  7.82271666e-05  3.17704552e-05 -1.50472248e-05
 -4.18670223e-05  2.65336071e-04 -5.89968281e-05 -4.63177564e-05 -2.81719080e-06
 -4.94278560e-05 -6.13649735e-05  8.31052148e-05  2.04942611e-05 -2.39933809e-05
 -1.64983493e-03  2.49874607e-03 -1.46442492e-03 -1.44449936e-03 -9.50634315e-05
 -4.83379913e-04 -4.65541306e-04  6.73230250e-05  3.26947329e-04 -1.67146556e-05
 -3.38008304e-05  6.55100410e-04  2.40341388e-04  1.08407075e-04 -1.16400028e-05
  3.32972446e-03 -4.58210154e-04  4.36244839e-03  7.47201598e-04  9.54137616e-05
  5.78238517e-05 -2.31116829e-03 -1.10756527e-03 -4.93119476e-04  7.96431567e-04
  1.25553766e-04 -6.59814699e-06 -1.04149591e-03 -2.34556463e-06  1.00628369e+00
  1.60686293e-02 -1.97847153e-02 -5.49233838e-04  2.35364510e-04  3.60011370e-05
 -2.15579619e-03  3.57283641e-03  5.76716916e-05 -1.09293595e-03 -2.35281536e-06
 -4.01718964e-05 -5.17845738e-04 -2.19983617e-04  1.30613303e-02 -1.30347197e-03
  4.65896958e-03 -7.82310746e-04 -1.10736994e-03  7.71878982e-05  2.67034297e-03
  2.32373691e-03 -2.22948187e-04  8.91600605e-04  7.20859957e-05  1.13633901e-04
  5.74889990e-04 -9.75874214e-04 -2.61043730e-04 -5.09143762e-04  1.03722412e-03
 -4.12366716e-05 -2.06118245e-04  1.12408229e-05 -1.72779324e-04  1.04008208e-03
  1.92909167e-05 -3.42786259e-04 -7.72192824e-06 -9.08719333e-06  1.92880054e-04
 -1.02389825e-04 -3.25490402e-05 -7.19021270e-05 -2.50912295e-04  1.24800745e-04
 -2.47748580e-06  1.74869582e-05 -4.26578535e-05 -2.59144505e-04 -6.28247769e-07
  1.15165273e-05 -1.43277433e-05  4.23040213e-06 -1.20824691e-05  1.39757782e-05
 -4.31400493e-04  1.26914155e-04 -2.56050463e-05  3.68407512e-05  7.82283353e-05
 -3.52966920e-04  2.94336916e-04  7.38175181e-05  8.30454706e-05  6.49260684e-05
 -4.76041446e-04  1.19962657e-03 -1.27835892e-04  1.76459542e-05  1.81428265e-05
 -2.05364984e-05  4.17633593e-04  5.44766657e-05 -5.25113915e-05 -7.35979226e-06
  9.69813110e-05  9.24715501e-04  1.22350200e-04 -2.30383186e-04  1.50842211e-05
 -2.33318724e-03  1.20816302e-03 -1.20816781e-03  1.77431490e-03  9.76330315e-06
  1.66940888e-03  3.95952712e-04  7.67803622e-06 -8.32866327e-05 -1.11772136e-04
  7.92802291e-05  7.10559077e-04 -1.90341408e-04 -1.23479178e-04  3.14681255e-04
  7.59563099e-05 -2.35736430e-05 -8.60336315e-05  2.19763968e-04  1.45964331e-02
  1.80798096e-03 -6.83009711e-03 -6.10851106e-04 -1.21486507e-03  6.63468677e-05
  5.81114181e-04  4.19632681e-03 -1.35992468e-04 -9.32705482e-04 -4.55945378e-05
 -9.68424436e-05 -5.10969884e-04  1.03081239e-03 -1.00648478e+00 -1.65532549e-02
  2.15793576e-02  3.24360903e-04 -3.06923542e-04  3.20718380e-05  5.58325638e-03
  3.57101011e-04 -1.76473606e-04  1.08847029e-03  7.99997776e-05  6.80694287e-05
 -3.74015459e-04 -3.90686683e-04  1.94962208e-03  8.10453856e-04 -5.78694222e-03
 -2.53028810e-04  7.47692307e-04 -3.24130816e-08 -6.87152773e-04 -3.51229977e-03
  4.78088660e-05 -6.92042952e-04 -3.18763058e-05 -6.42283562e-05 -6.39537980e-04
 -1.18912858e-03 -4.55993798e-05 -7.91546540e-05  9.29089741e-04 -2.65113987e-05
  7.47062284e-05  2.20952070e-05  9.69505311e-05  5.99341937e-04 -4.70254663e-05
  1.31982454e-04 -3.31794112e-05 -1.64312077e-05 -7.46017492e-05 -2.17962617e-04
  1.65005511e-04 -3.91548438e-04 -2.55962072e-05 -4.15543950e-05  5.67678119e-05
 -4.97745734e-05 -2.06175440e-04 -3.50577114e-05  6.92340313e-05  1.40543131e-05
 -5.16369265e-05 -1.25783326e-04 -4.98988391e-05 -6.05695327e-05  1.39352364e-04
  2.46217865e-04 -1.00710688e-03 -7.40859467e-05  2.05125211e-04 -2.27525671e-05
  2.44731259e-03 -7.74895757e-04  2.13858299e-03 -1.71893975e-04 -4.44056120e-05
 -9.81022141e-05 -1.01409172e-03 -2.60456452e-04  2.88050506e-05  1.22692695e-05
  1.00698249e+00  1.74196879e-02 -1.94488113e-02  4.52150870e-04  1.31519648e-04
  1.37016680e-04  2.93703703e-03  1.89813187e-04 -5.50050147e-04  2.19914124e-04
  3.16226115e-05 -5.43800562e-05 -5.87137528e-04 -1.44355894e-04 -3.57804047e-03
 -3.03638607e-04  1.82155774e-03 -4.95960261e-04  5.83935990e-05  2.42216108e-05
  4.51645297e-03  2.35224537e-03 -1.66014161e-04  6.14777155e-04  1.25987384e-04
  2.18713809e-05 -1.34109790e-03 -5.76792554e-04  1.10322731e-03 -5.34747773e-04
  3.48238241e-03 -1.92692243e-04  9.18081493e-05  1.07984853e-05  9.19166218e-04
  2.67070748e-03 -1.64689743e-04 -3.45905668e-04  7.59707563e-06 -2.45438025e-05
 -5.63877934e-04 -2.05827490e-04 -1.03236685e-04 -4.61375749e-04  6.59050363e-04
 -3.27540033e-05 -2.74464275e-04 -8.66325634e-06 -1.13786712e-04  5.31801072e-04
  3.98695270e-05 -1.53794177e-05 -2.23834053e-05  3.81668361e-06  4.23155238e-05
  3.71571352e-05 -7.24763406e-05 -1.44664109e-04  1.63093589e-04  8.73095762e-06
 -1.15452533e-04 -1.02454282e-05 -1.09026249e-04  2.22162967e-04  4.11300114e-05
 -4.31653739e-05  1.51927155e-06  1.71474510e-06  1.65416428e-06 -4.57027820e-07
 -1.23358304e-03  1.91742067e-03  6.99948105e-04 -1.44565515e-03 -1.00398204e-03
 -1.34345905e-03  1.92689059e-03  4.36790594e-04  1.80409042e-03 -7.57051810e-04
 -1.09450803e-03  2.34082806e-03  5.57584456e-04 -9.54294280e-05  1.81396556e-03
  1.65346437e-05  3.89303814e-04  6.63670839e-06  6.92710076e-05 -7.57223604e-06
  5.61508581e-05  3.67081544e-04  9.68752563e-05 -2.05986712e-04  1.00081421e-05
 -4.34208315e-04  2.41215585e-04 -3.68617977e-04 -1.14637702e-04  2.01518216e-05
 -4.82482906e-04  6.37600091e-03  5.70956075e-03 -3.06404152e-03 -3.05594087e-03
 -3.12450829e-05 -3.05735137e-03 -2.57933070e-03  1.00168185e-03 -6.14590366e-04
 -1.99692200e-04 -2.25222761e-04  1.83565381e-04  9.21838798e-04  5.99587674e-04
  1.66021856e-02 -1.32547166e-02 -1.70444999e-04 -1.05884045e-02  5.62731162e-04
 -2.20662168e-03  1.00747453e-02 -5.84702699e-04 -4.47340663e-04 -1.17660454e-04
 -2.58699188e-04 -1.67976521e-03  7.36470732e-04 -3.63429791e-03  3.68311761e-02
  3.28541270e-02  2.08406254e-02 -2.05953580e-02  9.21338768e-04  2.01774469e-02
  1.39595547e-03 -1.49817681e-04 -3.79296281e-03  2.36254337e-04 -5.80975581e-04
 -1.07678682e-03 -9.04691022e-03 -1.45910334e-02  2.24880145e-01  9.44535663e-02
  1.84170328e-01 -2.60433930e-02  1.21182083e-02  1.20612615e-02 -3.08231547e-03
  1.08369514e-03 -1.34477456e-02  3.46712122e-03 -1.04367202e-03  3.09675003e-02
 -1.42017711e-02 -9.11850905e-03  4.02228615e-01  3.60330721e-01 -1.54912684e-01
  3.21400376e-02 -1.06546724e-02 -3.16452167e-02  7.26952048e-03 -2.58138965e-03
 -5.21674515e-03  1.38425743e-03 -5.02837738e-04  1.20629550e-02 -5.19944429e-03
  4.92683793e-03  2.92297653e-03 -6.40813112e-04 -4.86601866e-04  5.88471898e-04
  9.79316566e-04  5.22279726e-05  2.63445075e-05  1.32626790e-05 -4.10278465e-05
  1.81829983e-03  8.37910410e-04 -2.66147555e-04 -1.89094749e-04 -4.38517695e-04
  3.95424248e-02 -3.61043756e-03  1.01868262e-02  5.89044427e-03  6.66222423e-04
  7.21790014e-03  6.03442576e-03  9.60678108e-04 -1.95369050e-03 -1.55979434e-05
  1.80146210e-03 -3.29547183e-03 -2.27042142e-04 -8.36355755e-04  6.76029242e-05
  1.09741426e-02 -1.81036325e-01 -7.48254707e-02  6.54749947e-02  1.30107546e-02
 -4.79235290e-03  3.03661936e-03 -8.46038291e-03  1.04718181e-03  5.62370071e-03
  8.28578341e-04  3.33163994e-05 -9.78112695e-03 -3.62761445e-03  1.98075471e-02
 -2.91499204e-01 -2.01250151e-01 -4.08275452e-04  6.60325775e-02 -2.60964895e-03
 -3.24849432e-02  2.09875026e-02  9.36676463e-05  9.97609151e-03  8.44562416e-04
  8.53562224e-04 -2.68878113e-03 -1.13749411e-02  1.71040252e-02 -2.54394698e-01
 -1.42004513e-01 -5.82184126e-02 -5.76380627e-02  4.54173876e-03 -3.00604714e-03
 -2.40486442e-02  1.17441118e-03  6.93084694e-03  6.41998103e-04  8.75814978e-04
  8.74841239e-03 -9.17197956e-03  2.45650303e-03 -6.39714623e-02 -5.16767698e-02
  6.90149624e-02 -8.04322308e-02  5.25584317e-03  2.50857889e-02 -2.24721008e-02
  1.38955439e-03  2.64847446e-03  6.55997750e-04  3.16797995e-04  1.35721934e-02
  2.64822853e-03 -3.35375318e-04  7.52819415e-02  7.17100080e-02 -1.13947242e-02
 -1.61628917e-02 -2.25065951e-04  1.64598363e-03 -6.69843329e-03  5.66687247e-04
  1.84472474e-04  6.35787362e-05  1.76366241e-04  1.60662524e-03  1.58275726e-03
 -6.69035560e-02 -3.33089095e-03  5.10063113e-03 -7.22961661e-03 -5.28484495e-03
 -6.28260947e-02 -1.49055127e-03  4.07011825e-03  8.74258668e-03 -3.69542503e-03
 -6.75653047e-02 -3.59595831e-03  4.70503494e-03  2.84530820e-04  9.01018806e-03
 -1.80661207e-02  9.82310480e-04  2.54525728e-05 -3.38447206e-03  3.61463196e-05
 -8.45002137e-02 -2.48412800e-03 -1.44065880e-02 -1.44629943e-03  4.64110786e-04
 -1.02152372e-01 -1.28625330e-02 -7.11886932e-03  1.42860096e-02 -2.77945452e-05
  1.40223469e-02 -2.87288157e-01 -1.19438342e-01  1.91654508e-02 -1.07366710e-02
 -4.82718069e-03 -1.74850556e-02 -8.50065543e-03  4.55782885e-04  1.45944603e-03
  1.88407414e-04 -1.79933283e-04 -3.08939129e-03  2.20523612e-03  5.28997156e-03
 -4.83125053e-02 -8.45950709e-02 -1.38926279e-01 -9.49682305e-02  6.93188893e-03
 -9.39871929e-02 -9.10625628e-03  2.90636628e-03  3.85697233e-03  5.48331439e-04
 -3.82780491e-04 -1.71246693e-02  3.08270419e-03 -1.39746870e-02  2.28175908e-01
  1.66437437e-01 -5.89811742e-03 -5.46081988e-02  1.05068412e-03  3.64152026e-02
 -4.08095373e-02  1.45542102e-04 -4.81879972e-03  1.49519640e-04 -3.32537862e-04
 -1.00343280e-02 -4.90961359e-03 -3.06407930e-03  1.51590142e-01  6.13848049e-02
 -1.06720027e-01  7.90396673e-02 -5.40780843e-03 -3.73313448e-02  7.83974786e-03
 -1.77438190e-03 -1.65733171e-03 -5.53614017e-04 -1.20705281e-04 -1.01801349e-02
 -5.08217089e-03 -2.89278118e-04 -8.43854844e-02 -8.35086433e-02 -1.80963949e-02
  1.00618713e-02  3.52614580e-04 -2.04181018e-02  3.55459717e-03 -7.12694576e-04
 -9.65167556e-04  1.47938370e-04  5.74607255e-05  8.72893104e-04 -2.03122923e-03
 -1.21693972e-01 -1.68046718e-02  7.34178621e-03 -1.24811889e-02 -8.50066741e-03
 -1.34745802e-01 -1.60877643e-02  4.61909314e-03  1.59852007e-02 -7.23225171e-03
 -1.30513967e-01 -1.60348255e-02  6.51423480e-03 -1.38219330e-03  1.61334553e-02
  7.01959299e-02  2.47235426e-03  3.51898225e-03  8.58544971e-03  3.00706902e-04
  1.15155857e-01  2.33302890e-02  1.46083088e-02 -1.45158538e-03 -3.19928546e-04
 -2.96530356e-02 -1.64339849e-02 -4.18066072e-03  8.64354095e-04  2.36966452e-04
  5.33258673e-03 -1.75319208e-01 -9.62064821e-02 -7.43633826e-02 -6.96390494e-03
 -1.88429736e-03 -3.81450115e-02 -6.70144103e-03  6.57972602e-03 -4.90651660e-03
 -8.70603088e-04 -1.79053041e-04  7.28755218e-03  1.03280074e-03 -5.25191253e-03
  2.08962829e-01  9.79478281e-02 -1.38831192e-01 -1.56569368e-02  5.54911011e-03
 -4.13870871e-02 -9.67005718e-04 -1.44605418e-04  2.53662063e-03 -2.26406082e-04
 -2.68398363e-04 -4.97915574e-03  2.93180249e-03 -1.33292291e-03 -1.39994210e-03
  9.96806307e-03  1.49350010e-02  2.49086072e-01 -7.57771195e-03  8.12261678e-03
  7.64908157e-02 -1.45355670e-03  4.86047025e-04 -1.74290794e-04 -6.97126760e-04
  2.00464257e-03  1.12165771e-02  2.33895135e-03 -2.37598136e-01 -1.54635614e-01
  1.55992389e-01 -2.91845646e-02  8.94600382e-03  4.85269678e-02 -1.87687307e-02
  3.13841423e-03 -1.10152257e-03  8.95766427e-04 -2.61747347e-05  6.07610726e-03
  2.00301746e-03  9.52443736e-04  1.23455279e-01  1.44116627e-01  5.37329940e-02
 -9.53077121e-03  3.79531654e-03  4.05183619e-02 -6.02214261e-03  3.09856118e-03
  2.55963087e-03 -3.97186576e-04  1.26129390e-04 -2.40804642e-03  7.80959878e-04
 -1.01322140e-01 -8.49208848e-03  3.76838496e-03 -9.69443449e-03 -6.01847662e-03
 -1.01444531e-01 -1.58894267e-02  1.01659746e-03  1.03608084e-02 -4.95032134e-03
 -1.05757856e-01 -2.02569388e-02  3.33014961e-03 -6.90221535e-04  1.11214446e-02
 -1.60043757e-01 -2.82687541e-02 -8.39058990e-03 -1.42799291e-02 -6.44921788e-04
 -5.93463657e-03 -2.78797248e-04 -2.33055356e-04  5.06429104e-03 -1.60968053e-04
  1.45066275e-01  2.50543036e-02  6.56592134e-03 -1.47462518e-02  2.15455225e-04
  1.67137515e-03 -5.08827096e-02 -3.81808949e-02 -1.25351919e-01  8.33066336e-02
  7.19792070e-05 -3.78449795e-02  3.49457021e-02 -1.93942800e-03 -5.53431486e-03
 -4.81126365e-04 -1.59428858e-03  9.94818434e-03 -5.68999758e-03 -2.06645868e-03
  1.43025692e-01  9.42842529e-02  1.39778559e-03  2.23935477e-01 -7.94560551e-03
  2.44843170e-02  7.18186414e-02 -3.31030158e-03  4.26747563e-03  5.18131131e-04
  5.11155142e-04 -3.43497582e-05 -7.08213821e-03  2.68277662e-03 -1.53410173e-01
 -1.02349730e-01 -1.80031495e-02  2.34174039e-03 -2.21757481e-03 -1.77706644e-02
  3.19081618e-02 -1.73971057e-03 -4.31672305e-03  8.54524512e-05 -3.26537830e-04
 -1.34409163e-02  1.74223149e-03  5.25301855e-04  1.57465455e-01  1.20162159e-01
 -6.60693466e-02 -2.37295502e-01 -3.67250323e-03 -4.93561765e-02 -5.39991031e-02
 -2.64269276e-03  5.31558133e-03 -1.00073983e-04  6.57909174e-05 -1.72652637e-05
  1.52743933e-03  1.85811056e-04 -8.64804731e-02 -1.19128850e-01 -1.39037208e-01
 -1.07980516e-01 -5.96915806e-03 -8.27947431e-02 -5.92086630e-02 -3.31989727e-03
 -3.53585621e-03  1.01826262e-03  7.15492764e-04  8.83751755e-03  6.71525516e-03
 -1.13010533e-01 -3.53031586e-02  1.98680633e-03 -5.21710358e-03 -6.31766027e-03
 -7.74132436e-04 -5.24774008e-03 -3.61421694e-03  2.44149252e-03 -2.67339108e-05
 -6.47228662e-02 -2.02840401e-02 -7.57308035e-04  2.30287778e-03  6.10197135e-03
  2.29552997e-01  6.02132647e-02  1.19700291e-02  1.27000287e-02  9.73729643e-04
 -8.24333769e-02 -2.92778258e-02 -8.60406368e-03 -5.02751827e-04  1.84253539e-04
  2.16584949e-01  6.35048254e-02  1.07787735e-02 -1.21446212e-02 -1.99711044e-04
  3.08128573e-03 -4.51532038e-02 -5.24974270e-02 -1.44872586e-01 -9.93725010e-02
  4.89343565e-03 -3.14409055e-02 -3.98997442e-02 -4.42179925e-03 -5.18733598e-03
 -1.30670261e-03  1.95047143e-03  7.58281564e-03  4.80139637e-03  8.74236175e-04
  8.94567069e-02  5.34595517e-02  1.41721674e-01 -1.10564792e-01 -1.87984329e-03
  9.14496356e-02 -2.51821205e-02 -1.28036910e-03  1.95295083e-03  8.17446403e-04
  2.94255490e-04 -9.69439662e-03 -1.04318486e-02  5.38831836e-03 -7.11297955e-02