Generated by Psi4
        SP                           RHF                       CC-PVDZ
Number of atoms                            I               11
Charge                                     I                0
Multiplicity                               I                1
Number of electrons                        I               38
Number of alpha electrons                  I               19
Number of beta electrons                   I               19
Number of basis functions                  I              100
Number of independent functions            I              100
Atomic numbers                             I   N=          11
           6           6           6           6           8           1
           1           1           1           1           1
Nuclear charges                            R   N=          11
  6.00000000e+00  6.00000000e+00  6.00000000e+00  6.00000000e+00  8.00000000e+00
  1.00000000e+00  1.00000000e+00  1.00000000e+00  1.00000000e+00  1.00000000e+00
  1.00000000e+00
Current cartesian coordinates              R   N=          33
  1.95269772e+00  2.60911563e+00 -1.95672876e-01 -8.58926964e-01  2.40218723e+00
 -1.47032006e-01 -2.09699986e+00  2.01549156e-01  1.84676156e-01 -8.54254200e-01
 -2.29096158e+00  7.31354681e-02  1.41202548e+00 -2.70491748e+00  1.07913837e-01
  2.74008554e+00  9.96514702e-01 -1.19922014e+00  2.66104762e+00  4.38941830e+00
 -9.77011531e-01  2.64929600e+00  2.41500642e+00  1.76063193e+00 -2.18703406e+00
 -3.90879365e+00 -1.86909801e-01 -4.16612789e+00  1.32315941e-01  3.14832025e-01
 -1.99040086e+00  4.11409282e+00 -4.14183893e-01
Integer atomic weights                     I   N=          11
          12          12          12          12          16           1
           1           1           1           1           1
Real atomic weights                        R   N=          11
  1.20000000e+01  1.20000000e+01  1.20000000e+01  1.20000000e+01  1.59949146e+01
  1.00782503e+00  1.00782503e+00  1.00782503e+00  1.00782503e+00  1.00782503e+00
  1.00782503e+00
Number of primitive shells                 I              140
Number of contracted shells                I               48
Pure/Cartesian d shells                    I                0
Pure/Cartesian f shells                    I                0
Highest angular momentum                   I                2
Largest degree of contraction              I                8
Shell types                                I   N=          48
           0           0           0           1           1          -2
           0           0           0           1           1          -2
           0           0           0           1           1          -2
           0           0           0           1           1          -2
           0           0           0           1           1          -2
           0           0           1           0           0           1
           0           0           1           0           0           1
           0           0           1           0           0           1
Number of primitives per shell             I   N=          48
           8           8           1           3           1           1
           8           8           1           3           1           1
           8           8           1           3           1           1
           8           8           1           3           1           1
           8           8           1           3           1           1
           3           1           1           3           1           1
           3           1           1           3           1           1
           3           1           1           3           1           1
Shell to atom map                          I   N=          48
           1           1           1           1           1           1
           2           2           2           2           2           2
           3           3           3           3           3           3
           4           4           4           4           4           4
           5           5           5           5           5           5
           6           6           6           7           7           7
           8           8           8           9           9           9
          10          10          10          11          11          11
Primitive exponents                        R   N=         140
  6.66500000e+03  1.00000000e+03  2.28000000e+02  6.47100000e+01  2.10600000e+01
  7.49500000e+00  2.79700000e+00  5.21500000e-01  6.66500000e+03  1.00000000e+03
  2.28000000e+02  6.47100000e+01  2.10600000e+01  7.49500000e+00  2.79700000e+00
  5.21500000e-01  1.59600000e-01  9.43900000e+00  2.00200000e+00  5.45600000e-01
  1.51700000e-01  5.50000000e-01  6.66500000e+03  1.00000000e+03  2.28000000e+02
  6.47100000e+01  2.10600000e+01  7.49500000e+00  2.79700000e+00  5.21500000e-01
  6.66500000e+03  1.00000000e+03  2.28000000e+02  6.47100000e+01  2.10600000e+01
  7.49500000e+00  2.79700000e+00  5.21500000e-01  1.59600000e-01  9.43900000e+00
  2.00200000e+00  5.45600000e-01  1.51700000e-01  5.50000000e-01  6.66500000e+03
  1.00000000e+03  2.28000000e+02  6.47100000e+01  2.10600000e+01  7.49500000e+00
  2.79700000e+00  5.21500000e-01  6.66500000e+03  1.00000000e+03  2.28000000e+02
  6.47100000e+01  2.10600000e+01  7.49500000e+00  2.79700000e+00  5.21500000e-01
  1.59600000e-01  9.43900000e+00  2.00200000e+00  5.45600000e-01  1.51700000e-01
  5.50000000e-01  6.66500000e+03  1.00000000e+03  2.28000000e+02  6.47100000e+01
  2.10600000e+01  7.49500000e+00  2.79700000e+00  5.21500000e-01  6.66500000e+03
  1.00000000e+03  2.28000000e+02  6.47100000e+01  2.10600000e+01  7.49500000e+00
  2.79700000e+00  5.21500000e-01  1.59600000e-01  9.43900000e+00  2.00200000e+00
  5.45600000e-01  1.51700000e-01  5.50000000e-01  1.17200000e+04  1.75900000e+03
  4.00800000e+02  1.13700000e+02  3.70300000e+01  1.32700000e+01  5.02500000e+00
  1.01300000e+00  1.17200000e+04  1.75900000e+03  4.00800000e+02  1.13700000e+02
  3.70300000e+01  1.32700000e+01  5.02500000e+00  1.01300000e+00  3.02300000e-01
  1.77000000e+01  3.85400000e+00  1.04600000e+00  2.75300000e-01  1.18500000e+00
  1.30100000e+01  1.96200000e+00  4.44600000e-01  1.22000000e-01  7.27000000e-01
  1.30100000e+01  1.96200000e+00  4.44600000e-01  1.22000000e-01  7.27000000e-01
  1.30100000e+01  1.96200000e+00  4.44600000e-01  1.22000000e-01  7.27000000e-01
  1.30100000e+01  1.96200000e+00  4.44600000e-01  1.22000000e-01  7.27000000e-01
  1.30100000e+01  1.96200000e+00  4.44600000e-01  1.22000000e-01  7.27000000e-01
  1.30100000e+01  1.96200000e+00  4.44600000e-01  1.22000000e-01  7.27000000e-01
Contraction coefficients                   R   N=         140
  6.91583963e-04  5.32579615e-03  2.70607210e-02  1.01656846e-01  2.74574824e-01
  4.48294319e-01  2.84902611e-01  1.51948592e-02 -2.93269653e-04 -2.31803547e-03
 -1.14997860e-02 -4.68267270e-02 -1.28466169e-01 -3.01266272e-01 -2.55630702e-01
  1.09379336e+00  1.00000000e+00  5.69792516e-02  3.13207212e-01  7.60376742e-01
  1.00000000e+00  1.00000000e+00  6.91583963e-04  5.32579615e-03  2.70607210e-02
  1.01656846e-01  2.74574824e-01  4.48294319e-01  2.84902611e-01  1.51948592e-02
 -2.93269653e-04 -2.31803547e-03 -1.14997860e-02 -4.68267270e-02 -1.28466169e-01
 -3.01266272e-01 -2.55630702e-01  1.09379336e+00  1.00000000e+00  5.69792516e-02
  3.13207212e-01  7.60376742e-01  1.00000000e+00  1.00000000e+00  6.91583963e-04
  5.32579615e-03  2.70607210e-02  1.01656846e-01  2.74574824e-01  4.48294319e-01
  2.84902611e-01  1.51948592e-02 -2.93269653e-04 -2.31803547e-03 -1.14997860e-02
 -4.68267270e-02 -1.28466169e-01 -3.01266272e-01 -2.55630702e-01  1.09379336e+00
  1.00000000e+00  5.69792516e-02  3.13207212e-01  7.60376742e-01  1.00000000e+00
  1.00000000e+00  6.91583963e-04  5.32579615e-03  2.70607210e-02  1.01656846e-01
  2.74574824e-01  4.48294319e-01  2.84902611e-01  1.51948592e-02 -2.93269653e-04
 -2.31803547e-03 -1.14997860e-02 -4.68267270e-02 -1.28466169e-01 -3.01266272e-01
 -2.55630702e-01  1.09379336e+00  1.00000000e+00  5.69792516e-02  3.13207212e-01
  7.60376742e-01  1.00000000e+00  1.00000000e+00  7.09645947e-04  5.46727229e-03
  2.78231186e-02  1.04747740e-01  2.82920846e-01  4.48495239e-01  2.70816885e-01
  1.54502916e-02 -3.14443412e-04 -2.48213768e-03 -1.23163554e-02 -5.05389173e-02
 -1.39384903e-01 -3.25077495e-01 -2.29848308e-01  1.09537935e+00  1.00000000e+00
  6.26791663e-02  3.33536566e-01  7.41239642e-01  1.00000000e+00  1.00000000e+00
  3.34987264e-02  2.34800801e-01  8.13682958e-01  1.00000000e+00  1.00000000e+00
  3.34987264e-02  2.34800801e-01  8.13682958e-01  1.00000000e+00  1.00000000e+00
  3.34987264e-02  2.34800801e-01  8.13682958e-01  1.00000000e+00  1.00000000e+00
  3.34987264e-02  2.34800801e-01  8.13682958e-01  1.00000000e+00  1.00000000e+00
  3.34987264e-02  2.34800801e-01  8.13682958e-01  1.00000000e+00  1.00000000e+00
  3.34987264e-02  2.34800801e-01  8.13682958e-01  1.00000000e+00  1.00000000e+00
Coordinates of each shell                  R   N=         144
  1.95269772e+00  2.60911563e+00 -1.95672876e-01  1.95269772e+00  2.60911563e+00
 -1.95672876e-01  1.95269772e+00  2.60911563e+00 -1.95672876e-01  1.95269772e+00
  2.60911563e+00 -1.95672876e-01  1.95269772e+00  2.60911563e+00 -1.95672876e-01
  1.95269772e+00  2.60911563e+00 -1.95672876e-01 -8.58926964e-01  2.40218723e+00
 -1.47032006e-01 -8.58926964e-01  2.40218723e+00 -1.47032006e-01 -8.58926964e-01
  2.40218723e+00 -1.47032006e-01 -8.58926964e-01  2.40218723e+00 -1.47032006e-01
 -8.58926964e-01  2.40218723e+00 -1.47032006e-01 -8.58926964e-01  2.40218723e+00
 -1.47032006e-01 -2.09699986e+00  2.01549156e-01  1.84676156e-01 -2.09699986e+00
  2.01549156e-01  1.84676156e-01 -2.09699986e+00  2.01549156e-01  1.84676156e-01
 -2.09699986e+00  2.01549156e-01  1.84676156e-01 -2.09699986e+00  2.01549156e-01
  1.84676156e-01 -2.09699986e+00  2.01549156e-01  1.84676156e-01 -8.54254200e-01
 -2.29096158e+00  7.31354681e-02 -8.54254200e-01 -2.29096158e+00  7.31354681e-02
 -8.54254200e-01 -2.29096158e+00  7.31354681e-02 -8.54254200e-01 -2.29096158e+00
  7.31354681e-02 -8.54254200e-01 -2.29096158e+00  7.31354681e-02 -8.54254200e-01
 -2.29096158e+00  7.31354681e-02  1.41202548e+00 -2.70491748e+00  1.07913837e-01
  1.41202548e+00 -2.70491748e+00  1.07913837e-01  1.41202548e+00 -2.70491748e+00
  1.07913837e-01  1.41202548e+00 -2.70491748e+00  1.07913837e-01  1.41202548e+00
 -2.70491748e+00  1.07913837e-01  1.41202548e+00 -2.70491748e+00  1.07913837e-01
  2.74008554e+00  9.96514702e-01 -1.19922014e+00  2.74008554e+00  9.96514702e-01
 -1.19922014e+00  2.74008554e+00  9.96514702e-01 -1.19922014e+00  2.66104762e+00
  4.38941830e+00 -9.77011531e-01  2.66104762e+00  4.38941830e+00 -9.77011531e-01
  2.66104762e+00  4.38941830e+00 -9.77011531e-01  2.64929600e+00  2.41500642e+00
  1.76063193e+00  2.64929600e+00  2.41500642e+00  1.76063193e+00  2.64929600e+00
  2.41500642e+00  1.76063193e+00 -2.18703406e+00 -3.90879365e+00 -1.86909801e-01
 -2.18703406e+00 -3.90879365e+00 -1.86909801e-01 -2.18703406e+00 -3.90879365e+00
 -1.86909801e-01 -4.16612789e+00  1.32315941e-01  3.14832025e-01 -4.16612789e+00
  1.32315941e-01  3.14832025e-01 -4.16612789e+00  1.32315941e-01  3.14832025e-01
 -1.99040086e+00  4.11409282e+00 -4.14183893e-01 -1.99040086e+00  4.11409282e+00
 -4.14183893e-01 -1.99040086e+00  4.11409282e+00 -4.14183893e-01
Total Energy                               R     -2.312386454144214e+02
Alpha Orbital Energies                     R   N=         100
 -1.91347586e+01 -1.02722951e+01 -1.02228030e+01 -1.01972688e+01 -1.01876318e+01
 -1.03994097e+00 -8.12997521e-01 -7.17215518e-01 -6.28724772e-01 -5.35041741e-01
 -4.97447203e-01 -4.41003111e-01 -4.32612545e-01 -4.23331626e-01 -3.84897648e-01
 -3.80706521e-01 -3.75736939e-01 -2.74307195e-01 -2.48334515e-01 -6.41068065e-02
  4.94308155e-02  6.50960510e-02  9.08225723e-02  1.06186210e-01  1.30246179e-01
  1.44985483e-01  1.62283870e-01  2.17386076e-01  2.65155887e-01  3.21164431e-01
  3.39123072e-01  4.34710025e-01  4.36487087e-01  4.51520127e-01  4.71355163e-01
  4.84758789e-01  5.07099807e-01  5.27413687e-01  5.67886101e-01  5.95755179e-01
  6.17776445e-01  6.27624082e-01  6.40226545e-01  6.52665506e-01  6.78159739e-01
  6.85235759e-01  7.05367609e-01  7.72587386e-01  8.13575167e-01  8.49700384e-01
  9.12624466e-01  9.20570410e-01  9.57345863e-01  1.02128850e+00  1.02924151e+00
  1.05481124e+00  1.08400681e+00  1.14203800e+00  1.18185182e+00  1.19247749e+00
  1.28974001e+00  1.36524979e+00  1.39920078e+00  1.47753283e+00  1.49419228e+00
  1.49572365e+00  1.54862192e+00  1.56755490e+00  1.62045936e+00  1.63068195e+00
  1.65581141e+00  1.66358000e+00  1.67242454e+00  1.69731352e+00  1.73464998e+00
  1.75597531e+00  1.78727816e+00  1.80310053e+00  1.85549497e+00  1.92481825e+00
  1.96646599e+00  1.97870963e+00  2.01758417e+00  2.06744913e+00  2.10302116e+00
  2.25331598e+00  2.31781708e+00  2.35002850e+00  2.40278595e+00  2.41616882e+00
  2.42407139e+00  2.49798709e+00  2.57849559e+00  2.64784937e+00  2.69965364e+00
  2.79797603e+00  2.98849087e+00  3.06774270e+00  3.41915139e+00  3.47678369e+00
Alpha MO coefficients                      R   N=       10000
 -7.29914632e-05 -1.51375941e-04  8.18660149e-05  6.51067351e-05  4.52227863e-05
  8.99502153e-06 -5.00034280e-05 -1.76816466e-04  1.59335077e-04  7.67499726e-05
  3.47952421e-05  3.48532614e-05  7.54979573e-05 -9.72594043e-05 -2.01429776e-04
 -3.59005757e-04  5.32245414e-03 -2.31048649e-05 -2.13469281e-05 -6.36927005e-05
 -9.37547319e-04 -2.15955592e-03  5.26821062e-04 -3.08484373e-05  3.62823842e-05
 -2.33406670e-05 -5.09525043e-05 -5.46099380e-05  2.05071523e-04  3.16657681e-04
 -3.79294500e-03  2.66359017e-05  2.74505413e-04 -8.38993530e-06 -4.42873894e-03
 -3.59162544e-03  3.09899297e-04  1.24629945e-04  5.94788519e-05  9.33025618e-05
 -4.00498892e-04  4.89108546e-04  4.55048088e-04  5.94844465e-04  5.27897100e-03
 -1.01055493e-04 -1.83222319e-04 -3.43780245e-05  6.56588298e-03  4.43098673e-04
  8.94915349e-05 -6.57373531e-06  2.19098938e-05  9.88279604e-05 -1.15651407e-03
  5.29302073e-04  1.00416652e+00  9.46767491e-03 -1.50588286e-02 -1.83855930e-03
  3.68845074e-04 -4.58517043e-05  3.49252236e-03 -8.42227891e-04  7.28652113e-05
 -1.90533642e-05  1.22877206e-06 -4.12125763e-06  6.98343124e-05  6.82132513e-06
 -1.20337657e-04 -1.31182837e-04  3.38766869e-05 -1.92709152e-05  3.08201374e-05
  1.24696898e-04  3.69814091e-04 -7.47274559e-05 -6.67699075e-05  4.54228434e-05
 -1.11527116e-04 -2.42815428e-04  6.86794785e-05  6.52324902e-05  5.91279369e-05
 -1.89619585e-04  8.59314206e-04 -7.63393062e-04  1.01690945e-04 -2.51779997e-07
 -2.93281776e-04 -1.28583893e-03  1.78389110e-04  2.44124082e-04 -2.06368528e-06
 -1.83501397e-04  2.15989892e-04  3.88030682e-05  7.97454937e-05 -3.09705451e-05
 -3.74762503e-04 -5.00664524e-04  9.01472440e-04  2.89129934e-04  7.25310741e-05
 -2.87375455e-07 -6.51042912e-04  2.68521296e-05  1.96129058e-05 -2.17393694e-05
 -7.57608213e-05  3.90046309e-07 -1.14294143e-04 -2.90871178e-05 -4.29633604e-04
 -6.29844506e-04  6.44105655e-03 -2.74407483e-04 -2.63476841e-05  5.43208539e-05
 -2.10273519e-03 -3.75220771e-03  6.44672675e-04 -3.90731298e-04 -2.07485378e-04
 -9.94694584e-05  2.91262134e-04  3.55113331e-04  1.63093564e-03 -2.56226731e-04
 -1.89613588e-03 -3.51639650e-04  7.63215819e-04  5.45638730e-05 -2.56391442e-03
 -5.92986269e-03  4.24394002e-04  1.03508724e-03  1.31595933e-05 -3.08783797e-05
  1.12632377e-03  8.63345462e-04  1.00594174e+00  1.52872164e-02 -1.07034437e-02
  7.43044765e-04 -5.04076101e-04 -1.13206753e-04  5.36466553e-03 -2.09730928e-03
 -2.64771093e-05 -1.63115439e-03  2.04176535e-04  2.17789449e-04  8.25195772e-04
 -2.45843063e-05  3.60907684e-04  9.02437538e-04 -5.91481364e-03  7.43567329e-04
 -2.10670770e-04 -3.81787840e-06  3.39685767e-03 -2.17797635e-04  7.92674190e-05
  5.66033230e-04 -1.79727403e-05 -2.23642957e-05 -7.20887104e-04  2.53885758e-04
 -1.15991128e-04 -5.75328787e-05  2.24804385e-05  2.65729753e-06 -9.92591410e-06
 -5.11199665e-05  3.75390750e-04 -5.15020438e-05 -2.35043450e-05  9.34717641e-06
 -6.74498026e-05  7.15141900e-07  1.07949204e-04  5.39902906e-05 -4.86726441e-05
 -1.69052544e-03  2.45284127e-03 -1.42817058e-03 -1.44810631e-03 -2.40685586e-04
 -5.51292274e-04 -4.83932738e-04  3.78512630e-05  2.58463035e-04 -3.23978350e-05
 -2.80713878e-05  5.99576533e-04  2.24734588e-04  1.01016885e-04 -3.60256104e-05
  3.07709585e-03 -3.92261333e-04  4.33963127e-03  7.26353652e-04  3.70162734e-05
  5.95573604e-05 -2.43599203e-03 -7.71694168e-04 -3.40546177e-04  7.96323905e-04
  8.23544958e-05  4.11341749e-05 -9.78672878e-04 -5.85717756e-05  1.00636415e+00
  1.62365089e-02 -2.03702073e-02 -5.24007626e-04  1.75413747e-04 -2.62502968e-05
 -2.28219927e-03  3.97792031e-03 -5.27430908e-04 -1.03983487e-03  1.33492517e-04
 -3.69135795e-04 -5.44310562e-04 -4.51767127e-04  1.33160591e-02 -1.22771877e-03
  4.87673701e-03 -7.19729987e-04 -1.08591806e-03  1.72729332e-04  2.73330546e-03
  2.74401775e-03 -3.02178351e-04  8.74723016e-04  1.43864115e-04  3.17339287e-04
  4.93463586e-04 -9.65397729e-04 -2.83211532e-04 -5.63898276e-04  1.21449964e-03
 -1.69370954e-05 -2.07287957e-04  4.11583992e-05 -4.94651497e-04  1.07965061e-03
 -6.56537419e-05 -3.23807231e-04 -1.07923739e-04 -1.14289287e-05  1.57017940e-04
  1.65259678e-06 -3.32832774e-05 -7.01401467e-05 -1.00611650e-04  1.19403603e-04
  1.65801628e-05  1.56924518e-05 -1.31247704e-04 -3.53211840e-04  3.61605091e-05
  1.16710213e-05 -2.74529540e-05  3.95466474e-06  6.67268902e-06  2.68466716e-05
 -4.22528768e-04  4.65997962e-04 -1.38569670e-04 -6.53367726e-06  6.41496219e-05
 -2.60873197e-04  1.85102193e-04  1.50579596e-04  7.85853116e-06  7.88179846e-05
 -4.63827858e-04  1.17355566e-03 -2.07130468e-04 -9.36637733e-07  2.84076386e-05
 -9.39947180e-05  3.21236024e-04  4.57352028e-05 -7.58360800e-05 -1.63362154e-05
  1.90722751e-04  9.49148529e-04  1.68886655e-04 -2.66774786e-04  1.19288776e-06
 -2.49664327e-03  1.08562294e-03 -1.25641620e-03  1.80305401e-03 -2.81970698e-04
  1.06299917e-03  4.90696718e-04 -2.94666235e-04 -1.10214977e-04 -1.39450031e-04
  1.07715587e-04  9.29987011e-04  1.05113876e-04 -3.20473416e-04  3.05103014e-04
  2.25976252e-05  7.31872615e-05 -4.27065744e-05  1.00377509e-04  1.47994583e-02
  1.77670487e-03 -6.17012009e-03 -6.05620372e-04 -1.23346195e-03  1.92880354e-04
  7.42263660e-04  3.69031233e-03 -1.87069402e-04 -9.12241590e-04 -2.02171364e-04
 -3.55482928e-04 -6.23697897e-04  9.03143613e-04 -1.00648867e+00 -1.65771893e-02
  2.11760487e-02  3.00472315e-04 -2.47266833e-04  1.89550478e-04  5.27151428e-03
  2.76465104e-04 -1.02171449e-03  1.09524514e-03  1.81509314e-04  1.25808996e-04
 -4.32915968e-04 -5.76943108e-04  1.94097332e-03  7.63561108e-04 -5.67149268e-03
 -2.55658747e-04  6.91636988e-04  6.07530967e-05 -3.02024265e-04 -3.46466591e-03
  4.65421676e-05 -6.98107934e-04 -1.82176734e-04  8.99327067e-05 -5.40644918e-04
 -1.22471085e-03 -3.86006985e-05 -6.75555307e-05  7.06127924e-04 -9.23199341e-06
  6.05899080e-05  4.34449042e-05  1.49604697e-04  6.53851361e-04 -5.30100891e-05
  1.27924409e-04 -4.32915746e-05 -1.15209831e-05 -8.97435204e-05 -2.22707911e-04
  1.23608821e-04 -3.35332237e-04 -1.73009204e-05 -8.94695292e-05  5.20879156e-05
 -3.40493347e-05 -3.77725194e-04 -4.65937488e-05  4.47403756e-05  3.37366678e-05
  9.31226452e-05 -2.01983274e-04 -4.16514825e-05 -8.28703317e-05  1.37501119e-04
  2.96775998e-04 -9.66528049e-04 -7.32845782e-05  2.01468244e-04 -3.46786036e-05
  2.46831201e-03 -8.22559666e-04  2.18422161e-03 -7.97335001e-05 -5.86587362e-05
 -1.15501720e-04 -8.33493877e-04 -2.98185562e-04  4.76333279e-05 -5.08083321e-05
  1.00709537e+00  1.76634182e-02 -1.93511845e-02  4.26282058e-04 -3.66139677e-05
  1.35345247e-04  2.88671846e-03  4.73060567e-04 -4.81759732e-04  2.03987843e-04
 -5.13923826e-05 -1.11982755e-04 -6.54878132e-04  8.98464067e-05 -3.24655862e-03
 -2.42209968e-04  1.43425260e-03 -4.91841621e-04  4.94976802e-05 -2.31483291e-06
  4.12902376e-03  2.43900487e-03 -3.49612403e-04  6.53964384e-04  8.94444032e-05
 -2.14690113e-05 -1.33805627e-03 -3.65048103e-04  3.58621185e-04 -6.86771874e-04
  3.81897835e-03 -2.45666830e-04  3.33358231e-05 -6.55687409e-06  1.31882125e-03
  2.63464291e-03 -4.00222552e-04 -3.75986360e-04  2.61066027e-05 -1.19429133e-04
 -3.98801804e-04 -2.11869383e-04 -1.32056791e-04 -5.12750381e-04  3.38729298e-04
 -7.77266639e-05 -2.70164487e-04 -4.35960955e-05 -2.33979260e-04  4.78215707e-04
  1.41283702e-04 -4.31846153e-05 -2.87830969e-05 -3.39362469e-05  3.47641453e-05
  5.36992335e-05 -1.06754659e-04 -2.06836657e-04  3.67991398e-04  3.24582845e-05
 -1.12253953e-04 -2.35989364e-05 -2.58852150e-04  2.45210521e-04  6.74881638e-05
 -5.74036096e-05  6.40887385e-07  7.25890293e-06  1.51958253e-06 -1.39725095e-06
 -1.21120623e-03  2.17060171e-03  6.07430713e-04 -1.53107581e-03 -9.53989393e-04
 -1.54168486e-03  1.74550001e-03  6.33009225e-04  1.80986856e-03 -7.92908090e-04
 -1.05580779e-03  2.37229403e-03  4.73853199e-04 -2.17215056e-04  1.83484033e-03
  1.67136013e-05  3.78495298e-04  1.28794978e-05  5.77847851e-05 -1.72724093e-05
  3.80305664e-05  5.24987770e-04  5.63802333e-05 -1.90892114e-04  2.93355941e-05
 -3.73946171e-04  1.08250097e-04 -3.97639565e-04 -1.87559832e-04  3.18885911e-05
 -5.17235931e-04  8.29597864e-03  4.89088934e-03 -3.41138934e-03 -3.99913759e-03
 -5.92643429e-05 -2.60367638e-03 -1.19376078e-03  8.21296273e-04 -7.20991865e-04
 -1.13428060e-04 -1.57115802e-04  9.96879896e-05  8.72676972e-04  4.62617952e-04
  1.70619672e-02 -1.17822315e-02  4.71447437e-04 -1.07433930e-02  1.17034694e-03
 -1.71765908e-03  9.18707631e-03 -1.29623027e-03 -4.87701833e-04 -2.17069744e-04
 -4.91353607e-04 -1.48407014e-03  7.29575639e-04 -3.72771630e-03  3.59848399e-02
  3.13765656e-02  2.11237084e-02 -1.92609470e-02 -1.36414936e-03  1.96223076e-02
  2.15633134e-03 -2.07750317e-03 -3.69803584e-03 -5.76899552e-04 -1.46515331e-05
 -2.35795547e-04 -9.04960035e-03 -1.48193026e-02  2.24309565e-01  9.47413875e-02
  1.84346880e-01 -2.54212237e-02  2.81607340e-03  1.26317926e-02 -2.07708666e-03
  9.17798059e-04 -1.39002525e-02  8.07669157e-05 -1.52044270e-03  3.12694499e-02
 -1.38763568e-02 -9.26201625e-03  4.01916620e-01  3.60317584e-01 -1.55059130e-01
  3.18754673e-02 -2.99073835e-03 -3.16230946e-02  7.63920032e-03 -1.34565607e-03
 -5.42208410e-03  1.72340268e-04 -7.76852714e-04  1.20215191e-02 -5.08656056e-03
  7.93455732e-03  4.02354882e-03 -7.12990179e-04 -3.46963927e-04  7.14786313e-04
  1.14367331e-03 -5.41406725e-04  1.64391186e-05 -6.05840718e-05 -7.65968372e-05
  2.88797854e-03  7.10356732e-04 -3.34129832e-04 -3.67303379e-04 -5.66116722e-04
  4.06277755e-02 -3.14838184e-03  1.00141505e-02  6.20758215e-03  1.09765817e-03
  7.28273354e-03  5.97615992e-03  1.08834325e-03 -1.83330652e-03 -9.99565404e-05
  1.93871771e-03 -2.95102434e-03 -1.67964161e-04 -8.51500578e-04  1.50772400e-04
  1.16411025e-02 -1.81907638e-01 -7.30510341e-02  6.78511000e-02  1.44427633e-02
 -4.44141912e-03  1.47872908e-03 -9.03983470e-03  2.46265969e-03  5.83296309e-03
  5.83478398e-04 -1.00996832e-04 -1.01325292e-02 -3.10863957e-03  2.02819330e-02
 -2.89566488e-01 -2.04009003e-01 -5.51793157e-03  7.19126604e-02 -9.38808562e-03
 -3.42659304e-02  2.57699988e-02 -3.96463787e-03  1.00145333e-02  1.38973496e-03
  1.97113714e-03 -2.22516764e-03 -9.75959275e-03  1.72891741e-02 -2.52838919e-01
 -1.37251966e-01 -5.99900691e-02 -5.75747323e-02  1.63849532e-02 -1.40107206e-03
 -2.22105620e-02  4.07973368e-03  6.83082019e-03  1.72446000e-03  2.23383336e-03
  8.70816042e-03 -8.61109698e-03  2.60971391e-03 -6.32242380e-02 -5.15752989e-02
  7.18522400e-02 -8.05952747e-02  5.63207434e-04  2.30676153e-02 -2.34709838e-02
 -1.47510320e-03  2.74388102e-03  3.90846636e-04 -3.98077036e-04  1.33168285e-02
  3.08330326e-03 -3.85755968e-04  7.68574767e-02  7.42885187e-02 -1.27654822e-02
 -1.65036124e-02  1.47329426e-04  8.62210812e-04 -7.22106274e-03  6.05991246e-04
  1.52003224e-04  2.93743640e-06  1.50084372e-05  1.77062387e-03  1.56103338e-03
 -7.02701117e-02 -2.16156517e-03  4.70491911e-03 -8.06969663e-03 -5.34225788e-03
 -5.99812577e-02 -7.27662374e-04  4.97655870e-03  8.19016779e-03 -3.48577914e-03
 -6.95001330e-02 -3.36432653e-03  4.32240470e-03 -1.27213252e-04  9.41283779e-03
 -1.80290287e-02 -2.68098940e-04  1.12012412e-04 -3.41213213e-03 -1.37629899e-04
 -8.06683554e-02 -1.80322005e-03 -1.38368399e-02 -2.07354241e-03  1.16274402e-03
 -9.84892996e-02 -1.39126329e-02 -7.00020785e-03  1.36156077e-02 -2.01994000e-03
  1.48143739e-02 -2.83483507e-01 -1.19320610e-01  1.81775928e-02 -6.75216831e-03
 -3.35022058e-03 -1.62851508e-02 -7.65983885e-03  1.87037878e-04  1.41560137e-03
 -1.14397298e-04 -1.77993008e-04 -2.83826420e-03  2.40805130e-03  5.27256521e-03
 -4.89945649e-02 -8.67550447e-02 -1.38266908e-01 -8.91221589e-02  1.09143690e-02
 -8.89872825e-02 -5.71407368e-03  1.68605695e-03  3.82120784e-03 -3.99125203e-04
 -1.19085183e-03 -1.78891347e-02  4.54772728e-03 -1.38396941e-02  2.28479643e-01
  1.67489013e-01 -6.15373089e-03 -6.03870529e-02 -5.84993213e-03  3.40730873e-02
 -3.46197284e-02 -1.83712123e-03 -4.37944531e-03 -1.13655378e-04  5.22615777e-04
 -9.86336149e-03 -6.02367773e-03 -3.29772268e-03  1.58219530e-01  7.14026662e-02
 -1.10410669e-01  7.51331946e-02  1.01129384e-03 -3.93032950e-02  9.66131495e-03
 -1.20398189e-03 -1.72197989e-03 -3.58867083e-04  3.51820092e-04 -9.53786756e-03
 -6.10607081e-03 -2.17249259e-04 -8.35589918e-02 -8.36985084e-02 -2.15382446e-02
  6.56777154e-03  1.55699092e-03 -2.15007780e-02  1.33163425e-03  2.74250495e-04
 -9.31687088e-04  5.14571453e-05  3.27671908e-04  1.22910215e-03 -1.98974229e-03
 -1.25132382e-01 -1.73525968e-02  6.56894803e-03 -1.32624887e-02 -8.31115966e-03
 -1.32125688e-01 -1.56306388e-02  6.23601096e-03  1.54356507e-02 -6.98491387e-03
 -1.29002742e-01 -1.64693714e-02  5.65687877e-03 -1.93037794e-03  1.62902608e-02
  7.46239210e-02  3.18235648e-03  3.60961138e-03  9.03240030e-03  1.23282906e-03
  1.16458967e-01  2.23340392e-02  1.49008683e-02 -8.72545601e-04 -1.01784503e-03
 -2.71611692e-02 -1.58309161e-02 -3.96406553e-03  5.00865687e-04 -1.90468753e-04
  5.91912062e-03 -1.78545581e-01 -9.76162841e-02 -7.52001766e-02 -9.60545094e-04
 -3.09614147e-03 -3.89668952e-02 -5.96451714e-03  6.23087277e-03 -5.05066828e-03
 -6.93701496e-04 -3.01252734e-04  7.59957093e-03  7.82510303e-04 -5.56922405e-03
  2.13018891e-01  1.01041610e-01 -1.42890673e-01 -1.26335216e-02  6.35119977e-03
 -4.24835248e-02  9.67962508e-04 -6.66938132e-04  3.01389643e-03 -1.52842639e-03
 -9.76066336e-04 -5.66349998e-03  4.02309639e-03 -1.30741944e-03  2.28702980e-03
  1.34257175e-02  8.21209461e-03  2.47472770e-01 -1.27668927e-02  3.55616487e-03
  7.61869848e-02 -3.41801202e-03  9.21993249e-04 -4.91232512e-04 -4.24180291e-03
  1.16534371e-03  1.12506877e-02  2.68512828e-03 -2.29976163e-01 -1.49890805e-01
  1.54441929e-01 -2.65865443e-02  3.71035850e-03  4.72720756e-02 -1.92824081e-02
  2.85804542e-04 -1.13145583e-03  9.08191170e-04 -7.26184557e-04  5.68335903e-03
  1.29123222e-03  1.07533947e-03  1.21693879e-01  1.41115985e-01  5.04868999e-02
 -1.09208857e-02  2.36834094e-03  3.90601756e-02 -6.85377218e-03  1.77576421e-03
  2.51790148e-03 -1.61872749e-04 -5.00488491e-05 -2.18305051e-03  6.11154083e-04
 -1.03213975e-01 -7.74014323e-03  3.25764445e-03 -1.04250968e-02 -5.80243477e-03
 -1.05321741e-01 -1.58724494e-02  2.36447726e-03  1.08050200e-02 -5.14220154e-03
 -1.06857821e-01 -2.06092030e-02  2.99261756e-03 -1.02175589e-03  1.13399124e-02
 -1.56095770e-01 -2.84379249e-02 -7.68207017e-03 -1.39250274e-02 -2.07429230e-03
 -8.97541724e-03 -2.02655525e-03 -7.29706299e-04  4.97060117e-03 -2.02077596e-04
  1.51637408e-01  2.61756126e-02  7.07271196e-03 -1.52692804e-02  2.57265590e-03
  1.52306530e-03 -3.78946666e-02 -3.09300893e-02 -1.07478238e-01  9.57866470e-02
 -9.44803365e-03 -2.94326316e-02  3.90501189e-02 -7.13221128e-03 -4.84788929e-03
  9.76467383e-04 -1.65753205e-03  9.31831622e-03 -6.47124250e-03 -2.80491199e-03
  1.40280137e-01  1.02930761e-01 -2.06322399e-03  2.24055549e-01 -3.55701137e-02
  2.66012189e-02  6.71399802e-02 -9.73317060e-03  3.80321161e-03  1.73178393e-03
  1.33872459e-03  1.47216888e-03 -5.90481049e-03  2.99846837e-03 -1.51647846e-01
 -1.07946101e-01 -2.25706026e-02 -6.97722501e-04 -7.74146743e-03 -2.38983861e-02
  2.76901479e-02 -7.15919087e-03 -3.58184307e-03  2.97083331e-04 -7.53256166e-04
 -1.32625439e-02  9.50075921e-04  7.15177267e-04  1.58829463e-01  1.20312347e-01
 -6.04310985e-02 -2.38593426e-01 -2.39832399e-02 -4.74175223e-02 -5.29612928e-02
 -4.22467644e-03  5.22940546e-03  7.51266703e-04 -8.66443016e-05 -2.97255385e-04
  6.93492899e-04  4.46444940e-04 -8.66450928e-02 -1.21707235e-01 -1.43491264e-01
 -1.12167529e-01 -9.66961409e-03 -8.40673429e-02 -6.20070828e-02 -5.54660688e-03
 -3.50879933e-03  1.22186331e-03  4.40410765e-04  9.13930768e-03  6.72606611e-03
 -1.06919158e-01 -3.54173089e-02  1.70210691e-03 -4.30187568e-03 -5.78969731e-03
  9.49735566e-03 -2.91100051e-03 -3.21945736e-03  1.75947813e-03  2.57759915e-04
 -5.90507444e-02 -1.76326053e-02 -7.09348489e-04  2.59645678e-03  5.45179288e-03
  2.29989104e-01  6.00591499e-02  1.16373481e-02  1.28676004e-02  2.41539626e-03
 -7.85406953e-02 -2.89751212e-02 -8.23057752e-03 -1.11172609e-03  4.07098955e-04
  2.18130179e-01  6.55120467e-02  1.09465359e-02 -1.21943888e-02  1.92242981e-03
  2.49699757e-03 -5.17022066e-02 -4.59400725e-02 -1.51039813e-01 -9.93844590e-02
  8.25559928e-03 -3.61940794e-02 -4.25100865e-02 -1.92961302e-03 -5.30345333e-03
 -7.23986680e-04  2.16753974e-03  7.51770677e-03  4.32534549e-03  6.51124858e-04
  8.52277779e-02  6.03725985e-02  1.38146699e-01 -1.15473509e-01  5.27297312e-03
  7.87653014e-02 -3.43358862e-02 -5.06506922e-04  1.54654768e-03  1.94524784e-03
  7.21876458e-04 -9.73886748e-03 -1.08661319e-02  5.68962279e-03 -7.63450183e-02