Generated by Psi4
        SP                           RHF                       CC-PVDZ
Number of atoms                            I               11
Charge                                     I                0
Multiplicity                               I                1
Number of electrons                        I               38
Number of alpha electrons                  I               19
Number of beta electrons                   I               19
Number of basis functions                  I              100
Number of independent functions            I              100
Atomic numbers                             I   N=          11
           6           6           6           6           8           1
           1           1           1           1           1
Nuclear charges                            R   N=          11
  6.00000000e+00  6.00000000e+00  6.00000000e+00  6.00000000e+00  8.00000000e+00
  1.00000000e+00  1.00000000e+00  1.00000000e+00  1.00000000e+00  1.00000000e+00
  1.00000000e+00
Current cartesian coordinates              R   N=          33
  1.92942039e+00  2.58673699e+00 -1.50023170e-01 -9.13920287e-01  2.43726487e+00
 -1.41944326e-01 -2.11303948e+00  1.98433916e-01  2.08259341e-01 -8.13684943e-01
 -2.29229910e+00  7.14504643e-02  1.45219791e+00 -2.71446284e+00  6.46069912e-02
  2.73561981e+00  1.04472854e+00 -1.29153151e+00  2.70935717e+00  4.29091013e+00
 -1.03697983e+00  2.63149144e+00  2.42263223e+00  1.84084371e+00 -2.17203675e+00
 -3.88782503e+00 -2.25420899e-01 -4.17574027e+00  1.43436933e-01  3.30015775e-01
 -2.01950562e+00  4.17797685e+00 -4.96336855e-01
Integer atomic weights                     I   N=          11
          12          12          12          12          16           1
           1           1           1           1           1
Real atomic weights                        R   N=          11
  1.20000000e+01  1.20000000e+01  1.20000000e+01  1.20000000e+01  1.59949146e+01
  1.00782503e+00  1.00782503e+00  1.00782503e+00  1.00782503e+00  1.00782503e+00
  1.00782503e+00
Number of primitive shells                 I              140
Number of contracted shells                I               48
Pure/Cartesian d shells                    I                0
Pure/Cartesian f shells                    I                0
Highest angular momentum                   I                2
Largest degree of contraction              I                8
Shell types                                I   N=          48
           0           0           0           1           1          -2
           0           0           0           1           1          -2
           0           0           0           1           1          -2
           0           0           0           1           1          -2
           0           0           0           1           1          -2
           0           0           1           0           0           1
           0           0           1           0           0           1
           0           0           1           0           0           1
Number of primitives per shell             I   N=          48
           8           8           1           3           1           1
           8           8           1           3           1           1
           8           8           1           3           1           1
           8           8           1           3           1           1
           8           8           1           3           1           1
           3           1           1           3           1           1
           3           1           1           3           1           1
           3           1           1           3           1           1
Shell to atom map                          I   N=          48
           1           1           1           1           1           1
           2           2           2           2           2           2
           3           3           3           3           3           3
           4           4           4           4           4           4
           5           5           5           5           5           5
           6           6           6           7           7           7
           8           8           8           9           9           9
          10          10          10          11          11          11
Primitive exponents                        R   N=         140
  6.66500000e+03  1.00000000e+03  2.28000000e+02  6.47100000e+01  2.10600000e+01
  7.49500000e+00  2.79700000e+00  5.21500000e-01  6.66500000e+03  1.00000000e+03
  2.28000000e+02  6.47100000e+01  2.10600000e+01  7.49500000e+00  2.79700000e+00
  5.21500000e-01  1.59600000e-01  9.43900000e+00  2.00200000e+00  5.45600000e-01
  1.51700000e-01  5.50000000e-01  6.66500000e+03  1.00000000e+03  2.28000000e+02
  6.47100000e+01  2.10600000e+01  7.49500000e+00  2.79700000e+00  5.21500000e-01
  6.66500000e+03  1.00000000e+03  2.28000000e+02  6.47100000e+01  2.10600000e+01
  7.49500000e+00  2.79700000e+00  5.21500000e-01  1.59600000e-01  9.43900000e+00
  2.00200000e+00  5.45600000e-01  1.51700000e-01  5.50000000e-01  6.66500000e+03
  1.00000000e+03  2.28000000e+02  6.47100000e+01  2.10600000e+01  7.49500000e+00
  2.79700000e+00  5.21500000e-01  6.66500000e+03  1.00000000e+03  2.28000000e+02
  6.47100000e+01  2.10600000e+01  7.49500000e+00  2.79700000e+00  5.21500000e-01
  1.59600000e-01  9.43900000e+00  2.00200000e+00  5.45600000e-01  1.51700000e-01
  5.50000000e-01  6.66500000e+03  1.00000000e+03  2.28000000e+02  6.47100000e+01
  2.10600000e+01  7.49500000e+00  2.79700000e+00  5.21500000e-01  6.66500000e+03
  1.00000000e+03  2.28000000e+02  6.47100000e+01  2.10600000e+01  7.49500000e+00
  2.79700000e+00  5.21500000e-01  1.59600000e-01  9.43900000e+00  2.00200000e+00
  5.45600000e-01  1.51700000e-01  5.50000000e-01  1.17200000e+04  1.75900000e+03
  4.00800000e+02  1.13700000e+02  3.70300000e+01  1.32700000e+01  5.02500000e+00
  1.01300000e+00  1.17200000e+04  1.75900000e+03  4.00800000e+02  1.13700000e+02
  3.70300000e+01  1.32700000e+01  5.02500000e+00  1.01300000e+00  3.02300000e-01
  1.77000000e+01  3.85400000e+00  1.04600000e+00  2.75300000e-01  1.18500000e+00
  1.30100000e+01  1.96200000e+00  4.44600000e-01  1.22000000e-01  7.27000000e-01
  1.30100000e+01  1.96200000e+00  4.44600000e-01  1.22000000e-01  7.27000000e-01
  1.30100000e+01  1.96200000e+00  4.44600000e-01  1.22000000e-01  7.27000000e-01
  1.30100000e+01  1.96200000e+00  4.44600000e-01  1.22000000e-01  7.27000000e-01
  1.30100000e+01  1.96200000e+00  4.44600000e-01  1.22000000e-01  7.27000000e-01
  1.30100000e+01  1.96200000e+00  4.44600000e-01  1.22000000e-01  7.27000000e-01
Contraction coefficients                   R   N=         140
  6.91583963e-04  5.32579615e-03  2.70607210e-02  1.01656846e-01  2.74574824e-01
  4.48294319e-01  2.84902611e-01  1.51948592e-02 -2.93269653e-04 -2.31803547e-03
 -1.14997860e-02 -4.68267270e-02 -1.28466169e-01 -3.01266272e-01 -2.55630702e-01
  1.09379336e+00  1.00000000e+00  5.69792516e-02  3.13207212e-01  7.60376742e-01
  1.00000000e+00  1.00000000e+00  6.91583963e-04  5.32579615e-03  2.70607210e-02
  1.01656846e-01  2.74574824e-01  4.48294319e-01  2.84902611e-01  1.51948592e-02
 -2.93269653e-04 -2.31803547e-03 -1.14997860e-02 -4.68267270e-02 -1.28466169e-01
 -3.01266272e-01 -2.55630702e-01  1.09379336e+00  1.00000000e+00  5.69792516e-02
  3.13207212e-01  7.60376742e-01  1.00000000e+00  1.00000000e+00  6.91583963e-04
  5.32579615e-03  2.70607210e-02  1.01656846e-01  2.74574824e-01  4.48294319e-01
  2.84902611e-01  1.51948592e-02 -2.93269653e-04 -2.31803547e-03 -1.14997860e-02
 -4.68267270e-02 -1.28466169e-01 -3.01266272e-01 -2.55630702e-01  1.09379336e+00
  1.00000000e+00  5.69792516e-02  3.13207212e-01  7.60376742e-01  1.00000000e+00
  1.00000000e+00  6.91583963e-04  5.32579615e-03  2.70607210e-02  1.01656846e-01
  2.74574824e-01  4.48294319e-01  2.84902611e-01  1.51948592e-02 -2.93269653e-04
 -2.31803547e-03 -1.14997860e-02 -4.68267270e-02 -1.28466169e-01 -3.01266272e-01
 -2.55630702e-01  1.09379336e+00  1.00000000e+00  5.69792516e-02  3.13207212e-01
  7.60376742e-01  1.00000000e+00  1.00000000e+00  7.09645947e-04  5.46727229e-03
  2.78231186e-02  1.04747740e-01  2.82920846e-01  4.48495239e-01  2.70816885e-01
  1.54502916e-02 -3.14443412e-04 -2.48213768e-03 -1.23163554e-02 -5.05389173e-02
 -1.39384903e-01 -3.25077495e-01 -2.29848308e-01  1.09537935e+00  1.00000000e+00
  6.26791663e-02  3.33536566e-01  7.41239642e-01  1.00000000e+00  1.00000000e+00
  3.34987264e-02  2.34800801e-01  8.13682958e-01  1.00000000e+00  1.00000000e+00
  3.34987264e-02  2.34800801e-01  8.13682958e-01  1.00000000e+00  1.00000000e+00
  3.34987264e-02  2.34800801e-01  8.13682958e-01  1.00000000e+00  1.00000000e+00
  3.34987264e-02  2.34800801e-01  8.13682958e-01  1.00000000e+00  1.00000000e+00
  3.34987264e-02  2.34800801e-01  8.13682958e-01  1.00000000e+00  1.00000000e+00
  3.34987264e-02  2.34800801e-01  8.13682958e-01  1.00000000e+00  1.00000000e+00
Coordinates of each shell                  R   N=         144
  1.92942039e+00  2.58673699e+00 -1.50023170e-01  1.92942039e+00  2.58673699e+00
 -1.50023170e-01  1.92942039e+00  2.58673699e+00 -1.50023170e-01  1.92942039e+00
  2.58673699e+00 -1.50023170e-01  1.92942039e+00  2.58673699e+00 -1.50023170e-01
  1.92942039e+00  2.58673699e+00 -1.50023170e-01 -9.13920287e-01  2.43726487e+00
 -1.41944326e-01 -9.13920287e-01  2.43726487e+00 -1.41944326e-01 -9.13920287e-01
  2.43726487e+00 -1.41944326e-01 -9.13920287e-01  2.43726487e+00 -1.41944326e-01
 -9.13920287e-01  2.43726487e+00 -1.41944326e-01 -9.13920287e-01  2.43726487e+00
 -1.41944326e-01 -2.11303948e+00  1.98433916e-01  2.08259341e-01 -2.11303948e+00
  1.98433916e-01  2.08259341e-01 -2.11303948e+00  1.98433916e-01  2.08259341e-01
 -2.11303948e+00  1.98433916e-01  2.08259341e-01 -2.11303948e+00  1.98433916e-01
  2.08259341e-01 -2.11303948e+00  1.98433916e-01  2.08259341e-01 -8.13684943e-01
 -2.29229910e+00  7.14504643e-02 -8.13684943e-01 -2.29229910e+00  7.14504643e-02
 -8.13684943e-01 -2.29229910e+00  7.14504643e-02 -8.13684943e-01 -2.29229910e+00
  7.14504643e-02 -8.13684943e-01 -2.29229910e+00  7.14504643e-02 -8.13684943e-01
 -2.29229910e+00  7.14504643e-02  1.45219791e+00 -2.71446284e+00  6.46069912e-02
  1.45219791e+00 -2.71446284e+00  6.46069912e-02  1.45219791e+00 -2.71446284e+00
  6.46069912e-02  1.45219791e+00 -2.71446284e+00  6.46069912e-02  1.45219791e+00
 -2.71446284e+00  6.46069912e-02  1.45219791e+00 -2.71446284e+00  6.46069912e-02
  2.73561981e+00  1.04472854e+00 -1.29153151e+00  2.73561981e+00  1.04472854e+00
 -1.29153151e+00  2.73561981e+00  1.04472854e+00 -1.29153151e+00  2.70935717e+00
  4.29091013e+00 -1.03697983e+00  2.70935717e+00  4.29091013e+00 -1.03697983e+00
  2.70935717e+00  4.29091013e+00 -1.03697983e+00  2.63149144e+00  2.42263223e+00
  1.84084371e+00  2.63149144e+00  2.42263223e+00  1.84084371e+00  2.63149144e+00
  2.42263223e+00  1.84084371e+00 -2.17203675e+00 -3.88782503e+00 -2.25420899e-01
 -2.17203675e+00 -3.88782503e+00 -2.25420899e-01 -2.17203675e+00 -3.88782503e+00
 -2.25420899e-01 -4.17574027e+00  1.43436933e-01  3.30015775e-01 -4.17574027e+00
  1.43436933e-01  3.30015775e-01 -4.17574027e+00  1.43436933e-01  3.30015775e-01
 -2.01950562e+00  4.17797685e+00 -4.96336855e-01 -2.01950562e+00  4.17797685e+00
 -4.96336855e-01 -2.01950562e+00  4.17797685e+00 -4.96336855e-01
Total Energy                               R     -2.312352819350549e+02
Alpha Orbital Energies                     R   N=         100
 -1.91365512e+01 -1.02751297e+01 -1.02260060e+01 -1.02001004e+01 -1.01899707e+01
 -1.04018775e+00 -8.09403400e-01 -7.12631881e-01 -6.26687887e-01 -5.33181097e-01
 -4.97162490e-01 -4.37835509e-01 -4.31918626e-01 -4.27090341e-01 -3.84937501e-01
 -3.74395489e-01 -3.70648585e-01 -2.74757300e-01 -2.48659803e-01 -6.56913549e-02
  4.56560106e-02  6.49535525e-02  8.89562719e-02  1.03279868e-01  1.28712936e-01
  1.42721509e-01  1.57527511e-01  2.11920122e-01  2.59164800e-01  3.19936293e-01
  3.36895098e-01  4.33414182e-01  4.41971541e-01  4.49862525e-01  4.74693590e-01
  4.85841880e-01  5.04330018e-01  5.26338745e-01  5.66063388e-01  5.92013160e-01
  6.12735992e-01  6.23965938e-01  6.40761669e-01  6.44205301e-01  6.70917907e-01
  6.80898269e-01  7.04470641e-01  7.68558642e-01  7.97101954e-01  8.48270965e-01
  9.00593997e-01  9.12890896e-01  9.57546320e-01  1.02230602e+00  1.02793690e+00
  1.06037686e+00  1.07909637e+00  1.13600522e+00  1.18222212e+00  1.19327627e+00
  1.27552673e+00  1.34916025e+00  1.39794069e+00  1.47046833e+00  1.48212944e+00
  1.50502494e+00  1.54577864e+00  1.55050179e+00  1.60461802e+00  1.62518446e+00
  1.64938827e+00  1.66468237e+00  1.67462824e+00  1.70803434e+00  1.71831235e+00
  1.74667916e+00  1.77864094e+00  1.79587351e+00  1.84306991e+00  1.92529432e+00
  1.95961583e+00  1.98495502e+00  2.01907674e+00  2.03812950e+00  2.07938333e+00
  2.24412528e+00  2.30457140e+00  2.33958985e+00  2.38142565e+00  2.39456739e+00
  2.40965883e+00  2.46147277e+00  2.54458214e+00  2.64207489e+00  2.69698632e+00
  2.78043698e+00  2.97256757e+00  3.06729322e+00  3.40821160e+00  3.46372660e+00
Alpha MO coefficients                      R   N=       10000
 -7.80722719e-05 -1.61405111e-04  4.10148582e-05  6.12010872e-05  5.49660014e-05
  1.23387065e-05 -1.07687073e-05 -1.67191617e-04  1.41834287e-04  6.86896422e-05
  4.30276082e-05  3.60922412e-05  6.06874787e-05 -9.00312487e-05 -1.95395275e-04
 -3.47238943e-04  5.11486576e-03 -1.91500568e-05 -1.80258531e-05 -6.56026501e-05
 -7.61204489e-04 -2.10677727e-03  5.34484537e-04 -2.95840544e-05  4.78873263e-05
 -2.78006611e-05 -5.90753740e-05 -6.99044533e-05  2.12507169e-04  3.33957129e-04
 -3.39234408e-03  6.30136648e-05  2.39051106e-04 -8.46405285e-06 -4.30474143e-03
 -3.55969199e-03  3.29259397e-04  1.32830590e-04  6.54516755e-05  8.87206432e-05
 -4.41771215e-04  4.71885571e-04  4.70068737e-04  6.18969042e-04  5.18325944e-03
 -1.00252481e-04 -1.80880154e-04 -3.96973199e-05  6.61147332e-03  3.25956197e-04
 -6.51847070e-06  2.19105253e-05  4.07237593e-05  1.00557960e-04 -1.12982627e-03
  5.20743318e-04  1.00417135e+00  9.47432280e-03 -1.50975729e-02 -1.84474722e-03
  3.70449838e-04 -5.15192369e-06  3.51294887e-03 -8.44925509e-04 -3.79255474e-06
 -1.87555967e-05 -1.81074205e-06 -5.27726858e-06  6.69531852e-05  5.49243032e-06
 -1.15772958e-04 -1.69804975e-04  4.73272356e-05 -2.23655234e-06  1.95223575e-05
  1.09070105e-04  3.44071031e-04 -6.96397409e-05 -5.61807630e-05  4.65108195e-05
 -9.84600949e-05 -2.38363908e-04  6.19933931e-05  6.33053299e-05  6.00838979e-05
 -1.46178251e-04  8.28566224e-04 -7.57129759e-04  1.22671614e-04  1.65720938e-05
 -2.74969479e-04 -1.31714270e-03  1.87751903e-04  2.56212433e-04 -7.32226297e-06
 -1.75406494e-04  2.56327884e-04  3.30922906e-05  8.63890275e-05 -3.30128247e-05
 -3.80541956e-04 -5.10734836e-04  9.70376066e-04  2.71292128e-04  7.51816178e-05
 -1.58463046e-06 -7.18923284e-04 -5.50801582e-05 -1.84689748e-06 -3.70782468e-05
 -8.04169141e-05  4.50232097e-06 -1.11206771e-04  6.52257895e-06 -4.15493090e-04
 -5.93137576e-04  5.81613212e-03 -2.69028277e-04 -2.72772119e-05  5.75874012e-05
 -2.00365379e-03 -3.47853192e-03  6.46135586e-04 -3.52067881e-04 -2.10988186e-04
 -9.30999435e-05  2.79506660e-04  3.73930651e-04  1.47528304e-03 -2.30993333e-04
 -1.25294984e-03 -3.34735239e-04  7.12825095e-04  6.06873967e-05 -2.20203181e-03
 -5.80612280e-03  3.78620398e-04  9.92550323e-04  1.60307589e-05 -4.27076201e-05
  1.11845374e-03  8.95650008e-04  1.00591350e+00  1.52092457e-02 -1.07755620e-02
  7.44247156e-04 -5.10602789e-04 -1.63517415e-04  5.41440017e-03 -2.20057875e-03
 -6.93059104e-05 -1.59270953e-03  1.70697091e-04  2.48014461e-04  9.36523993e-04
 -4.03825100e-05  3.58976375e-04  8.97153782e-04 -5.95390724e-03  7.55724803e-04
 -2.17307551e-04 -1.43929974e-05  3.39475660e-03 -2.35316400e-04 -9.35577196e-06
  5.63370787e-04  1.82934352e-05 -3.22364552e-05 -7.23205753e-04  2.66124963e-04
 -1.23284663e-04 -6.68437062e-05  2.58862831e-05  7.10599059e-06 -4.69273820e-06
 -5.75127571e-05  3.85838806e-04 -4.17322269e-05 -1.43023741e-05  8.53989275e-06
 -6.68276664e-05  3.06241165e-05  1.05197564e-04  5.29698524e-05 -5.49838059e-05
 -1.63293742e-03  2.42899480e-03 -1.40936755e-03 -1.42313879e-03 -2.75446788e-04
 -5.65771531e-04 -4.66663344e-04  8.13807485e-06  2.97531664e-04 -2.80626257e-05
  1.21511133e-05  5.62197929e-04  2.28172804e-04  8.18716649e-05 -3.03803340e-05
  2.73785036e-03 -3.34331609e-04  4.50552118e-03  6.27319574e-04  1.56364929e-05
  5.69909660e-05 -2.59019648e-03 -6.64600079e-04 -3.44638256e-04  8.15026166e-04
  3.03891620e-05  4.84650024e-05 -9.18733272e-04 -2.20659967e-05  1.00630107e+00
  1.60380929e-02 -2.04128867e-02 -4.60118822e-04  1.47329705e-04 -6.72042837e-05
 -2.44389843e-03  4.09612629e-03 -6.09999751e-04 -9.47520015e-04  1.83461916e-04
 -4.57939925e-04 -6.82354355e-04 -4.96621097e-04  1.22102662e-02 -1.19601296e-03
  5.06475462e-03 -6.84585216e-04 -1.06239318e-03  1.65166027e-04  2.70366140e-03
  2.76932320e-03 -3.05969699e-04  8.49605532e-04  1.29940089e-04  3.19805608e-04
  4.77860584e-04 -9.87127091e-04 -2.58208224e-04 -5.51905194e-04  1.05092918e-03
  8.79469539e-06 -2.23580467e-04  3.89809754e-05 -6.00542576e-04  9.51411084e-04
 -7.83554607e-05 -2.95719048e-04 -1.12102024e-04 -1.41800652e-05  1.60229867e-04
  4.39843589e-05 -3.23349219e-05 -6.68242696e-05 -2.29195441e-05  1.15362820e-04
  2.59631110e-05  1.00117710e-05 -1.55059127e-04 -3.82570945e-04  5.03307169e-05
  1.64488975e-05 -2.58137293e-05  4.28880800e-06  1.38570862e-05  3.48500519e-05
 -4.71359516e-04  5.76102950e-04 -1.00726410e-04 -2.75615851e-05  8.06757642e-05
 -2.78464038e-04  1.59289811e-04  1.69651904e-04  1.71020431e-05  1.01666212e-04
 -4.89850914e-04  1.12759184e-03 -1.48885290e-04 -2.98607642e-07  3.51364150e-05
 -1.21647683e-04  2.61886762e-04  3.99022202e-05 -8.04916991e-05 -1.89455962e-05
  1.65868763e-04  9.46087378e-04  1.67975370e-04 -2.74243495e-04 -1.39340180e-06
 -2.44206185e-03  9.86157239e-04 -1.23246658e-03  1.78889549e-03 -3.83075371e-04
  1.07212756e-03  5.17136904e-04 -3.06173935e-04 -1.27538560e-04 -1.43098233e-04
  9.93474517e-05  9.97652650e-04  1.81563196e-04 -4.31951979e-04  2.85380230e-04
 -3.18211654e-06  9.01629374e-05 -2.31038249e-05  4.51437089e-05  1.35882502e-02
  1.63258337e-03 -5.85341693e-03 -5.46707832e-04 -1.17455736e-03  1.87723993e-04
  7.11008125e-04  3.51150414e-03 -1.38582479e-04 -8.86819151e-04 -2.02491901e-04
 -3.84980365e-04 -6.55916703e-04  8.53647144e-04 -1.00646087e+00 -1.64622173e-02
  2.08506483e-02  3.71139010e-04 -2.53117403e-04  1.98883609e-04  5.07962512e-03
  2.60950479e-04 -1.08726321e-03  1.05627148e-03  1.65434475e-04  1.10611584e-04
 -4.83240421e-04 -4.85589173e-04  1.75434070e-03  7.20686443e-04 -5.61455108e-03
 -2.38204695e-04  6.50571498e-04  6.43560710e-05 -1.63408265e-04 -3.38389303e-03
  4.22875417e-05 -6.70897043e-04 -1.93584255e-04  1.08420310e-04 -5.25425670e-04
 -1.23054731e-03 -4.70178274e-05 -8.28741987e-05  6.95957055e-04 -5.38455180e-06
  5.69123051e-05  4.09185466e-05  1.33536880e-04  6.94967383e-04 -4.63053940e-05
  1.21588362e-04 -3.77598327e-05 -5.60521048e-06 -9.70257713e-05 -2.33059693e-04
  6.31176435e-05 -3.54684473e-04 -2.14062651e-05 -1.26558932e-04  3.07743926e-05
 -5.16676385e-05 -4.29566048e-04 -4.95349394e-05  4.70144715e-05  3.98153800e-05
  1.28873339e-04 -1.79449123e-04 -4.60489464e-05 -7.60653052e-05  1.31238779e-04
  3.44317964e-04 -9.24494898e-04 -4.71980290e-05  1.99992876e-04 -2.82403282e-05
  2.48532084e-03 -8.95067498e-04  2.18387639e-03 -6.01834159e-05 -4.20653729e-05
 -1.12720403e-04 -7.60902468e-04 -3.09833323e-04  2.48507830e-05 -7.14770641e-05
  1.00692223e+00  1.72867682e-02 -1.87023600e-02  4.55167289e-04  4.24786327e-05
 -8.40986655e-05  2.73187271e-03  3.35586041e-04 -1.58503952e-04  4.35212831e-04
 -1.95287980e-04 -1.14794787e-04 -4.52846488e-04  1.71025503e-04 -2.85198072e-03
 -1.73000304e-04  1.23904739e-03 -4.53981974e-04  4.09423650e-05 -2.01819642e-05
  3.70940371e-03  2.56568242e-03 -4.26805238e-04  6.09983687e-04  6.58961093e-06
 -3.71660107e-05 -1.28652880e-03 -2.79015979e-04  3.26762554e-04 -7.58105697e-04
  3.85399889e-03 -2.71159774e-04 -1.93836903e-06 -4.88064637e-06  1.40806202e-03
  2.54956842e-03 -3.83869650e-04 -3.75467834e-04  2.65335548e-05 -1.18398722e-04
 -2.83909720e-04 -1.88862046e-04 -1.35351752e-04 -5.14402053e-04  3.16089412e-04
 -8.43336485e-05 -2.71372830e-04 -4.40762593e-05 -1.09535899e-04  5.20182073e-04
  1.50165208e-04 -6.99194054e-05 -3.25402303e-05 -3.90394591e-05  3.93560242e-05
  2.89311860e-05 -1.06782556e-04 -2.08499285e-04  3.05173528e-04  3.29498034e-05
 -1.19556866e-04 -2.39932813e-05 -2.14672341e-04  2.66844004e-04  6.98150514e-05
 -5.66078544e-05 -1.06122581e-06  8.49271555e-06 -4.54156821e-06 -2.95720998e-06
 -1.06617079e-03  2.07483244e-03  5.49042533e-04 -1.45525241e-03 -9.75397698e-04
 -1.47228184e-03  1.77151766e-03  6.33867460e-04  1.73685456e-03 -8.40565445e-04
 -1.05339437e-03  2.21487644e-03  4.92669818e-04 -2.04897928e-04  1.78702314e-03
  4.05591056e-05  4.36197983e-04  1.30217349e-05  6.38968640e-05 -1.55144949e-05
 -1.38963716e-05  5.72465758e-04  2.42669940e-05 -1.84391185e-04  3.12160280e-05
 -4.32612148e-04 -5.17978677e-05 -3.97796011e-04 -1.66132701e-04  2.42016783e-05
 -4.22210363e-04  8.09496146e-03  4.76386392e-03 -3.22995157e-03 -3.91224834e-03
 -2.13040793e-04 -2.23098476e-03 -1.08907271e-03  8.31337674e-04 -7.03525670e-04
 -8.66925011e-05 -1.47000965e-04  4.53641917e-05  7.75427325e-04  5.82424026e-04
  1.59008885e-02 -1.18463077e-02  6.00361100e-04 -1.00258900e-02  1.13465427e-03
 -1.71067651e-03  9.57297875e-03 -1.49838134e-03 -4.31669583e-04 -2.26404818e-04
 -4.65237464e-04 -1.32717191e-03  7.17346944e-04 -3.62654182e-03  3.35520128e-02
  3.00195840e-02  1.99154609e-02 -1.78878501e-02 -1.61747418e-03  1.93290403e-02
  2.91114086e-03 -2.25875559e-03 -3.63500304e-03 -6.88172729e-04  1.18447000e-04
  3.77878650e-04 -8.89965422e-03 -1.45710831e-02  2.23925085e-01  9.53772449e-02
  1.84843696e-01 -2.68674306e-02 -5.69382839e-04  1.21964657e-02 -1.93103718e-03
  7.77737496e-04 -1.40200499e-02 -1.04693934e-03 -1.49231063e-03  3.11964637e-02
 -1.41427678e-02 -9.14205905e-03  4.02915699e-01  3.61072359e-01 -1.55236582e-01
  3.20263584e-02 -1.07463343e-04 -3.16985845e-02  7.38466372e-03 -7.47350692e-04
 -5.40656434e-03 -2.62911880e-04 -7.53866124e-04  1.20182716e-02 -5.19832990e-03
  7.35997504e-03  3.97536791e-03 -6.86453338e-04 -4.39836793e-04  7.19290488e-04
  1.12071592e-03 -7.28013315e-04  9.81903219e-06 -3.78215081e-05 -8.49474940e-05
  2.62372258e-03  6.20489994e-04 -3.15989134e-04 -3.52657359e-04 -5.37324886e-04
  3.99181223e-02 -3.22084749e-03  1.00929672e-02  5.90726260e-03  1.15589053e-03
  6.64744671e-03  6.07625586e-03  8.40885415e-04 -1.95754824e-03 -7.18306210e-05
  1.61626042e-03 -3.14614238e-03 -1.73557369e-04 -7.83534610e-04  1.47379021e-04
  1.08778272e-02 -1.77286278e-01 -7.75822749e-02  6.66266426e-02  1.20933937e-02
 -6.88061467e-04  3.95861939e-03 -7.00831022e-03  1.03964495e-03  6.09040729e-03
  1.31080864e-04 -1.10510920e-04 -9.89299026e-03 -2.59551283e-03  1.93973964e-02
 -2.88008540e-01 -2.04694243e-01 -5.07059352e-03  7.55523763e-02 -1.00822248e-02
 -2.72281391e-02  2.61685568e-02 -4.33170125e-03  9.96150101e-03  1.38151989e-03
  2.04930783e-03 -1.77654235e-03 -9.17778935e-03  1.70390834e-02 -2.57864565e-01
 -1.40343060e-01 -5.80491096e-02 -5.80364876e-02  1.75336418e-02 -4.12764411e-03
 -1.74406350e-02  4.11290500e-03  6.89542264e-03  1.77968321e-03  2.30344405e-03
  9.04986805e-03 -8.11710512e-03  2.62243175e-03 -6.68482388e-02 -5.04389596e-02
  7.31845160e-02 -7.99340751e-02 -6.60580541e-04  2.29830100e-02 -2.21851363e-02
 -1.64652215e-03  2.79264883e-03  2.43949469e-04 -4.48237225e-04  1.29175854e-02
  3.61755023e-03 -3.05328401e-04  7.55968639e-02  7.29285824e-02 -1.16646205e-02
 -1.61343761e-02  3.42267434e-04  1.38733494e-03 -7.20936665e-03  5.55918381e-04
  1.65472123e-04 -3.51098257e-05 -3.66860931e-05  1.68787757e-03  1.59433154e-03
 -6.65162997e-02 -2.10629507e-03  4.46915070e-03 -7.39577831e-03 -5.19447897e-03
 -5.86167869e-02 -2.25328686e-03  4.93705470e-03  7.59146644e-03 -3.42041654e-03
 -6.41704952e-02 -2.25370880e-03  4.11864279e-03 -1.15619903e-04  8.92693512e-03
 -2.06789358e-02 -9.12978557e-05 -1.68343740e-04 -3.70617208e-03 -2.68421895e-04
 -8.47704251e-02 -3.42463264e-03 -1.42284802e-02 -2.15264081e-03  1.17823615e-03
 -9.44519214e-02 -1.23732160e-02 -6.58463301e-03  1.31827155e-02 -2.51565170e-03
  1.42353973e-02 -2.84980900e-01 -1.29536616e-01  1.66604251e-02 -1.03211084e-02
  4.91541078e-03 -1.24831235e-02 -4.09642716e-03 -3.63305910e-03  1.91137611e-03
 -2.79401926e-04 -9.14400806e-05 -2.79249683e-03  2.25556849e-03  5.51870371e-03
 -5.65519596e-02 -8.61421045e-02 -1.33082126e-01 -8.56882219e-02  1.07862264e-02
 -8.54459229e-02 -5.83509688e-03  2.59282201e-03  3.73332441e-03 -2.95917748e-04
 -1.24398213e-03 -1.77571130e-02  4.46478884e-03 -1.32227407e-02  2.23154311e-01
  1.67280636e-01 -9.09709649e-03 -6.38596940e-02 -6.04094905e-03  3.42287881e-02
 -3.73360270e-02 -2.36310800e-03 -4.29036721e-03 -1.26028133e-04  8.03143564e-04
 -9.26938166e-03 -6.74890645e-03 -2.97501995e-03  1.60617624e-01  7.19805017e-02
 -1.11859521e-01  7.01819518e-02  1.89323455e-03 -3.85311417e-02  7.90658872e-03
 -7.75642445e-04 -1.60686598e-03 -2.48156455e-04  4.16993001e-04 -8.78218259e-03
 -6.38707147e-03 -3.19549824e-04 -8.23039634e-02 -8.26556545e-02 -2.27359578e-02
  5.43182236e-03  1.50447032e-03 -2.18417961e-02  1.55501626e-03  5.41745533e-04
 -9.59769815e-04  3.63182308e-05  3.63462548e-04  1.30351108e-03 -1.88033914e-03
 -1.24847412e-01 -1.81449520e-02  6.29431120e-03 -1.30646862e-02 -8.39080934e-03
 -1.35596538e-01 -1.92278074e-02  6.60544590e-03  1.49539986e-02 -7.18965066e-03
 -1.22841031e-01 -1.39536233e-02  5.31334062e-03 -1.96384384e-03  1.60353108e-02
  7.89289052e-02  3.88876884e-03  3.95377802e-03  9.28516189e-03  1.49268584e-03
  1.16476599e-01  2.29311651e-02  1.45666036e-02 -9.70454179e-04 -9.11983132e-04
 -3.21182888e-02 -1.57110902e-02 -4.10971849e-03  1.30412297e-03 -5.81599509e-04
  5.56219550e-03 -1.82052089e-01 -1.01520467e-01 -7.67144007e-02 -3.70232429e-03
  4.78677278e-03 -3.78131463e-02 -4.73026991e-03  4.21135313e-03 -4.75361503e-03
 -1.46260135e-04 -2.40423542e-04  7.43608643e-03  4.80577547e-04 -4.86324445e-03
  2.12963739e-01  1.09236249e-01 -1.38357940e-01 -1.55057552e-02  5.89587077e-03
 -4.59675792e-02 -1.33637854e-04  6.37916461e-04  2.72102002e-03 -1.35526394e-03
 -1.15610127e-03 -5.95711959e-03  4.49710585e-03 -1.47567050e-03  6.96240703e-03
  1.28701862e-02  5.14690928e-04  2.43178340e-01 -1.21421296e-02  2.49907690e-03
  7.23971755e-02 -3.42162479e-03  1.04672704e-03 -4.26598650e-04 -4.52857196e-03
  1.12198500e-03  1.11107689e-02  2.32291820e-03 -2.30358173e-01 -1.52740555e-01
  1.54023071e-01 -2.29860155e-02  3.48544556e-03  4.76518276e-02 -1.88929497e-02
 -3.51474528e-04 -1.16931085e-03  6.81957836e-04 -7.45949655e-04  5.49392948e-03
  7.96473064e-04  1.07365351e-03  1.21534658e-01  1.41652477e-01  5.19716279e-02
 -1.08135015e-02  2.28673278e-03  3.98272864e-02 -6.67336610e-03  1.54551359e-03
  2.54505941e-03 -1.45773001e-04 -7.91625975e-05 -2.28445785e-03  5.14574535e-04
 -1.05007270e-01 -9.45257707e-03  3.17048218e-03 -1.04099138e-02 -5.86201399e-03
 -1.11294446e-01 -1.87355260e-02  2.73259303e-03  1.08780922e-02 -5.30999745e-03
 -1.02300583e-01 -1.84995412e-02  2.77135000e-03 -1.03293316e-03  1.13417056e-02
 -1.58296802e-01 -2.88759128e-02 -7.85207165e-03 -1.37805722e-02 -2.38996280e-03
 -1.23132517e-03 -3.58594705e-04 -6.36745597e-05  4.94051662e-03 -2.24698222e-04
  1.45552491e-01  2.48427396e-02  6.62917545e-03 -1.46928376e-02  3.10898792e-03
  1.57211676e-03 -4.38240327e-02 -3.81402837e-02 -1.11823525e-01  8.14152074e-02
 -4.63486311e-03 -2.96219457e-02  3.73509711e-02 -8.61065108e-03 -4.90473650e-03
  1.70289609e-03 -1.78118764e-03  9.16096537e-03 -6.84873155e-03 -2.87303927e-03
  1.49935463e-01  1.20313092e-01  4.31878112e-03  2.18831021e-01 -4.00518841e-02
  2.90111614e-02  6.00802571e-02 -8.85616457e-03  3.57524184e-03  2.32872756e-03
  1.25951715e-03  1.07014974e-03 -6.96596632e-03  3.30113178e-03 -1.59227967e-01
 -1.24961754e-01 -1.16935893e-03 -3.60280038e-03 -1.03181986e-02 -2.35776625e-02
  2.65488046e-02 -8.34439564e-03 -3.40692201e-03  2.12282045e-04 -8.30403917e-04
 -1.34796638e-02  8.61106782e-04  1.05074712e-03  1.62592981e-01  1.25884961e-01
 -5.68631481e-02 -2.28292196e-01 -2.81319009e-02 -4.54539553e-02 -4.83612351e-02
 -4.33993950e-03  5.09005033e-03  9.25678328e-04 -2.68007700e-05 -1.07040592e-03
  1.64000196e-03  5.59234031e-04 -9.15107907e-02 -1.30882925e-01 -1.49003593e-01
 -1.04199940e-01 -9.97215357e-03 -8.67462151e-02 -5.72850544e-02 -5.79013535e-03
 -3.78646292e-03  1.15083504e-03  2.72929927e-04  9.23617809e-03  6.27123934e-03
 -1.01385313e-01 -3.56493174e-02  1.28713831e-03 -4.20357713e-03 -5.66431324e-03
 -8.72174051e-03 -8.43005647e-03 -2.63062807e-03  2.72233723e-03 -1.25801031e-04
 -5.75126321e-02 -1.65868301e-02 -8.37509606e-04  2.00632311e-03  5.62027321e-03
  2.25044814e-01  5.95599127e-02  1.15944556e-02  1.22944934e-02  2.63764677e-03
 -9.86695110e-02 -3.62143158e-02 -9.39827600e-03 -1.11626202e-03  4.35142826e-04
  2.20215960e-01  6.87541464e-02  1.07312974e-02 -1.24149888e-02  2.63749480e-03
  2.13206390e-03 -4.93127483e-02 -4.28799161e-02 -1.46459515e-01 -9.45030100e-02
  2.19386266e-02 -3.63301574e-02 -4.22353341e-02  1.35155038e-03 -4.90927054e-03
 -2.34297276e-04  2.40723007e-03  7.04835611e-03  4.40410915e-03  1.21052882e-03
  7.54290246e-02  4.68145804e-02  1.37369597e-01 -1.24665820e-01  1.44271440e-02
  7.69373538e-02 -3.54751499e-02  3.21838737e-03  1.23467988e-03  2.48787953e-03
  5.41350101e-04 -9.70882559e-03 -1.07367600e-02  5.48059851e-03 -6.53246578e-02