[Molden Format]
[Atoms] (AU)
C    1    6           1.8711007342         2.4173068287        -0.1354733567
C    2    6          -0.9346934687         2.3711510618        -0.0767083544
C    3    6          -2.1641035356         0.1711906392         0.3726763039
C    4    6          -0.7608575246        -2.2134567994         0.0740986690
O    5    8           1.5206928061        -2.5001129836        -0.1338411057
H    6    1           2.3457094569         0.6138086607        -0.8939568513
H    7    1           2.6564870313         4.1297957676        -0.9529685762
H    8    1           2.7160212656         2.0881933550         1.7573708169
H    9    1          -1.9304389191        -3.9160677052        -0.2383794322
H   10    1          -4.2280066062         0.0495897110         0.4103271694
H   11    1          -2.0169012404         4.0148530816        -0.7514994316
[GTO]
  1 0
 s    8  1.00
     6665.0000000000         0.0006920000
     1000.0000000000         0.0053290000
      228.0000000000         0.0270770000
       64.7100000000         0.1017180000
       21.0600000000         0.2747400000
        7.4950000000         0.4485640000
        2.7970000000         0.2850740000
        0.5215000000         0.0152040000
 s    8  1.00
     6665.0000000000        -0.0001460000
     1000.0000000000        -0.0011540000
      228.0000000000        -0.0057250000
       64.7100000000        -0.0233120000
       21.0600000000        -0.0639550000
        7.4950000000        -0.1499810000
        2.7970000000        -0.1272620000
        0.5215000000         0.5445290000
 s    1  1.00
        0.1596000000         1.0000000000
 p    3  1.00
        9.4390000000         0.0381090000
        2.0020000000         0.2094800000
        0.5456000000         0.5085570000
 p    1  1.00
        0.1517000000         1.0000000000
 d    1  1.00
        0.5500000000         1.0000000000

  2 0
 s    8  1.00
     6665.0000000000         0.0006920000
     1000.0000000000         0.0053290000
      228.0000000000         0.0270770000
       64.7100000000         0.1017180000
       21.0600000000         0.2747400000
        7.4950000000         0.4485640000
        2.7970000000         0.2850740000
        0.5215000000         0.0152040000
 s    8  1.00
     6665.0000000000        -0.0001460000
     1000.0000000000        -0.0011540000
      228.0000000000        -0.0057250000
       64.7100000000        -0.0233120000
       21.0600000000        -0.0639550000
        7.4950000000        -0.1499810000
        2.7970000000        -0.1272620000
        0.5215000000         0.5445290000
 s    1  1.00
        0.1596000000         1.0000000000
 p    3  1.00
        9.4390000000         0.0381090000
        2.0020000000         0.2094800000
        0.5456000000         0.5085570000
 p    1  1.00
        0.1517000000         1.0000000000
 d    1  1.00
        0.5500000000         1.0000000000

  3 0
 s    8  1.00
     6665.0000000000         0.0006920000
     1000.0000000000         0.0053290000
      228.0000000000         0.0270770000
       64.7100000000         0.1017180000
       21.0600000000         0.2747400000
        7.4950000000         0.4485640000
        2.7970000000         0.2850740000
        0.5215000000         0.0152040000
 s    8  1.00
     6665.0000000000        -0.0001460000
     1000.0000000000        -0.0011540000
      228.0000000000        -0.0057250000
       64.7100000000        -0.0233120000
       21.0600000000        -0.0639550000
        7.4950000000        -0.1499810000
        2.7970000000        -0.1272620000
        0.5215000000         0.5445290000
 s    1  1.00
        0.1596000000         1.0000000000
 p    3  1.00
        9.4390000000         0.0381090000
        2.0020000000         0.2094800000
        0.5456000000         0.5085570000
 p    1  1.00
        0.1517000000         1.0000000000
 d    1  1.00
        0.5500000000         1.0000000000

  4 0
 s    8  1.00
     6665.0000000000         0.0006920000
     1000.0000000000         0.0053290000
      228.0000000000         0.0270770000
       64.7100000000         0.1017180000
       21.0600000000         0.2747400000
        7.4950000000         0.4485640000
        2.7970000000         0.2850740000
        0.5215000000         0.0152040000
 s    8  1.00
     6665.0000000000        -0.0001460000
     1000.0000000000        -0.0011540000
      228.0000000000        -0.0057250000
       64.7100000000        -0.0233120000
       21.0600000000        -0.0639550000
        7.4950000000        -0.1499810000
        2.7970000000        -0.1272620000
        0.5215000000         0.5445290000
 s    1  1.00
        0.1596000000         1.0000000000
 p    3  1.00
        9.4390000000         0.0381090000
        2.0020000000         0.2094800000
        0.5456000000         0.5085570000
 p    1  1.00
        0.1517000000         1.0000000000
 d    1  1.00
        0.5500000000         1.0000000000

  5 0
 s    8  1.00
    11720.0000000000         0.0007100000
     1759.0000000000         0.0054700000
      400.8000000000         0.0278370000
      113.7000000000         0.1048000000
       37.0300000000         0.2830620000
       13.2700000000         0.4487190000
        5.0250000000         0.2709520000
        1.0130000000         0.0154580000
 s    8  1.00
    11720.0000000000        -0.0001600000
     1759.0000000000        -0.0012630000
      400.8000000000        -0.0062670000
      113.7000000000        -0.0257160000
       37.0300000000        -0.0709240000
       13.2700000000        -0.1654110000
        5.0250000000        -0.1169550000
        1.0130000000         0.5573680000
 s    1  1.00
        0.3023000000         1.0000000000
 p    3  1.00
       17.7000000000         0.0430180000
        3.8540000000         0.2289130000
        1.0460000000         0.5087280000
 p    1  1.00
        0.2753000000         1.0000000000
 d    1  1.00
        1.1850000000         1.0000000000

  6 0
 s    3  1.00
       13.0100000000         0.0196850000
        1.9620000000         0.1379770000
        0.4446000000         0.4781480000
 s    1  1.00
        0.1220000000         1.0000000000
 p    1  1.00
        0.7270000000         1.0000000000

  7 0
 s    3  1.00
       13.0100000000         0.0196850000
        1.9620000000         0.1379770000
        0.4446000000         0.4781480000
 s    1  1.00
        0.1220000000         1.0000000000
 p    1  1.00
        0.7270000000         1.0000000000

  8 0
 s    3  1.00
       13.0100000000         0.0196850000
        1.9620000000         0.1379770000
        0.4446000000         0.4781480000
 s    1  1.00
        0.1220000000         1.0000000000
 p    1  1.00
        0.7270000000         1.0000000000

  9 0
 s    3  1.00
       13.0100000000         0.0196850000
        1.9620000000         0.1379770000
        0.4446000000         0.4781480000
 s    1  1.00
        0.1220000000         1.0000000000
 p    1  1.00
        0.7270000000         1.0000000000

  10 0
 s    3  1.00
       13.0100000000         0.0196850000
        1.9620000000         0.1379770000
        0.4446000000         0.4781480000
 s    1  1.00
        0.1220000000         1.0000000000
 p    1  1.00
        0.7270000000         1.0000000000

  11 0
 s    3  1.00
       13.0100000000         0.0196850000
        1.9620000000         0.1379770000
        0.4446000000         0.4781480000
 s    1  1.00
        0.1220000000         1.0000000000
 p    1  1.00
        0.7270000000         1.0000000000

[5D7F]
[9G]

[MO]
 Sym= A
 Ene=        -1.9136002585e+01
 Spin= Alpha
 Occup=         2.0000000000e+00
  1        -1.7845021352e-05
  2        -3.6103026376e-05
  3         1.5806942424e-04
  4         1.1031732254e-04
  5        -7.7694346393e-05
  6        -1.0149088895e-04
  7        -1.1868518748e-04
  8        -3.2827815548e-04
  9         2.3790833045e-04
 10         7.9949780744e-05
 11        -1.1552549974e-05
 12         1.3209195589e-04
 13         7.6513581583e-05
 14        -2.0638003646e-04
 15        -1.2563079820e-04
 16        -2.2424386971e-04
 17         4.3190178821e-03
 18        -1.5239517503e-05
 19        -3.2994845944e-05
 20        -8.6522144866e-05
 21        -8.8218750202e-04
 22        -1.6927137229e-03
 23         5.8650593456e-04
 24        -2.8691674470e-07
 25         6.7930043498e-05
 26        -6.8259634815e-05
 27        -8.2520647542e-05
 28        -8.0868255869e-05
 29         2.0362490307e-04
 30         3.1483603740e-04
 31        -3.3494032913e-03
 32         2.8757424654e-05
 33         2.3403989202e-04
 34         1.2680262771e-05
 35        -3.9741243085e-03
 36        -3.1118584386e-03
 37         4.6567862573e-04
 38         1.2661574939e-04
 39         1.2142398201e-04
 40         7.6825454423e-05
 41        -5.1921783819e-04
 42         4.1229829183e-04
 43         4.5129595577e-04
 44         5.9927503850e-04
 45         5.6831457385e-03
 46        -3.3680699877e-05
 47        -1.8075746041e-04
 48        -6.7937499353e-05
 49         5.9606974871e-03
 50         7.7025624584e-04
 51        -4.7956610483e-04
 52        -1.6783068931e-05
 53         1.3126316592e-04
 54         1.4842154522e-04
 55        -1.1797827636e-03
 56         4.9575518143e-04
 57         1.0042032639e+00
 58         9.5562434986e-03
 59        -1.4990877828e-02
 60        -1.8098378175e-03
 61         3.8510078916e-04
 62         1.2053367556e-04
 63         3.4536241172e-03
 64        -9.4598415347e-04
 65        -2.4454662484e-04
 66         1.3759553480e-05
 67        -1.0701485445e-05
 68         2.1889328395e-06
 69         8.6910757349e-05
 70         3.1442608987e-05
 71        -8.8656413357e-05
 72        -5.3051657521e-05
 73        -1.1255272462e-04
 74        -5.5351837795e-04
 75         1.3075017112e-04
 76         2.0393045923e-04
 77         4.0617085689e-04
 78        -8.3920726319e-05
 79        -6.7778972956e-05
 80         6.3765061732e-05
 81        -1.4541566861e-04
 82        -2.6841059479e-04
 83         7.2012017644e-05
 84         8.2371919021e-05
 85         5.7357075688e-05
 86        -4.1323749877e-04
 87         6.4806865572e-04
 88        -7.3317376042e-04
 89        -4.1327431919e-05
 90         5.0926215186e-05
 91        -2.1055005915e-04
 92        -1.2140375341e-03
 93         1.9367155802e-04
 94         2.3960713842e-04
 95        -2.9279216874e-05
 96        -1.8274239491e-04
 97         1.8397080260e-04
 98         2.8568606271e-05
 99         7.3020620282e-05
100        -4.4989551434e-05
 Sym= A
 Ene=        -1.0273107670e+01
 Spin= Alpha
 Occup=         2.0000000000e+00
  1        -3.6246788567e-04
  2        -5.1018515864e-04
  3         1.1999389409e-03
  4         2.7923191107e-04
  5         3.1318608287e-05
  6        -4.4890285310e-05
  7        -7.7306651038e-04
  8        -2.8059878670e-04
  9        -4.8330528933e-05
 10        -9.0886717041e-05
 11        -1.4743633564e-04
 12         8.3559370375e-06
 13        -8.2497861957e-05
 14        -6.3299370214e-05
 15        -4.2345028760e-04
 16        -6.4140601679e-04
 17         5.3052238628e-03
 18        -1.9694195973e-04
 19         5.4848072141e-06
 20         3.7456676425e-05
 21        -1.9475328001e-03
 22        -3.0740740628e-03
 23         7.4733756800e-04
 24        -3.2081066425e-04
 25        -2.3963714412e-04
 26        -7.4683748460e-05
 27         1.8221264427e-04
 28         2.0291532150e-04
 29         1.6544081253e-03
 30        -2.7641624434e-04
 31        -1.1258764628e-03
 32        -3.8561637520e-04
 33         8.0707922280e-04
 34         1.1486386123e-04
 35        -2.1572684646e-03
 36        -5.1024555526e-03
 37         3.8307913880e-04
 38         9.9781123993e-04
 39         1.5194806387e-04
 40        -1.4248088815e-04
 41         8.6342296441e-04
 42         1.0205682007e-03
 43         1.0059815259e+00
 44         1.5377487682e-02
 45        -1.0299358804e-02
 46         8.5130835579e-04
 47        -4.7578911809e-04
 48        -3.3896183249e-04
 49         4.9992357015e-03
 50        -1.8361374296e-03
 51        -4.3748092755e-04
 52        -1.5905574256e-03
 53        -1.1461594626e-04
 54         4.0956945148e-04
 55         6.9333720137e-04
 56         6.7671279562e-05
 57         3.8553195939e-04
 58         9.4090010540e-04
 59        -5.7536033527e-03
 60         7.2602094174e-04
 61        -1.2155075011e-04
 62        -7.6610997527e-05
 63         3.4243700355e-03
 64        -8.9042374617e-05
 65        -3.2044205155e-04
 66         5.7227680861e-04
 67         1.7036514488e-04
 68        -5.3478108382e-05
 69        -7.4766862519e-04
 70         1.4887604244e-04
 71        -1.0598246470e-04
 72        -3.6278082691e-04
 73        -2.1427588962e-04
 74        -2.2015353190e-04
 75         2.2714481824e-06
 76        -4.1136090806e-05
 77         4.6175014110e-04
 78        -4.1309163535e-05
 79         1.7755146703e-06
 80         2.9535939871e-05
 81        -6.0136366243e-05
 82         1.3012038595e-04
 83         8.0945138695e-05
 84         7.9853819986e-05
 85        -8.3975178235e-05
 86        -1.8808906772e-03
 87         2.3328995294e-03
 88        -1.3475609131e-03
 89        -1.5317218650e-03
 90        -2.8762560732e-04
 91        -4.9419915614e-04
 92        -4.9687329015e-04
 93         5.9924073468e-05
 94         2.8028293683e-04
 95        -2.8528868689e-05
 96        -5.5918879165e-05
 97         4.2224535041e-04
 98         1.9335776866e-04
 99         9.5527279582e-05
100        -4.7266441208e-05
 Sym= A
 Ene=        -1.0225021795e+01
 Spin= Alpha
 Occup=         2.0000000000e+00
  1         2.3160217115e-03
  2        -3.7493272356e-04
  3         4.3965755410e-03
  4         7.2130136448e-04
  5        -4.8779197110e-05
  6         3.0679221793e-05
  7        -2.5605015098e-03
  8        -4.2801692209e-04
  9         1.0500582423e-05
 10         8.1615059763e-04
 11         1.3441563248e-04
 12         6.4161313722e-05
 13        -9.3761472972e-04
 14        -1.1472282137e-04
 15         1.0064039372e+00
 16         1.6255648447e-02
 17        -2.0315038726e-02
 18        -4.7140393843e-04
 19         3.7782654492e-05
 20        -3.1208801931e-04
 21        -2.3213639259e-03
 22         4.0682735781e-03
 23        -6.8467675646e-04
 24        -7.9618690103e-04
 25         3.5716365329e-04
 26        -8.1741841003e-04
 27        -5.4516843303e-04
 28        -5.3857204985e-04
 29         1.1807611020e-02
 30        -1.0664562766e-03
 31         4.4788276191e-03
 32        -6.4289033389e-04
 33        -1.0449723735e-03
 34         1.7842047444e-04
 35         2.2313118006e-03
 36         2.7558212954e-03
 37        -2.6879616864e-04
 38         8.7319967016e-04
 39         1.4009045669e-04
 40         3.6254808941e-04
 41         3.8847758886e-04
 42        -1.0156661925e-03
 43        -3.2600741957e-04
 44        -6.2422697659e-04
 45         1.4099652099e-03
 46         3.0925549610e-05
 47        -2.0913377522e-04
 48         3.1608943871e-05
 49        -7.2128932074e-04
 50         1.2782591450e-03
 51        -7.2914949734e-05
 52        -2.9637672422e-04
 53        -1.4263187800e-04
 54        -4.5226081306e-05
 55         4.5402318037e-05
 56         1.7415453009e-04
 57        -8.6803927668e-06
 58        -2.0897383145e-05
 59        -1.2205194155e-04
 60         1.1499646969e-04
 61         3.8978407108e-05
 62         1.1802044889e-06
 63        -2.5375519948e-04
 64        -5.1913601068e-04
 65         7.5813731557e-05
 66         9.4486757949e-06
 67        -2.4502695390e-05
 68        -4.3165020206e-06
 69         2.7059949964e-05
 70         4.4312175442e-05
 71        -3.5163448281e-04
 72         9.1776112833e-04
 73        -3.1709928138e-04
 74        -7.8093829545e-05
 75         4.4372348708e-05
 76        -1.7588385174e-04
 77         1.9835878022e-04
 78         1.5314981525e-04
 79        -6.7644373932e-05
 80         8.1811018882e-05
 81        -5.3387278089e-04
 82         8.8509602343e-04
 83        -8.8224877227e-05
 84         1.4918267653e-05
 85         2.8556358897e-05
 86        -1.6908067272e-04
 87         3.1651348948e-04
 88         4.0912475743e-05
 89        -1.2462831729e-04
 90        -2.9716760278e-05
 91         2.0664779959e-04
 92         7.5682201568e-04
 93         2.0392706478e-04
 94        -2.7996044802e-04
 95         1.8419164508e-05
 96        -2.5374027480e-03
 97         1.0771636351e-03
 98        -1.2113343007e-03
 99         1.7202753212e-03
100        -8.1893866980e-04
 Sym= A
 Ene=        -1.0197589144e+01
 Spin= Alpha
 Occup=         2.0000000000e+00
  1         5.5686717695e-04
  2         4.8455890622e-04
  3        -6.3517333205e-04
  4        -1.4093954288e-04
  5        -1.0213600610e-04
  6         1.4079059090e-04
  7         1.0645851804e-03
  8         2.0601287731e-04
  9        -5.2556321761e-04
 10         2.7517701568e-04
 11         5.1301970456e-05
 12         1.2660596744e-04
 13        -8.4304829053e-06
 14         3.5668124148e-05
 15         1.3062032136e-02
 16         1.5310734785e-03
 17        -5.5969766775e-03
 18        -5.7344296149e-04
 19        -1.1285019212e-03
 20         2.4015234724e-04
 21         1.1884647148e-03
 22         3.1036288157e-03
 23        -1.0787252872e-04
 24        -8.7068256587e-04
 25        -2.6946918747e-04
 26        -5.5030572261e-04
 27        -6.9264650712e-04
 28         7.8789509209e-04
 29        -1.0065665661e+00
 30        -1.6679511899e-02
 31         2.1154252069e-02
 32         2.8730778423e-04
 33        -1.8594913117e-04
 34         4.2027311715e-04
 35         4.9482545423e-03
 36         1.9674901340e-04
 37        -1.6655468643e-03
 38         1.0890861830e-03
 39         8.0888321654e-05
 40         9.5842259424e-05
 41        -6.7929609429e-04
 42        -5.4729054391e-04
 43         1.9548360513e-03
 44         7.1982756927e-04
 45        -5.6903304794e-03
 46        -2.9633973542e-04
 47         6.1685575963e-04
 48         1.0549443214e-04
 49         4.9636962363e-04
 50        -3.3847686205e-03
 51        -2.4456282980e-05
 52        -6.9955522790e-04
 53        -2.7758745312e-04
 54         2.6936205957e-04
 55        -4.9465224633e-04
 56        -1.2024801512e-03
 57        -1.8419723034e-05
 58        -3.1484337798e-05
 59         4.5369337295e-04
 60        -2.3884850138e-05
 61         2.6530690552e-05
 62         4.7142049049e-05
 63         1.8363176087e-04
 64         7.6806045316e-04
 65        -7.1859830101e-05
 66         1.2240296341e-04
 67        -1.4100109652e-05
 68         7.6138913855e-06
 69        -6.4025395234e-05
 70        -2.2992192822e-04
 71         1.3514343016e-04
 72        -4.8769761421e-04
 73         5.3873776597e-05
 74         9.2778988672e-06
 75         4.1171563332e-05
 76        -1.8387290136e-07
 77        -4.5246178433e-04
 78        -5.0104623333e-05
 79         1.4841023581e-05
 80         4.9417996701e-05
 81         1.7355142066e-04
 82        -1.5883488054e-04
 83        -1.6268113532e-05
 84        -1.0084273216e-04
 85         1.0986786365e-04
 86         2.9114268608e-04
 87        -8.4146554560e-04
 88        -1.8235269462e-04
 89         1.9813940126e-04
 90        -2.5990953305e-05
 91         2.5180310305e-03
 92        -9.8844966957e-04
 93         2.2449009889e-03
 94         1.4888843361e-05
 95         1.3287142493e-04
 96        -4.7249388648e-05
 97        -5.8168121507e-04
 98        -3.2091284281e-04
 99         2.8475974146e-05
100        -1.4729369105e-04
 Sym= A
 Ene=        -1.0175658476e+01
 Spin= Alpha
 Occup=         2.0000000000e+00
  1         1.0072738801e+00
  2         1.8066357766e-02
  3        -1.9435216726e-02
  4         4.0773714617e-04
  5        -3.1006223425e-04
  6         1.0500044187e-04
  7         2.6500770216e-03
  8         1.2757178028e-03
  9        -4.2065696966e-04
 10        -1.5394784379e-04
 11         1.7387158866e-04
 12        -3.7009442756e-04
 13        -9.5976581751e-04
 14         2.8242420100e-04
 15        -2.4555121457e-03
 16        -2.1689784593e-04
 17         1.7826606761e-03
 18        -4.9793593252e-04
 19         5.8944413197e-05
 20        -3.1621749658e-06
 21         3.4986322298e-03
 22         1.6996013470e-03
 23        -3.0809073817e-04
 24         7.1437247714e-04
 25         1.5742536450e-04
 26        -4.7736609119e-05
 27        -1.2772036043e-03
 28        -1.4628142588e-04
 29        -1.1758899610e-04
 30        -6.4671628383e-04
 31         2.8351719657e-03
 32        -2.4002663471e-04
 33        -3.5165914595e-05
 34        -2.0720952766e-05
 35         1.1750355894e-03
 36         2.2266045566e-03
 37        -3.4068030323e-04
 38        -3.6556369170e-04
 39         1.4721233338e-05
 40        -1.3074204372e-04
 41        -2.6983738365e-04
 42        -1.9190575608e-04
 43        -1.9428192852e-04
 44        -5.6087427062e-04
 45        -3.9182492286e-05
 46        -1.5091011389e-04
 47        -2.3201835672e-04
 48        -7.3336141825e-05
 49        -5.7669577397e-04
 50         6.7096126800e-04
 51         1.9531866811e-04
 52        -8.4121177342e-05
 53        -4.0734634231e-05
 54        -4.2435215454e-05
 55        -5.3162257550e-05
 56         2.1274743075e-04
 57        -1.0417445882e-04
 58        -1.9049228425e-04
 59         5.4303996160e-04
 60         9.3925933022e-05
 61        -3.9823230010e-05
 62        -8.8129570513e-05
 63        -7.1589873534e-04
 64        -8.4444522350e-06
 65         3.3478156185e-04
 66        -7.9361279488e-05
 67        -1.2180554868e-05
 68         4.4246291962e-05
 69         2.2549391194e-05
 70         1.2293239745e-05
 71        -1.4036512420e-03
 72         3.3903815110e-03
 73         4.7816757318e-04
 74        -1.7232193900e-03
 75        -8.8520980453e-04
 76        -1.9535537953e-03
 77         1.5134910598e-03
 78         8.7740325308e-04
 79         1.7976320290e-03
 80        -1.0146399167e-03
 81        -9.5092497696e-04
 82         2.1790825287e-03
 83         5.3464334995e-04
 84        -3.0465764506e-04
 85         1.7781303268e-03
 86        -5.1773796062e-05
 87         3.9689211990e-04
 88         1.5198053994e-05
 89        -2.1241700161e-05
 90        -3.9928584579e-05
 91         1.9765806204e-05
 92         4.8026336597e-04
 93         1.6653114999e-05
 94        -1.5848410113e-04
 95         2.3885885601e-05
 96        -3.0067304078e-04
 97         1.3790849577e-04
 98        -3.5301263114e-04
 99        -1.7182384414e-04
100         5.3833278734e-05
 Sym= A
 Ene=        -1.0459811454e+00
 Spin= Alpha
 Occup=         2.0000000000e+00
  1         1.0914300075e-03
  2        -1.4086438123e-02
  3        -1.9660842906e-03
  4         4.2915382374e-03
  5         7.4491171897e-03
  6         4.3086469220e-05
  7         3.1991724809e-04
  8        -2.0401096718e-03
  9         5.7951434846e-04
 10         6.2097089261e-04
 11         2.1549158323e-04
 12         1.6947892797e-04
 13        -3.6915962733e-04
 14        -7.9347696125e-04
 15         1.8727097997e-04
 16        -1.9311081836e-02
 17         4.8973087336e-03
 18        -1.8350806642e-03
 19         1.2042052196e-02
 20        -1.2024318372e-03
 21        -7.7260214905e-04
 22        -6.1557623322e-03
 23         9.7812605670e-04
 24         9.7052144937e-04
 25         4.2396615500e-04
 26         5.2497420511e-04
 27         1.0081588941e-03
 28        -5.9615757327e-04
 29         4.0699989234e-03
 30        -3.5611224276e-02
 31        -3.0796531805e-02
 32        -2.2642682591e-02
 33         1.6707708558e-02
 34         4.3717020097e-03
 35        -1.8700514983e-02
 36        -1.0986135229e-03
 37         3.5175368103e-03
 38         3.7483920705e-03
 39         1.7630192561e-03
 40        -7.8939484034e-04
 41        -1.4656834953e-03
 42         8.7295495974e-03
 43         1.5236434537e-02
 44        -2.2151875008e-01
 45        -9.0829152721e-02
 46        -1.8230254239e-01
 47         1.3949195512e-02
 48         1.7050866618e-02
 49        -1.4678875599e-02
 50         4.0124043959e-04
 51         1.6344606590e-04
 52         1.3952714954e-02
 53         6.2187546708e-03
 54         1.5046219687e-03
 55        -3.1996279088e-02
 56         9.6449624127e-03
 57         9.8519649862e-03
 58        -4.0001630040e-01
 59        -3.6259857769e-01
 60         1.5304739885e-01
 61        -2.6894487153e-02
 62        -1.2402935418e-02
 63         3.1973127959e-02
 64        -9.7280568000e-03
 65        -1.4595712063e-03
 66         5.8425111484e-03
 67         2.1999780301e-03
 68         9.6097861302e-04
 69        -1.1548354197e-02
 70         3.7699461481e-03
 71        -2.2508334160e-02
 72        -5.3329460463e-03
 73         1.9783422329e-03
 74         2.2694152477e-04
 75        -1.5543881473e-03
 76        -1.9250939729e-03
 77         2.0082938483e-03
 78         2.3335107151e-04
 79         3.9519806570e-04
 80        -1.0727455084e-04
 81        -5.6137103599e-03
 82        -1.3402746453e-03
 83         5.8060146231e-04
 84         7.4703843796e-04
 85         8.2245766816e-04
 86        -4.3258860027e-02
 87         1.9568440995e-03
 88        -9.1565164262e-03
 89        -7.3750600125e-03
 90        -9.1330695222e-04
 91        -6.4069291478e-03
 92        -5.7884452883e-03
 93        -8.7789604964e-04
 94         1.8002875202e-03
 95         1.0414752127e-04
 96        -2.4178339788e-03
 97         1.8812330761e-03
 98         8.0381634496e-05
 99         8.3349549728e-04
100        -1.6495370405e-04
 Sym= A
 Ene=        -8.1685825479e-01
 Spin= Alpha
 Occup=         2.0000000000e+00
  1         1.2724087272e-02
  2        -1.8011481449e-01
  3        -7.1729118032e-02
  4         7.0245172760e-02
  5         1.7164393955e-02
  6        -4.5692669908e-03
  7         1.0096385119e-03
  8        -1.0687294371e-02
  9         6.3336906828e-03
 10         5.8073212755e-03
 11         9.0239308024e-04
 12        -3.5379019437e-04
 13        -1.0596220352e-02
 14        -2.5370992276e-03
 15         1.9989479908e-02
 16        -2.8580701756e-01
 17        -2.0673898030e-01
 18        -9.7123364126e-03
 19         7.9004284449e-02
 20        -8.0094714722e-03
 21        -3.0908994195e-02
 22         3.1564314666e-02
 23        -7.9422493605e-03
 24         1.0524908467e-02
 25         2.3591856880e-03
 26         2.2735706932e-03
 27        -1.6419999052e-03
 28        -7.6952065579e-03
 29         1.7456933426e-02
 30        -2.5028218425e-01
 31        -1.3103219180e-01
 32        -6.4524228408e-02
 33        -5.5329050354e-02
 34         2.6433515697e-02
 35        -2.9794609237e-03
 36        -1.6643854196e-02
 37         6.3244363359e-03
 38         6.6737754549e-03
 39         2.9870762685e-03
 40         3.0022694162e-03
 41         7.8030377540e-03
 42        -8.0152634581e-03
 43         2.7485874039e-03
 44        -6.0575619394e-02
 45        -4.8178694081e-02
 46         8.1407166350e-02
 47        -8.2628648111e-02
 48        -8.1354211028e-03
 49         2.1873122189e-02
 50        -2.4188480485e-02
 51        -4.3324981906e-03
 52         3.0296288740e-03
 53        -4.0586269974e-04
 54        -1.0513452434e-03
 55         1.3850700866e-02
 56         3.4622604210e-03
 57        -5.6458770604e-04
 58         8.5853071903e-02
 59         8.4847466362e-02
 60        -1.6771036770e-02
 61        -2.1603560259e-02
 62         1.8256564952e-03
 63        -1.3479240523e-04
 64        -8.9697765853e-03
 65         1.1487531081e-04
 66         6.0047874035e-05
 67        -2.4844705242e-04
 68        -3.8941367161e-04
 69         2.0172692949e-03
 70         1.8376301280e-03
 71        -7.8419386372e-02
 72        -2.7208291276e-04
 73         4.1820310421e-03
 74        -9.9596244860e-03
 75        -5.2695958654e-03
 76        -5.7486291626e-02
 77         1.4500652965e-03
 78         5.5745911855e-03
 79         7.7999967158e-03
 80        -3.8417125980e-03
 81        -6.7044305949e-02
 82        -4.9750622269e-03
 83         4.9836380405e-03
 84        -3.8059147717e-04
 85         8.6268244557e-03
 86        -1.5032807073e-02
 87        -1.3727403255e-03
 88         7.7890012396e-04
 89        -2.8903359374e-03
 90        -1.4668502973e-04
 91        -7.7911368907e-02
 92        -2.2420516448e-03
 93        -1.3433228198e-02
 94        -2.5043003650e-03
 95         8.4495925117e-04
 96        -9.2895006746e-02
 97        -1.4085528470e-02
 98        -6.4110853117e-03
 99         1.2420233122e-02
100        -4.4123177610e-03
 Sym= A
 Ene=        -7.1683260500e-01
 Spin= Alpha
 Occup=         2.0000000000e+00
  1         1.5874609546e-02
  2        -2.7819601008e-01
  3        -1.1521773432e-01
  4         1.7585287491e-02
  5         4.4608817429e-03
  6        -3.1851517828e-03
  7        -1.5591906042e-02
  8        -9.8851734615e-03
  9         3.7234039628e-03
 10         1.1737540858e-03
 11        -5.3510601942e-05
 12        -6.1175200667e-04
 13        -2.7218875255e-03
 14         2.9498998582e-03
 15         5.3145864119e-03
 16        -4.9290499962e-02
 17        -9.0027037513e-02
 18        -1.3866892192e-01
 19        -8.0539353926e-02
 20         1.6023809206e-02
 21        -8.2476173473e-02
 22         6.2768133272e-04
 23        -1.4146266907e-03
 24         3.7281593199e-03
 25        -1.3830337871e-04
 26        -1.2034293395e-03
 27        -1.8005882160e-02
 28         7.0224024160e-03
 29        -1.3577650480e-02
 30         2.2662289547e-01
 31         1.6831988273e-01
 32        -2.1932123140e-03
 33        -6.2506693826e-02
 34        -1.3885703708e-02
 35         3.1318945772e-02
 36        -2.7731474399e-02
 37        -2.9038011322e-03
 38        -3.7904611088e-03
 39        -3.7825416155e-04
 40         1.9069168462e-03
 41        -9.1273388409e-03
 42        -7.4495158012e-03
 43        -3.7002555777e-03
 44         1.7216308481e-01
 45         8.6252198933e-02
 46        -1.0963164214e-01
 47         5.8941331316e-02
 48         1.0289534342e-02
 49        -3.8352273406e-02
 50         1.0008683419e-02
 51         9.7437211940e-04