Generated by Psi4
        SP                           RHF                       CC-PVDZ
Number of atoms                            I               11
Charge                                     I                0
Multiplicity                               I                1
Number of electrons                        I               38
Number of alpha electrons                  I               19
Number of beta electrons                   I               19
Number of basis functions                  I              100
Number of independent functions            I              100
Atomic numbers                             I   N=          11
           6           6           6           6           8           1
           1           1           1           1           1
Nuclear charges                            R   N=          11
  6.00000000e+00  6.00000000e+00  6.00000000e+00  6.00000000e+00  8.00000000e+00
  1.00000000e+00  1.00000000e+00  1.00000000e+00  1.00000000e+00  1.00000000e+00
  1.00000000e+00
Current cartesian coordinates              R   N=          33
  1.64089490e+00  3.00527464e+00  3.01466995e-01 -7.91745647e-01  2.41088604e+00
 -1.72178440e-01 -2.04452911e+00 -9.79730357e-03  2.92411030e-01 -8.88055028e-01
 -2.27828314e+00  1.03843877e-01  1.58152817e+00 -2.68264160e+00 -4.06642278e-01
  2.35359991e+00 -1.03659730e+00 -7.10797440e-01  2.42540654e+00  4.82826868e+00
 -2.62335044e-01  2.90225196e+00  1.75482368e+00  1.36193143e+00 -1.92158999e+00
 -4.06010498e+00  2.71327394e-01 -4.08365893e+00 -1.29830795e-02  6.17209560e-01
 -1.96890702e+00  3.85654656e+00 -1.08118382e+00
Integer atomic weights                     I   N=          11
          12          12          12          12          16           1
           1           1           1           1           1
Real atomic weights                        R   N=          11
  1.20000000e+01  1.20000000e+01  1.20000000e+01  1.20000000e+01  1.59949146e+01
  1.00782503e+00  1.00782503e+00  1.00782503e+00  1.00782503e+00  1.00782503e+00
  1.00782503e+00
Number of primitive shells                 I              140
Number of contracted shells                I               48
Pure/Cartesian d shells                    I                0
Pure/Cartesian f shells                    I                0
Highest angular momentum                   I                2
Largest degree of contraction              I                8
Shell types                                I   N=          48
           0           0           0           1           1          -2
           0           0           0           1           1          -2
           0           0           0           1           1          -2
           0           0           0           1           1          -2
           0           0           0           1           1          -2
           0           0           1           0           0           1
           0           0           1           0           0           1
           0           0           1           0           0           1
Number of primitives per shell             I   N=          48
           8           8           1           3           1           1
           8           8           1           3           1           1
           8           8           1           3           1           1
           8           8           1           3           1           1
           8           8           1           3           1           1
           3           1           1           3           1           1
           3           1           1           3           1           1
           3           1           1           3           1           1
Shell to atom map                          I   N=          48
           1           1           1           1           1           1
           2           2           2           2           2           2
           3           3           3           3           3           3
           4           4           4           4           4           4
           5           5           5           5           5           5
           6           6           6           7           7           7
           8           8           8           9           9           9
          10          10          10          11          11          11
Primitive exponents                        R   N=         140
  6.66500000e+03  1.00000000e+03  2.28000000e+02  6.47100000e+01  2.10600000e+01
  7.49500000e+00  2.79700000e+00  5.21500000e-01  6.66500000e+03  1.00000000e+03
  2.28000000e+02  6.47100000e+01  2.10600000e+01  7.49500000e+00  2.79700000e+00
  5.21500000e-01  1.59600000e-01  9.43900000e+00  2.00200000e+00  5.45600000e-01
  1.51700000e-01  5.50000000e-01  6.66500000e+03  1.00000000e+03  2.28000000e+02
  6.47100000e+01  2.10600000e+01  7.49500000e+00  2.79700000e+00  5.21500000e-01
  6.66500000e+03  1.00000000e+03  2.28000000e+02  6.47100000e+01  2.10600000e+01
  7.49500000e+00  2.79700000e+00  5.21500000e-01  1.59600000e-01  9.43900000e+00
  2.00200000e+00  5.45600000e-01  1.51700000e-01  5.50000000e-01  6.66500000e+03
  1.00000000e+03  2.28000000e+02  6.47100000e+01  2.10600000e+01  7.49500000e+00
  2.79700000e+00  5.21500000e-01  6.66500000e+03  1.00000000e+03  2.28000000e+02
  6.47100000e+01  2.10600000e+01  7.49500000e+00  2.79700000e+00  5.21500000e-01
  1.59600000e-01  9.43900000e+00  2.00200000e+00  5.45600000e-01  1.51700000e-01
  5.50000000e-01  6.66500000e+03  1.00000000e+03  2.28000000e+02  6.47100000e+01
  2.10600000e+01  7.49500000e+00  2.79700000e+00  5.21500000e-01  6.66500000e+03
  1.00000000e+03  2.28000000e+02  6.47100000e+01  2.10600000e+01  7.49500000e+00
  2.79700000e+00  5.21500000e-01  1.59600000e-01  9.43900000e+00  2.00200000e+00
  5.45600000e-01  1.51700000e-01  5.50000000e-01  1.17200000e+04  1.75900000e+03
  4.00800000e+02  1.13700000e+02  3.70300000e+01  1.32700000e+01  5.02500000e+00
  1.01300000e+00  1.17200000e+04  1.75900000e+03  4.00800000e+02  1.13700000e+02
  3.70300000e+01  1.32700000e+01  5.02500000e+00  1.01300000e+00  3.02300000e-01
  1.77000000e+01  3.85400000e+00  1.04600000e+00  2.75300000e-01  1.18500000e+00
  1.30100000e+01  1.96200000e+00  4.44600000e-01  1.22000000e-01  7.27000000e-01
  1.30100000e+01  1.96200000e+00  4.44600000e-01  1.22000000e-01  7.27000000e-01
  1.30100000e+01  1.96200000e+00  4.44600000e-01  1.22000000e-01  7.27000000e-01
  1.30100000e+01  1.96200000e+00  4.44600000e-01  1.22000000e-01  7.27000000e-01
  1.30100000e+01  1.96200000e+00  4.44600000e-01  1.22000000e-01  7.27000000e-01
  1.30100000e+01  1.96200000e+00  4.44600000e-01  1.22000000e-01  7.27000000e-01
Contraction coefficients                   R   N=         140
  6.91583963e-04  5.32579615e-03  2.70607210e-02  1.01656846e-01  2.74574824e-01
  4.48294319e-01  2.84902611e-01  1.51948592e-02 -2.93269653e-04 -2.31803547e-03
 -1.14997860e-02 -4.68267270e-02 -1.28466169e-01 -3.01266272e-01 -2.55630702e-01
  1.09379336e+00  1.00000000e+00  5.69792516e-02  3.13207212e-01  7.60376742e-01
  1.00000000e+00  1.00000000e+00  6.91583963e-04  5.32579615e-03  2.70607210e-02
  1.01656846e-01  2.74574824e-01  4.48294319e-01  2.84902611e-01  1.51948592e-02
 -2.93269653e-04 -2.31803547e-03 -1.14997860e-02 -4.68267270e-02 -1.28466169e-01
 -3.01266272e-01 -2.55630702e-01  1.09379336e+00  1.00000000e+00  5.69792516e-02
  3.13207212e-01  7.60376742e-01  1.00000000e+00  1.00000000e+00  6.91583963e-04
  5.32579615e-03  2.70607210e-02  1.01656846e-01  2.74574824e-01  4.48294319e-01
  2.84902611e-01  1.51948592e-02 -2.93269653e-04 -2.31803547e-03 -1.14997860e-02
 -4.68267270e-02 -1.28466169e-01 -3.01266272e-01 -2.55630702e-01  1.09379336e+00
  1.00000000e+00  5.69792516e-02  3.13207212e-01  7.60376742e-01  1.00000000e+00
  1.00000000e+00  6.91583963e-04  5.32579615e-03  2.70607210e-02  1.01656846e-01
  2.74574824e-01  4.48294319e-01  2.84902611e-01  1.51948592e-02 -2.93269653e-04
 -2.31803547e-03 -1.14997860e-02 -4.68267270e-02 -1.28466169e-01 -3.01266272e-01
 -2.55630702e-01  1.09379336e+00  1.00000000e+00  5.69792516e-02  3.13207212e-01
  7.60376742e-01  1.00000000e+00  1.00000000e+00  7.09645947e-04  5.46727229e-03
  2.78231186e-02  1.04747740e-01  2.82920846e-01  4.48495239e-01  2.70816885e-01
  1.54502916e-02 -3.14443412e-04 -2.48213768e-03 -1.23163554e-02 -5.05389173e-02
 -1.39384903e-01 -3.25077495e-01 -2.29848308e-01  1.09537935e+00  1.00000000e+00
  6.26791663e-02  3.33536566e-01  7.41239642e-01  1.00000000e+00  1.00000000e+00
  3.34987264e-02  2.34800801e-01  8.13682958e-01  1.00000000e+00  1.00000000e+00
  3.34987264e-02  2.34800801e-01  8.13682958e-01  1.00000000e+00  1.00000000e+00
  3.34987264e-02  2.34800801e-01  8.13682958e-01  1.00000000e+00  1.00000000e+00
  3.34987264e-02  2.34800801e-01  8.13682958e-01  1.00000000e+00  1.00000000e+00
  3.34987264e-02  2.34800801e-01  8.13682958e-01  1.00000000e+00  1.00000000e+00
  3.34987264e-02  2.34800801e-01  8.13682958e-01  1.00000000e+00  1.00000000e+00
Coordinates of each shell                  R   N=         144
  1.64089490e+00  3.00527464e+00  3.01466995e-01  1.64089490e+00  3.00527464e+00
  3.01466995e-01  1.64089490e+00  3.00527464e+00  3.01466995e-01  1.64089490e+00
  3.00527464e+00  3.01466995e-01  1.64089490e+00  3.00527464e+00  3.01466995e-01
  1.64089490e+00  3.00527464e+00  3.01466995e-01 -7.91745647e-01  2.41088604e+00
 -1.72178440e-01 -7.91745647e-01  2.41088604e+00 -1.72178440e-01 -7.91745647e-01
  2.41088604e+00 -1.72178440e-01 -7.91745647e-01  2.41088604e+00 -1.72178440e-01
 -7.91745647e-01  2.41088604e+00 -1.72178440e-01 -7.91745647e-01  2.41088604e+00
 -1.72178440e-01 -2.04452911e+00 -9.79730357e-03  2.92411030e-01 -2.04452911e+00
 -9.79730357e-03  2.92411030e-01 -2.04452911e+00 -9.79730357e-03  2.92411030e-01
 -2.04452911e+00 -9.79730357e-03  2.92411030e-01 -2.04452911e+00 -9.79730357e-03
  2.92411030e-01 -2.04452911e+00 -9.79730357e-03  2.92411030e-01 -8.88055028e-01
 -2.27828314e+00  1.03843877e-01 -8.88055028e-01 -2.27828314e+00  1.03843877e-01
 -8.88055028e-01 -2.27828314e+00  1.03843877e-01 -8.88055028e-01 -2.27828314e+00
  1.03843877e-01 -8.88055028e-01 -2.27828314e+00  1.03843877e-01 -8.88055028e-01
 -2.27828314e+00  1.03843877e-01  1.58152817e+00 -2.68264160e+00 -4.06642278e-01
  1.58152817e+00 -2.68264160e+00 -4.06642278e-01  1.58152817e+00 -2.68264160e+00
 -4.06642278e-01  1.58152817e+00 -2.68264160e+00 -4.06642278e-01  1.58152817e+00
 -2.68264160e+00 -4.06642278e-01  1.58152817e+00 -2.68264160e+00 -4.06642278e-01
  2.35359991e+00 -1.03659730e+00 -7.10797440e-01  2.35359991e+00 -1.03659730e+00
 -7.10797440e-01  2.35359991e+00 -1.03659730e+00 -7.10797440e-01  2.42540654e+00
  4.82826868e+00 -2.62335044e-01  2.42540654e+00  4.82826868e+00 -2.62335044e-01
  2.42540654e+00  4.82826868e+00 -2.62335044e-01  2.90225196e+00  1.75482368e+00
  1.36193143e+00  2.90225196e+00  1.75482368e+00  1.36193143e+00  2.90225196e+00
  1.75482368e+00  1.36193143e+00 -1.92158999e+00 -4.06010498e+00  2.71327394e-01
 -1.92158999e+00 -4.06010498e+00  2.71327394e-01 -1.92158999e+00 -4.06010498e+00
  2.71327394e-01 -4.08365893e+00 -1.29830795e-02  6.17209560e-01 -4.08365893e+00
 -1.29830795e-02  6.17209560e-01 -4.08365893e+00 -1.29830795e-02  6.17209560e-01
 -1.96890702e+00  3.85654656e+00 -1.08118382e+00 -1.96890702e+00  3.85654656e+00
 -1.08118382e+00 -1.96890702e+00  3.85654656e+00 -1.08118382e+00
Total Energy                               R     -2.312257470881800e+02
Alpha Orbital Energies                     R   N=         100
 -1.91746318e+01 -1.02504975e+01 -1.02059742e+01 -1.01902669e+01 -1.01826152e+01
 -1.06539765e+00 -8.02044739e-01 -7.31545065e-01 -6.28869258e-01 -5.78960070e-01
 -4.99336073e-01 -4.78608391e-01 -4.47232838e-01 -4.09445375e-01 -3.94366825e-01
 -3.76833044e-01 -3.47373294e-01 -3.00400503e-01 -2.18328392e-01 -2.56392379e-02
  5.66445797e-02  7.25224205e-02  8.06350483e-02  1.01052263e-01  1.25767857e-01
  1.41933127e-01  1.64089288e-01  2.20763460e-01  3.01263331e-01  3.21663634e-01
  3.49889725e-01  4.33731611e-01  4.44666625e-01  4.75036115e-01  4.78457471e-01
  4.95078001e-01  5.11432843e-01  5.35446468e-01  5.55435044e-01  5.66802061e-01
  5.81834283e-01  6.12546099e-01  6.27331835e-01  6.57864286e-01  6.74848487e-01
  7.20301314e-01  7.68862780e-01  7.95553074e-01  8.80487918e-01  9.03594363e-01
  9.41112878e-01  9.53836873e-01  9.63501070e-01  1.00197421e+00  1.03999295e+00
  1.05082472e+00  1.09412102e+00  1.10409436e+00  1.16308781e+00  1.19025506e+00
  1.21899057e+00  1.31971425e+00  1.36676467e+00  1.43611417e+00  1.45332748e+00
  1.48365336e+00  1.50513504e+00  1.52940112e+00  1.55613393e+00  1.58843481e+00
  1.60395780e+00  1.64612021e+00  1.68399642e+00  1.71745500e+00  1.73272774e+00
  1.75203744e+00  1.76010291e+00  1.82390011e+00  1.89625905e+00  1.92298368e+00
  1.97915602e+00  1.98757286e+00  2.03691622e+00  2.07912171e+00  2.09945356e+00
  2.17344226e+00  2.21698825e+00  2.26915859e+00  2.38924876e+00  2.40153183e+00
  2.42290963e+00  2.57304568e+00  2.73517920e+00  2.78157005e+00  2.87875097e+00
  2.95567988e+00  3.02646536e+00  3.17781586e+00  3.43526426e+00  3.69698738e+00
Alpha MO coefficients                      R   N=       10000
 -7.82001230e-05 -1.34623465e-04  1.20630692e-03 -1.01914612e-04  7.48354505e-05
  2.32432009e-05 -2.38826655e-04 -1.34231012e-03  1.61132230e-04 -7.07179051e-05
  1.17846274e-05  4.24979703e-05 -5.05481118e-05  7.56226269e-05  2.10663891e-04
  3.62700198e-04 -5.57357134e-03 -6.05930017e-06  5.79133843e-06  6.50656554e-05
  2.38233924e-04  2.95528545e-03 -8.99014805e-04  6.59971292e-05 -1.26671550e-04
  1.03445072e-04 -5.99329048e-06  2.33394553e-05 -1.92284893e-04 -2.80864603e-04
  4.73767064e-03  5.00471684e-05 -2.65230667e-04  6.47877539e-06  4.64986025e-03
  3.14967814e-03 -1.06885801e-03 -1.59222679e-04 -1.42745485e-04  6.56323863e-05
  3.94301368e-04 -3.98106446e-04 -1.99858956e-04 -3.64093335e-04 -5.66242995e-03
 -3.29329214e-04  2.18997537e-04  9.89571282e-05 -5.88674764e-03 -1.44078385e-03
  1.21169067e-03  4.01218655e-04  4.67375417e-06  7.14477357e-05  7.08198348e-04
 -4.03310699e-04 -1.00408348e+00 -9.35859986e-03  1.40474086e-02  8.93506084e-04
 -1.45600151e-03 -5.22224019e-05 -3.23874720e-03  1.41768639e-03  6.05366173e-04
  2.10884826e-05  2.71783438e-06  8.55023509e-05  1.51035336e-04 -2.63870824e-04
 -2.49726379e-04 -3.20975555e-04 -2.31239540e-04 -9.84789474e-04  6.58612079e-05
  5.42016160e-05  2.96332641e-04  3.71403718e-05  6.22630777e-05  7.07792693e-06
 -2.31062232e-04 -2.02431825e-04  3.24781321e-06 -2.41431389e-05 -1.20341149e-05
  4.00292273e-04 -8.93745719e-04  6.35927529e-04  1.42615926e-04 -1.26790328e-04
  1.67049908e-04  1.25573201e-03 -2.26655616e-04 -2.08810351e-04  6.37761312e-05
  9.10366899e-05 -6.08858338e-04 -3.48620575e-05 -1.08426073e-04  2.92217789e-05
 -2.80647647e-04 -3.44490639e-04  1.12080015e-03  1.44632236e-04  8.03594698e-05
  7.25232503e-05 -1.27918622e-03  4.85470109e-04 -6.38519919e-04 -7.60989062e-05
 -1.60645650e-05 -2.96086775e-05  5.48539886e-05 -3.73928258e-05 -4.91920683e-04
 -7.04627685e-04  4.85606956e-03 -1.18778457e-04  1.23810107e-05  2.26196476e-06
 -2.40185476e-03 -4.14525294e-03  7.61710781e-04 -3.51800353e-04 -9.81556747e-05
 -1.05220818e-04  5.61995623e-06  1.85626148e-04  4.63624813e-03 -1.01188147e-03
  1.74918302e-04 -5.76723606e-04  1.35538806e-03  9.61667763e-05 -1.95227226e-03
 -6.48589849e-03  7.74655362e-04  1.07480933e-03  2.40268632e-04 -5.22477683e-05
  5.71049246e-04  9.01134953e-04  1.00591560e+00  1.53017723e-02 -1.25852886e-02
  5.65872064e-04 -4.61478329e-04 -1.77031601e-04  5.08098403e-03 -2.38769956e-03
 -1.01759973e-03 -1.63140288e-03 -5.09759618e-04  3.62511672e-05 -3.04876633e-04
 -2.54595195e-05  7.22784630e-04  1.30440467e-03 -4.95279301e-03  2.65577440e-04
 -2.09025799e-04 -3.44134196e-05  3.26669371e-03 -2.69733302e-04 -6.93783596e-04
  6.96793395e-04  4.31182728e-04 -1.62014672e-05 -7.66269276e-04  2.01333205e-04
  5.25600623e-04 -4.39738045e-04 -6.24671254e-04 -2.66229031e-05  1.18492586e-04
 -5.38539461e-05  1.72624177e-04 -2.58874605e-05 -5.47220347e-05  3.08412508e-05
  5.31852083e-06  9.36554620e-04  1.08566096e-05  6.37873420e-05 -2.94204649e-05
 -2.14963280e-03  2.32256791e-03 -1.53418337e-03 -1.58745622e-03  2.65018892e-04
 -1.42222254e-04 -2.69781653e-04  3.01984297e-04  2.93001455e-04 -7.40173546e-05
 -5.54245620e-05  5.49752884e-04  1.71498274e-04  1.30794196e-04 -3.21657431e-05
  2.18662322e-02 -1.13585487e-03  4.79797973e-03  1.33169029e-03  3.39139827e-04
  1.67078225e-04 -2.08453584e-03 -1.80989429e-03  3.82854371e-04  7.61361858e-04
 -5.48094063e-04 -2.98743925e-05 -1.06446291e-03 -4.02446393e-04  1.00619624e+00
  1.62768495e-02 -1.92204710e-02 -1.23801913e-04  2.15433323e-04 -2.41294426e-04
 -1.71684400e-03  3.19171853e-03 -1.76502438e-03 -7.65461578e-04  6.96352736e-04
 -6.44581513e-04  2.29107412e-04 -3.56746624e-05  5.64334231e-03 -4.36584336e-04
  1.05901369e-03 -4.63404608e-04 -6.26296421e-04  1.44815120e-04  7.43310423e-04
  3.88528679e-03  2.83367610e-04  7.98181026e-04  4.24301178e-05  5.87348990e-04
  1.09533814e-03 -9.56065632e-04 -3.59694163e-04 -7.05100008e-04  4.16097364e-03
 -1.05271492e-04 -1.62615473e-04  1.29192211e-04 -6.21825543e-04  2.80972460e-03
 -2.70320411e-04 -4.31401109e-04 -3.17959048e-04  6.05943157e-05  4.07126658e-04
 -3.09144781e-04  9.04871326e-05  1.33045189e-04 -1.23350398e-03  1.63917156e-04
 -3.99336780e-05 -2.65479669e-05  1.33038630e-04 -6.98590204e-04  9.14536716e-05
  8.37880119e-05  2.46294019e-05  1.97995362e-05 -1.42433264e-05  1.83140682e-05
  2.95159668e-04  6.10453763e-04 -2.76351070e-04 -8.13572380e-05 -1.70570700e-05
 -4.95472526e-05  9.00496938e-04  1.44304061e-04 -1.15920410e-04  7.70075501e-05
 -2.58126079e-04 -2.10809446e-04  3.86654823e-05  2.46530217e-04 -1.15267689e-04
  9.68598010e-05  8.03458101e-04  1.79660829e-04 -5.79577452e-05  2.05326134e-06
 -2.96121059e-04  4.00981847e-04 -6.99279064e-05 -3.84240396e-04 -5.79070173e-05
 -2.29781474e-03  1.19613411e-03 -1.15881573e-03  1.51847191e-03 -9.28233014e-04
  1.00619472e+00  1.63762979e-02 -1.52186536e-02  2.78841467e-04 -4.34636579e-05
  3.67866612e-05  2.18355395e-03  7.15219133e-04  7.35855240e-04 -1.04378325e-03
  7.48602793e-04 -1.17734454e-03  6.53263561e-05  3.35654446e-04 -2.30977043e-02
 -1.45346750e-03  9.49097238e-04 -1.34729020e-03 -3.35731725e-04 -2.77106417e-04
  2.88866741e-03  2.50524001e-03 -5.05174392e-05  1.00590328e-03 -5.85260764e-04
  1.85310081e-04 -9.98050301e-04 -7.76740734e-04 -1.09631373e-03 -5.21177468e-04
  3.52985861e-03 -8.43655685e-05  5.44484261e-05 -6.71113219e-05  1.95098989e-03
  2.47024252e-03 -5.06887201e-04 -3.74841983e-04  7.51170407e-05 -2.47061355e-04
 -3.37571239e-04  3.29734309e-05  1.08084459e-05 -2.06447365e-04 -6.51169620e-04
  3.88690026e-07 -1.34551478e-04 -5.23098664e-05 -1.31669804e-03 -1.58818848e-04
  3.03305322e-04  5.93102164e-05  9.89582332e-05 -8.98017215e-05 -4.70066245e-05
  1.06093425e-04  1.06106862e-05  3.44032334e-05  4.08972907e-04  1.19495866e-04
  6.64111665e-05 -3.90840540e-05 -6.65904750e-04 -1.69584151e-04  1.04808602e-04
 -3.03649276e-05 -3.41761016e-05 -2.80419027e-05  7.92999668e-05  5.40428348e-05
  1.64971527e-04  1.28350440e-03 -1.20324013e-04  4.20854536e-04  8.97971241e-05
 -2.31429649e-03  1.90004856e-03  7.44100136e-04  2.02335854e-03 -6.95646041e-04
 -2.14122486e-03  1.49371457e-03  1.21953879e-03 -1.48540967e-03  1.22727677e-03
 -8.09209272e-05 -3.29604297e-05  3.93785648e-05  2.03615650e-05 -1.95297810e-05
  1.09285819e-04  5.82274430e-04  1.12535631e-05 -1.31704455e-04  4.47930516e-05
  7.86159881e-05  2.43103320e-04  1.91700663e-05 -3.17107733e-04  1.05262470e-04
  3.75622801e-04 -4.52851372e-04  2.84801205e-03  7.32722416e-05  1.05045462e-04
 -8.59009068e-05 -2.11383625e-03 -4.34690000e-04 -4.92858065e-05 -2.53423408e-04
  5.24713281e-04 -3.07224042e-04  2.74824453e-04 -4.79913341e-04 -6.02577820e-03
 -6.87641761e-04  2.98679788e-03  2.12073664e-04  6.99108699e-04 -1.77836245e-04
 -2.12252904e-03 -3.86545013e-03 -4.98244970e-05  9.04417901e-04  4.95645329e-04
  3.63821733e-04  5.58445380e-04 -1.31094257e-03  1.00664544e+00  1.67457449e-02
 -2.18767186e-02 -2.22416714e-04 -1.59323529e-04 -1.22623400e-04 -5.14259013e-03
 -2.56500050e-04  1.59034231e-03 -1.08010896e-03 -3.79103845e-04 -5.96094241e-06
  2.87323993e-04 -2.16605069e-04 -5.89455984e-03 -1.59994037e-03  6.75342226e-03
  6.41003761e-04 -1.23785233e-03 -9.27902717e-05  3.03845709e-04  4.19791863e-03
 -3.48057781e-04  8.42648501e-04  1.60861873e-04 -2.07487007e-04  6.99937601e-04
  1.01688013e-03  3.45520607e-05  4.90535016e-05 -9.61171204e-04  2.75761291e-05
 -5.84015546e-05 -2.43685999e-06 -1.06394131e-04 -7.08512855e-04  7.28372044e-05
 -5.75352324e-05 -4.16347570e-05 -9.69287750e-06  9.74207593e-05  8.17363937e-05
  2.72206459e-04  3.61096952e-05 -1.36314454e-04 -1.62795131e-04  2.46590792e-05
  1.10556112e-04  5.14515707e-04  1.41432948e-04 -1.45513207e-04  5.10555438e-05
 -7.06578901e-04  5.07409685e-04  1.93518480e-04 -1.20787330e-04  1.21834911e-04
  1.44492494e-04  1.20999609e-03  2.84267238e-04 -2.12213580e-05 -1.76798551e-05
 -2.37703540e-03  8.33847079e-04 -2.11820720e-03 -5.70485580e-05  2.61701227e-04
 -3.32496934e-04  6.92493999e-04  2.06480071e-04  2.88453514e-04  7.31762406e-05
  1.42608046e-04  8.37594688e-03 -4.39750206e-03 -1.88380144e-03 -5.06024138e-03
 -6.71954997e-04  2.60117757e-03  5.18595224e-03 -1.91508377e-03 -2.56784905e-04
 -5.67989463e-04  7.04748607e-04 -8.18993780e-04  9.78662857e-04 -8.55027735e-05
  1.30829947e-02  1.94117620e-03  1.52652237e-03 -8.61556168e-03  9.74972541e-04
  5.92749387e-03  3.22844601e-03  1.33645908e-04 -1.38216752e-03 -1.61734831e-04
 -4.29336615e-04 -1.31609229e-03  4.40739852e-04 -1.31378098e-03  3.50276828e-02
 -4.53377393e-03  2.11433994e-02 -1.80144889e-02 -4.29425193e-03  5.36297969e-03
  1.51302641e-02 -2.03370724e-03 -2.21846511e-03 -1.11495390e-03  1.54651791e-03
  2.24216020e-03 -8.06169124e-03 -1.26952186e-02  1.53930618e-01  8.52676389e-02
  1.25892495e-01 -5.89297996e-03 -2.71212649e-02  4.92602165e-03  2.40504136e-02
 -1.28380730e-03 -1.10813586e-02 -1.07884694e-02  9.49557312e-04  2.83541861e-02
 -4.98612453e-03 -6.69482595e-03  4.24027624e-01  3.72610927e-01 -7.29677184e-02
  9.06130298e-02  8.66466575e-03 -3.10867480e-02 -1.69982363e-03  6.77728109e-03
 -6.34331214e-03 -3.34810435e-03 -3.98253250e-04  3.92894408e-03 -1.85333667e-03
  1.71813809e-01  4.91781448e-03 -1.87997760e-02 -2.98345948e-02  7.09712811e-03
  9.66965160e-06 -3.93121210e-03  5.80605521e-05  1.12522742e-04 -1.63367053e-04
  7.42420817e-03  4.64237491e-03 -1.14194016e-03 -6.54239933e-04 -9.28160278e-04
  3.42451330e-02  5.33600536e-03  8.28446367e-03  4.47763445e-03 -1.52300128e-03
  5.02979490e-03  1.99699306e-03  4.06444867e-04 -2.29606519e-03  1.00158187e-05
  1.62554282e-03 -1.17663131e-03 -3.01186133e-04 -4.45893455e-04 -8.52027840e-05
  1.47949556e-02 -1.92070747e-01 -1.03929598e-01  8.30519919e-02  2.91186120e-02
  1.39034994e-02  8.64588049e-03 -2.93755522e-03  8.26321533e-03  4.80892279e-03
 -2.29367842e-03 -3.33418879e-03 -7.81128149e-03 -5.99408277e-03  1.94281840e-02
 -2.77796180e-01 -1.78166561e-01 -3.79774930e-02  4.01249127e-02 -1.92558358e-02
 -1.88045300e-02  2.09188443e-02 -1.37845557e-02  1.04405180e-02 -8.68187595e-04
  1.31741801e-03 -1.52280641e-03 -1.09995494e-02  1.81815731e-02 -2.41141776e-01
 -1.42191482e-01 -5.46850675e-02 -1.54667606e-02  1.55071884e-02 -1.90440173e-02
 -1.17385997e-02  9.50451351e-03  8.65089449e-03  1.74950880e-03  2.61511115e-03
  9.49346765e-03 -5.28593220e-03  5.50735225e-03 -1.24565771e-01 -6.68870708e-02
  6.08214565e-02 -8.56358504e-02 -1.00240837e-02  2.32217809e-02 -1.26823344e-02
 -6.63744188e-03  3.37330271e-03 -1.66055437e-03 -5.03708244e-04  1.20904592e-02
  4.10483038e-03  1.10350898e-03  8.79759669e-02  8.10478858e-02  2.66923232e-02
  2.35620266e-03 -7.45334799e-03  1.62959358e-02 -7.88410573e-03 -3.32159973e-03
  7.96113696e-04  3.95121772e-04 -7.02417479e-04 -1.06138231e-03  2.91506617e-03
  3.38572682e-02  3.72852777e-03 -1.95562277e-03 -9.12863133e-03  3.20341829e-04
 -5.98310002e-02 -5.61227904e-04  5.85928509e-03  8.84603322e-03 -2.13532671e-03
 -6.92218465e-02 -4.67656974e-03  8.17304407e-03 -5.52989081e-03  5.84177599e-03
 -3.32212178e-02  1.01314304e-03 -5.20854187e-04 -5.86304190e-03  2.28821730e-04
 -8.11865061e-02 -8.46193727e-03 -1.30696096e-02 -9.22135676e-04  2.00897263e-03
 -9.54289998e-02 -1.22972402e-02 -8.51800111e-03  1.08182082e-02 -6.29974802e-03
  1.63721658e-02 -2.27252283e-01 -1.26744039e-01  5.44842019e-02  8.86636411e-03
  1.38343959e-02  2.83193146e-03  1.15878954e-03  2.84548787e-03  3.09750480e-03
 -2.58956527e-03 -2.25263667e-03 -5.49232170e-03  4.19856023e-05  8.89280579e-03
 -1.34745612e-01 -1.01071573e-01 -1.09572876e-01 -7.69103673e-02 -6.86043258e-03
 -4.77054792e-02 -1.28015613e-02 -6.55387496e-03  2.35241334e-03 -4.18121412e-03
 -2.61444820e-03 -1.45214431e-02  3.17186006e-04 -1.33416076e-02  1.98623897e-01
  1.29562495e-01  1.01539538e-02 -1.19936462e-01 -4.63803127e-03  1.85086037e-02
 -3.37553041e-02 -1.11223761e-04 -3.36848838e-03  1.82063739e-04  1.98752794e-03
 -6.82755658e-03 -1.21267243e-02 -1.00361959e-02  2.51580550e-01  1.39995259e-01
 -7.32978892e-02  5.94894171e-02  1.14130906e-02 -2.23197207e-02  1.00026365e-02
  2.54809413e-03 -5.33356651e-03 -2.64850704e-04  1.29853534e-03 -5.34900759e-03
 -1.09367984e-02 -1.97300360e-03 -8.76133560e-02 -7.74527252e-02 -1.08518586e-01
 -4.44269544e-02  2.58733310e-02 -4.99858821e-02 -3.04771267e-03  1.02235112e-02
 -1.53377952e-03 -1.40919807e-03  1.35898648e-03  5.93839910e-03 -5.03701084e-03
 -1.07657471e-01 -2.02636405e-02  4.83452189e-03  1.15310156e-02 -3.31511199e-03
 -9.62912589e-02 -9.79500961e-03  6.07661900e-03  1.26585776e-02 -3.47917293e-03
 -9.53651865e-02 -1.23588636e-02  9.13294354e-03 -6.71469747e-03  7.87958878e-03
  1.08675885e-01  9.69059897e-03  5.27506270e-03  1.39576479e-02 -8.31073290e-04
  8.96099242e-02  1.36680680e-02  1.22640563e-02 -3.06943504e-03 -2.15292002e-03
 -5.80305228e-02 -1.18084389e-02 -6.82079618e-03  3.51729694e-03 -3.58484314e-03
  1.05250246e-02 -1.89778490e-01 -1.22833296e-01 -2.33850580e-02 -3.05578752e-02
 -2.22030209e-04 -2.17231516e-02  4.55812653e-03 -8.52457500e-03 -1.58799062e-03
 -2.89393902e-04  4.88101450e-04  5.86901043e-04  2.31794795e-03 -2.74227070e-03
  8.55689205e-02  4.20113912e-02 -1.47657956e-01 -9.47334823e-02 -8.90307612e-03
 -4.95006259e-02 -4.05227873e-02 -1.09677770e-03 -9.50498618e-04 -4.68772589e-03
 -2.64563236e-03 -9.54141691e-03  1.44630942e-03 -5.94889592e-03  1.57976232e-01
  9.21906856e-02 -1.75078634e-02  1.19722979e-01 -1.39025055e-02  5.06590464e-03
  4.41558828e-02 -5.24471229e-03 -7.84309934e-04 -1.12547434e-03 -4.10266122e-03
 -2.19743918e-03  7.47038063e-03  3.19198638e-03 -2.07892827e-01 -1.26489301e-01
 -4.73892736e-02  1.43521508e-01  3.49941342e-03 -1.94377228e-02  3.47555123e-02
  6.55608098e-04  1.97893764e-03  2.16086034e-03 -2.91599855e-03 -8.74750365e-03
  9.50389644e-03  5.41432525e-04  5.38600034e-02  5.24524428e-02  2.35445177e-01
  1.39726882e-01 -6.28222285e-02  1.02822062e-01  4.27676863e-02 -2.60311697e-02
  1.28893517e-03  2.79213843e-03 -1.74235254e-03 -1.19090942e-02  3.84803818e-03
  1.88973371e-01  3.80536984e-02 -8.12030133e-03 -2.33088626e-02  3.15434078e-03
 -1.23614715e-01 -2.67074771e-02  5.07248125e-03  1.27246233e-02 -4.28759288e-03
 -9.34780759e-02 -6.33952819e-03  6.51900926e-03 -9.42330492e-03  5.92455345e-03
 -1.63596883e-01 -3.08629583e-02 -9.47326125e-03 -1.40907369e-02  1.30655328e-03
  9.36122497e-02  2.00890035e-02  1.05237326e-02  2.67083193e-03 -2.05509404e-03
  5.75370108e-02  1.13887826e-02  5.48151879e-04 -6.43773868e-03  2.36906308e-03
  6.76718269e-03 -1.38143773e-01 -8.39887437e-02 -1.40517498e-01  2.18819504e-02
 -4.28961318e-02 -5.58462747e-02  1.30383870e-02 -1.45008284e-02 -3.10849701e-03
  3.42319905e-03 -4.31204958e-05  1.08758361e-02  2.87722992e-03 -4.30760357e-03
  2.11363827e-01  1.21072405e-01 -1.04846053e-01  5.18443683e-02 -4.04050074e-02
 -4.42460276e-02  7.74961677e-03 -1.19996589e-02  4.19870518e-03 -2.62807856e-03
 -6.25801094e-04 -2.09800336e-03 -2.73731973e-04  1.90364710e-03 -7.78559553e-02
 -2.11317937e-02 -5.54952687e-03  1.84736901e-01 -2.02062905e-02  1.58271328e-03
  4.20944571e-02 -9.00666410e-03 -1.42156325e-03 -1.33564513e-03 -4.84458392e-03
 -3.67326354e-03  6.10694072e-03  2.63511183e-03 -1.29222869e-02 -1.58948212e-02
  1.57896031e-01 -1.76266265e-01 -3.47306633e-02  4.71742866e-02 -6.30838391e-02
 -1.01700842e-02 -2.31754798e-03 -2.52017685e-03  1.15641770e-03  1.01367823e-02
 -1.00606752e-02  1.25884661e-03  3.82812913e-02  5.97385467e-02 -1.98550482e-01
 -1.76318544e-01  4.78402676e-02 -7.69749520e-02 -7.13715993e-02  1.59936203e-02
  9.85873130e-04 -1.34749764e-03  1.06798703e-03  1.07710048e-02 -1.74093463e-03
 -1.88928566e-01 -4.77537718e-02  5.98098607e-03  1.27632527e-02 -5.63180147e-03
 -9.55952448e-02 -2.32672751e-02  2.83766954e-04  1.02411716e-02 -4.06210548e-03
 -1.67860495e-01 -3.62262250e-02  7.29742759e-03 -7.07836553e-03  1.01445995e-02
  3.09053338e-02  3.96385081e-03  3.61314372e-03  4.02479921e-04 -7.64950023e-04
 -4.21559508e-02 -9.69085862e-03 -5.30899928e-03  3.87728480e-03  4.47895955e-04
  1.86839802e-01  3.97013098e-02  9.35754689e-03 -1.30305307e-02  8.38962600e-03
 -7.72740834e-04  3.64475391e-02  4.20481305e-02  6.66705352e-02  1.43148944e-01
 -2.72089116e-02  1.21209591e-02  5.79021612e-02 -1.15767960e-02  2.16225184e-03
 -1.44132379e-03 -2.35896354e-03 -5.95838754e-04 -3.95974838e-03 -3.33406410e-04
 -3.07743507e-02 -1.63233571e-02 -9.17665819e-02  1.49030935e-01 -4.90153277e-02
 -5.41174041e-02  4.59223095e-02 -1.15621192e-02  8.95113884e-04 -1.76351693e-03
 -8.14024677e-04  6.96375549e-03  8.52860997e-03 -4.21160111e-03  3.14535251e-02