[Molden Format]
[Atoms] (AU)
C    1    6           1.7453925358         2.5173661486        -0.0318549746
C    2    6          -0.8678282003         2.2925137029        -0.0790986569
C    3    6          -2.1683956778        -0.0102926263         0.4264991365
C    4    6          -0.8320598611        -2.2195209650         0.0720704003
O    5    8           1.6260438588        -2.2799109238        -0.2557844024
H    6    1           2.1453873688        -0.2586581215        -0.6635420981
H    7    1           2.6196344356         4.1630049865        -0.8987427218
H    8    1           2.7725970885         1.8098072771         1.6353769322
H    9    1          -1.8281082535        -4.0162923316        -0.2262264969
H   10    1          -4.2272495892        -0.0815131914         0.4504819531
H   11    1          -2.0118552064         3.8470852782        -0.8531396619
[GTO]
  1 0
 s    8  1.00
     6665.0000000000         0.0006920000
     1000.0000000000         0.0053290000
      228.0000000000         0.0270770000
       64.7100000000         0.1017180000
       21.0600000000         0.2747400000
        7.4950000000         0.4485640000
        2.7970000000         0.2850740000
        0.5215000000         0.0152040000
 s    8  1.00
     6665.0000000000        -0.0001460000
     1000.0000000000        -0.0011540000
      228.0000000000        -0.0057250000
       64.7100000000        -0.0233120000
       21.0600000000        -0.0639550000
        7.4950000000        -0.1499810000
        2.7970000000        -0.1272620000
        0.5215000000         0.5445290000
 s    1  1.00
        0.1596000000         1.0000000000
 p    3  1.00
        9.4390000000         0.0381090000
        2.0020000000         0.2094800000
        0.5456000000         0.5085570000
 p    1  1.00
        0.1517000000         1.0000000000
 d    1  1.00
        0.5500000000         1.0000000000

  2 0
 s    8  1.00
     6665.0000000000         0.0006920000
     1000.0000000000         0.0053290000
      228.0000000000         0.0270770000
       64.7100000000         0.1017180000
       21.0600000000         0.2747400000
        7.4950000000         0.4485640000
        2.7970000000         0.2850740000
        0.5215000000         0.0152040000
 s    8  1.00
     6665.0000000000        -0.0001460000
     1000.0000000000        -0.0011540000
      228.0000000000        -0.0057250000
       64.7100000000        -0.0233120000
       21.0600000000        -0.0639550000
        7.4950000000        -0.1499810000
        2.7970000000        -0.1272620000
        0.5215000000         0.5445290000
 s    1  1.00
        0.1596000000         1.0000000000
 p    3  1.00
        9.4390000000         0.0381090000
        2.0020000000         0.2094800000
        0.5456000000         0.5085570000
 p    1  1.00
        0.1517000000         1.0000000000
 d    1  1.00
        0.5500000000         1.0000000000

  3 0
 s    8  1.00
     6665.0000000000         0.0006920000
     1000.0000000000         0.0053290000
      228.0000000000         0.0270770000
       64.7100000000         0.1017180000
       21.0600000000         0.2747400000
        7.4950000000         0.4485640000
        2.7970000000         0.2850740000
        0.5215000000         0.0152040000
 s    8  1.00
     6665.0000000000        -0.0001460000
     1000.0000000000        -0.0011540000
      228.0000000000        -0.0057250000
       64.7100000000        -0.0233120000
       21.0600000000        -0.0639550000
        7.4950000000        -0.1499810000
        2.7970000000        -0.1272620000
        0.5215000000         0.5445290000
 s    1  1.00
        0.1596000000         1.0000000000
 p    3  1.00
        9.4390000000         0.0381090000
        2.0020000000         0.2094800000
        0.5456000000         0.5085570000
 p    1  1.00
        0.1517000000         1.0000000000
 d    1  1.00
        0.5500000000         1.0000000000

  4 0
 s    8  1.00
     6665.0000000000         0.0006920000
     1000.0000000000         0.0053290000
      228.0000000000         0.0270770000
       64.7100000000         0.1017180000
       21.0600000000         0.2747400000
        7.4950000000         0.4485640000
        2.7970000000         0.2850740000
        0.5215000000         0.0152040000
 s    8  1.00
     6665.0000000000        -0.0001460000
     1000.0000000000        -0.0011540000
      228.0000000000        -0.0057250000
       64.7100000000        -0.0233120000
       21.0600000000        -0.0639550000
        7.4950000000        -0.1499810000
        2.7970000000        -0.1272620000
        0.5215000000         0.5445290000
 s    1  1.00
        0.1596000000         1.0000000000
 p    3  1.00
        9.4390000000         0.0381090000
        2.0020000000         0.2094800000
        0.5456000000         0.5085570000
 p    1  1.00
        0.1517000000         1.0000000000
 d    1  1.00
        0.5500000000         1.0000000000

  5 0
 s    8  1.00
    11720.0000000000         0.0007100000
     1759.0000000000         0.0054700000
      400.8000000000         0.0278370000
      113.7000000000         0.1048000000
       37.0300000000         0.2830620000
       13.2700000000         0.4487190000
        5.0250000000         0.2709520000
        1.0130000000         0.0154580000
 s    8  1.00
    11720.0000000000        -0.0001600000
     1759.0000000000        -0.0012630000
      400.8000000000        -0.0062670000
      113.7000000000        -0.0257160000
       37.0300000000        -0.0709240000
       13.2700000000        -0.1654110000
        5.0250000000        -0.1169550000
        1.0130000000         0.5573680000
 s    1  1.00
        0.3023000000         1.0000000000
 p    3  1.00
       17.7000000000         0.0430180000
        3.8540000000         0.2289130000
        1.0460000000         0.5087280000
 p    1  1.00
        0.2753000000         1.0000000000
 d    1  1.00
        1.1850000000         1.0000000000

  6 0
 s    3  1.00
       13.0100000000         0.0196850000
        1.9620000000         0.1379770000
        0.4446000000         0.4781480000
 s    1  1.00
        0.1220000000         1.0000000000
 p    1  1.00
        0.7270000000         1.0000000000

  7 0
 s    3  1.00
       13.0100000000         0.0196850000
        1.9620000000         0.1379770000
        0.4446000000         0.4781480000
 s    1  1.00
        0.1220000000         1.0000000000
 p    1  1.00
        0.7270000000         1.0000000000

  8 0
 s    3  1.00
       13.0100000000         0.0196850000
        1.9620000000         0.1379770000
        0.4446000000         0.4781480000
 s    1  1.00
        0.1220000000         1.0000000000
 p    1  1.00
        0.7270000000         1.0000000000

  9 0
 s    3  1.00
       13.0100000000         0.0196850000
        1.9620000000         0.1379770000
        0.4446000000         0.4781480000
 s    1  1.00
        0.1220000000         1.0000000000
 p    1  1.00
        0.7270000000         1.0000000000

  10 0
 s    3  1.00
       13.0100000000         0.0196850000
        1.9620000000         0.1379770000
        0.4446000000         0.4781480000
 s    1  1.00
        0.1220000000         1.0000000000
 p    1  1.00
        0.7270000000         1.0000000000

  11 0
 s    3  1.00
       13.0100000000         0.0196850000
        1.9620000000         0.1379770000
        0.4446000000         0.4781480000
 s    1  1.00
        0.1220000000         1.0000000000
 p    1  1.00
        0.7270000000         1.0000000000

[5D7F]
[9G]

[MO]
 Sym= A
 Ene=        -1.9161089453e+01
 Spin= Alpha
 Occup=         2.0000000000e+00
  1         5.0635061819e-05
  2         5.8161312488e-05
  3        -9.2596051667e-04
  4         6.7944349328e-05
  5         1.0426072501e-04
  6        -5.8195695966e-07
  7        -1.5752171388e-04
  8         5.1406745781e-04
  9         3.8380096016e-04
 10         8.4311363756e-05
 11         1.0014250294e-04
 12        -1.5284618714e-04
 13         1.9668596271e-04
 14        -2.2004301364e-05
 15        -1.1706956870e-04
 16        -2.1456367940e-04
 17         3.8364307914e-03
 18        -7.6513776371e-05
 19        -2.9660314158e-05
 20        -6.2188718869e-05
 21        -5.5103073658e-04
 22        -1.9001757898e-03
 23         6.1842894998e-04
 24        -2.2796400724e-05
 25         6.9687002239e-05
 26        -7.1941883849e-05
 27        -3.6034792718e-05
 28         9.2948351877e-06
 29         1.6019107234e-04
 30         2.2574076656e-04
 31        -4.6343179787e-03
 32        -9.6710962052e-05
 33         2.7887680897e-04
 34         4.5011719030e-05
 35        -4.3374460235e-03
 36        -2.2081890165e-03
 37         6.3913673039e-04
 38         1.1704073671e-04
 39         1.2835812194e-04
 40         7.6641529546e-05
 41        -4.1917809807e-04
 42         3.8532171232e-04
 43         2.7224104669e-04
 44         4.4473184056e-04
 45         6.4000203380e-03
 46         3.0884354426e-04
 47        -1.3694656442e-04
 48        -1.2985512589e-04
 49         5.1994660077e-03
 50         2.5052471270e-03
 51        -4.4719456623e-04
 52        -2.9328931834e-04
 53         3.8813550242e-05
 54         2.0414101158e-04
 55        -8.8171544222e-04
 56         3.0412073625e-04
 57         1.0041468306e+00
 58         9.4345710091e-03
 59        -1.5000125794e-02
 60        -1.3764362656e-03
 61         7.7201555420e-04
 62        -1.2725872203e-05
 63         3.2523094154e-03
 64        -1.4713284682e-03
 65        -2.1883968906e-04
 66         1.1087863216e-04
 67         1.5858303749e-05
 68         4.7323617744e-06
 69         8.6087550350e-06
 70         7.7371769082e-05
 71         1.0503816013e-03
 72         1.1683210227e-03
 73        -1.4276297969e-04
 74         1.9930413974e-04
 75         1.1812687874e-04
 76         1.2127730442e-04
 77         2.2963350015e-04
 78        -4.6775433647e-05
 79        -6.4962606684e-05
 80         3.9316672290e-06
 81        -1.0792856740e-04
 82        -2.3346970717e-04
 83         9.0710758301e-05
 84         1.3483239149e-05
 85         4.7918578942e-05
 86        -3.8206535706e-04
 87         9.9627355767e-04
 88        -6.7377142452e-04
 89        -1.7732743589e-04
 90         6.4053472918e-05
 91        -1.6272573524e-04
 92        -1.2238804034e-03
 93         1.9551778946e-04
 94         1.8098694384e-04
 95        -5.2403409259e-05
 96        -6.5252586160e-05
 97         3.0739665897e-04
 98         3.9599269184e-05
 99         5.2426886576e-05
100        -3.4179724277e-05
 Sym= A
 Ene=        -1.0261003679e+01
 Spin= Alpha
 Occup=         2.0000000000e+00
  1        -3.6731652257e-04
  2        -5.0065670941e-04
  3         1.3230466069e-03
  4         1.6584503539e-04
  5         1.0041612712e-04
  6         7.2699011476e-06
  7        -1.0473857261e-03
  8        -1.1105857445e-04
  9        -2.9064349626e-05
 10        -1.1726798319e-04
 11        -6.1735399318e-05
 12        -4.0152865157e-05
 13        -2.4911528656e-05
 14        -6.7655065361e-05
 15        -3.9569770121e-04
 16        -6.1374620085e-04
 17         4.2329103985e-03
 18        -9.9204382253e-05
 19        -2.0031786742e-06
 20         7.9733025139e-06
 21        -2.0729257318e-03
 22        -3.0126939448e-03
 23         6.6415365565e-04
 24        -2.9957917608e-04
 25        -1.5276041704e-04
 26        -8.6054552977e-05
 27        -3.4466652774e-06
 28         9.1345530548e-05
 29         3.4082206405e-03
 30        -7.1553555767e-04
 31        -4.0606823968e-04
 32        -5.4493459525e-04
 33         1.1435890519e-03
 34         1.7313028530e-04
 35        -2.0057697578e-03
 36        -4.8942526111e-03
 37         4.2530284766e-04
 38         1.0626366076e-03
 39         2.5736784236e-04
 40        -1.4193330082e-04
 41         4.0624518863e-04
 42         9.9074687244e-04
 43         1.0059382966e+00
 44         1.5331266983e-02
 45        -1.1073655187e-02
 46         6.7548253136e-04
 47        -2.8385034811e-04
 48        -3.6899690010e-04
 49         4.5819974395e-03
 50        -1.3125464619e-03
 51        -6.0731052392e-04
 52        -1.5843699700e-03
 53        -2.2918743711e-04
 54         5.1716060120e-04
 55         4.6412289057e-05
 56         3.0523890799e-04
 57         6.9595894473e-04
 58         1.2944329838e-03
 59        -5.1545952858e-03
 60         4.1653744856e-04
 61        -1.0676542497e-04
 62        -5.4550656433e-05
 63         3.2636725326e-03
 64        -1.5294064539e-04
 65        -3.5840553608e-04
 66         7.4062392119e-04
 67         2.9726107659e-04
 68         2.2707430276e-05
 69        -8.0397939238e-04
 70         9.4834175568e-06
 71         4.7850400878e-04
 72        -1.7152677588e-04
 73        -5.1990166647e-04
 74        -3.3044457787e-04
 75         6.6685690616e-05
 76        -1.0949436759e-05
 77         4.1669864577e-04
 78        -1.7097316911e-05
 79        -3.1415743748e-05
 80         2.1226834261e-05
 81        -9.7016931168e-05
 82         2.5341153967e-04
 83         6.2443024428e-05
 84         7.6516678346e-05
 85        -5.5867403263e-05
 86        -2.1661782247e-03
 87         2.4213712852e-03
 88        -1.3821365850e-03
 89        -1.7013566660e-03
 90        -2.6740745688e-04
 91        -1.5364492182e-04
 92        -4.0418340148e-04
 93         2.7612630689e-04
 94         2.7275456010e-04
 95        -2.4782965479e-05
 96        -1.1845606022e-04
 97         3.6237050789e-04
 98         1.4313522668e-04
 99         1.1626832474e-04
100        -4.9278797125e-05
 Sym= A
 Ene=        -1.0220654261e+01
 Spin= Alpha
 Occup=         2.0000000000e+00
  1         6.0076585330e-03
  2        -9.6035935786e-04
  3         5.2195290403e-03
  4         1.1570702166e-03
  5         4.4864298361e-05
  6         1.0118381427e-05
  7        -2.7778993678e-03
  8        -9.6607495372e-04
  9         2.0857421323e-04
 10         9.2082817408e-04
 11         4.4624133910e-05
 12         5.0924106707e-05
 13        -1.0922619323e-03
 14        -2.0342602547e-04
 15         1.0064573024e+00
 16         1.6290602015e-02
 17        -1.9760936407e-02
 18        -1.8328296928e-04
 19         6.8831189913e-05
 20        -4.3349880636e-04
 21        -2.6898768838e-03
 22         3.4767879755e-03
 23        -8.5802677429e-04
 24        -7.9502321942e-04
 25         4.7122763780e-04
 26        -7.5186039817e-04
 27         5.9391406246e-05
 28        -4.1669906996e-04
 29         5.2349451243e-03
 30        -6.2711482490e-04
 31         2.5271041535e-03
 32        -4.8499433249e-04
 33        -7.6623635930e-04
 34         1.6197569760e-04
 35         1.4282665319e-03
 36         2.5151597356e-03
 37         1.5202782863e-05
 38         8.2385080175e-04
 39         1.5592635833e-04
 40         4.7768732978e-04
 41         6.7932572631e-04
 42        -9.8588916313e-04
 43        -3.9098851049e-04
 44        -6.9114533491e-04
 45         2.4406290116e-03
 46         2.1257607439e-05
 47        -1.9702255467e-04
 48         6.6593303310e-05
 49        -6.1840654448e-04
 50         1.7799543308e-03
 51        -9.4663791011e-05
 52        -3.6610329901e-04
 53        -2.3286176073e-04
 54        -4.7026908538e-05
 55         1.3144159940e-04
 56         6.9750196637e-05
 57         5.4261969249e-05
 58         7.5179010354e-05
 59        -8.1555613252e-04
 60         1.3875689659e-04
 61        -1.3983752487e-05
 62         1.4033805795e-05
 63        -6.3978642545e-05
 64        -5.7892808105e-04
 65         6.0850044604e-05
 66         4.3901335728e-05
 67        -1.9529528499e-05
 68         2.4742780536e-05
 69         3.2503795151e-05
 70         2.2079198676e-05
 71         1.2511813374e-04
 72         6.5200329438e-04
 73        -3.8669157266e-04
 74        -1.9296863814e-04
 75        -2.8941172438e-05
 76        -5.5136501620e-05
 77         5.9193297612e-04
 78         1.6590777038e-04
 79        -1.5036084626e-04
 80         1.3519684566e-04
 81        -4.5664787570e-04
 82         6.4482177242e-04
 83         1.0957563301e-05
 84         5.9586941964e-05
 85        -1.1100179150e-04
 86        -1.0261786600e-04
 87         4.4205924571e-04
 88         8.7834664234e-05
 89        -1.2058995706e-04
 90        -2.4292077398e-05
 91        -2.0307298753e-06
 92         4.9340969222e-04
 93         7.1773569318e-05
 94        -3.0592398938e-04
 95         8.7381902978e-06
 96        -2.4147716570e-03
 97         1.1009575898e-03
 98        -1.1307143722e-03
 99         1.6432541493e-03
100        -8.9513942185e-04
 Sym= A
 Ene=        -1.0186200684e+01
 Spin= Alpha
 Occup=         2.0000000000e+00
  1         1.3558925488e-03
  2         5.4943068710e-04
  3        -1.7354547248e-03
  4        -8.2036371943e-05
  5        -1.5979811287e-04
  6         1.0478566505e-04
  7         1.5035237704e-03
  8         2.9879806221e-04
  9        -5.1592647509e-04
 10         2.8714726203e-04
 11        -1.4304135895e-04
 12         1.7602887061e-04
 13        -5.2439392858e-05
 14         2.3973568536e-04
 15         5.8012035621e-03
 16         8.4449549812e-04
 17        -4.0384899666e-03
 18        -3.6654584073e-04
 19        -8.0312812491e-04
 20         1.7897056530e-04
 21         1.8512749349e-03
 22         2.8949797594e-03
 23         3.1550233695e-06
 24        -8.2493308819e-04
 25        -4.1380040941e-04
 26        -5.1743473472e-04
 27        -6.0679619249e-04
 28         9.9119285009e-04
 29        -1.0066959888e+00
 30        -1.6840057785e-02
 31         2.1452455016e-02
 32         2.1542112046e-04
 33         1.0016284118e-04
 34         5.1989622821e-04
 35         4.8046713440e-03
 36         5.3734736127e-05
 37        -1.9482320085e-03
 38         1.1163041448e-03
 39         7.7393305059e-05
 40        -1.4200652442e-05
 41        -7.2088192784e-04
 42         1.1009450255e-05
 43         4.2802615866e-03
 44         1.2551604257e-03
 45        -6.4991497961e-03
 46        -6.1145767379e-04
 47         9.7270327828e-04
 48         1.9011513869e-04
 49         5.7730295964e-04
 50        -3.5352481711e-03
 51        -1.7724050369e-05
 52        -7.9891232935e-04
 53        -2.8354941994e-04
 54         3.9677488233e-04
 55        -6.4616387705e-04
 56        -1.0458356524e-03
 57        -3.3314942032e-05
 58        -4.6806251504e-05
 59         8.4682808812e-04
 60        -7.7904638792e-05
 61         9.8358462101e-06
 62         3.8334548839e-05
 63         1.1657962877e-04
 64         7.2307031502e-04
 65        -1.2661967411e-04
 66         6.8871740300e-05
 67         2.0210256781e-06
 68        -3.1917311433e-05
 69        -4.7625826735e-05
 70        -9.5671140019e-05
 71        -9.1726972497e-05
 72        -4.5412222174e-04
 73         1.4584666924e-04
 74         2.2600864413e-04
 75        -2.9331047702e-05
 76        -6.5011014441e-05
 77        -5.1861226168e-04
 78        -9.3337053482e-05
 79         8.7434562140e-05
 80         2.2444970772e-05
 81         3.7067575881e-04
 82        -2.0155773000e-04
 83        -2.8375258177e-05
 84        -1.1089075580e-04
 85        -2.7870961135e-05
 86         1.9904192139e-05
 87        -8.6222154793e-04
 88        -3.1017369849e-04
 89         4.0271951423e-05
 90        -5.0602502759e-05
 91         2.4826013730e-03
 92        -1.0868193883e-03
 93         2.2290508000e-03
 94         1.0483093082e-04
 95         1.7811839835e-04
 96         2.1091024549e-04
 97        -4.4914347541e-04
 98        -2.6661076074e-04
 99        -1.2967993823e-04
100        -1.0056929838e-04
 Sym= A
 Ene=        -1.0180796438e+01
 Spin= Alpha
 Occup=         2.0000000000e+00
  1         1.0068948398e+00
  2         1.7255949292e-02
  3        -1.8783472124e-02
  4         8.6036285973e-05
  5         2.9912828270e-04
  6         5.0872634437e-04
  7         2.6119606459e-03
  8         2.8325249675e-03
  9        -5.2169076359e-04
 10        -6.4657432333e-05
 11         3.8636247472e-04
 12        -1.2975842043e-03
 13         3.6494260481e-04
 14         6.8396326478e-04
 15        -6.8537239933e-03
 16        -9.4532827686e-04
 17         2.6141998768e-03
 18        -1.1313061347e-03
 19        -2.5478680806e-05
 20        -4.5747721946e-05
 21         3.2034827171e-03
 22         1.1194927385e-03
 23         9.3163885803e-05
 24         8.7795320922e-04
 25         5.9890523949e-05
 26         1.6645774255e-04
 27        -1.4052558430e-03
 28        -3.2501551580e-04
 29         6.6180329363e-04
 30        -5.8361551159e-04
 31         2.5960075918e-03
 32        -1.9615322382e-04
 33        -5.2416424713e-05
 34        -2.2114590309e-05
 35         1.5964013513e-03
 36         1.7401554176e-03
 37        -3.9169242051e-04
 38        -3.9368870239e-04
 39         4.9114791481e-05
 40        -1.4559037454e-04
 41        -2.9135145896e-04
 42        -1.2301677338e-04
 43        -8.2490715380e-05
 44        -3.6956596061e-04
 45        -1.4336788658e-03
 46        -1.4968905974e-04
 47        -1.9054489871e-04
 48        -6.5612027296e-05
 49        -1.2477699581e-03
 50        -6.2510857938e-05
 51         2.5963445481e-04
 52         2.0197148315e-05
 53         3.5271662648e-05
 54        -5.7198649471e-05
 55        -1.4862218324e-04
 56         1.4347635685e-04
 57        -3.6780936397e-05
 58        -7.8721550541e-05
 59         6.7403943686e-05
 60         1.3971010977e-04
 61        -9.0278311381e-05
 62        -7.0042047853e-05
 63        -1.3382693897e-03
 64        -3.1997642550e-04
 65         4.8277653433e-04
 66        -4.3407323859e-05
 67        -2.3252428243e-07
 68         9.7825786824e-05
 69         9.5061072482e-05
 70        -6.5532291512e-05
 71         9.8683134912e-04
 72         3.7532560108e-03
 73         2.9463850858e-05
 74        -2.0474746142e-04
 75        -3.9080391953e-05
 76        -2.3275261266e-03
 77         1.1164093901e-03
 78         8.6118563944e-04
 79         1.8023502104e-03
 80        -9.9479671839e-04
 81        -1.2397094302e-03
 82         2.1298147979e-03
 83         7.6597303185e-04
 84        -8.0864833270e-04
 85         1.7878178188e-03
 86        -3.3225982323e-05
 87         1.0592994946e-04
 88         4.1927459296e-05
 89        -2.2537068474e-06
 90        -3.8024713591e-05
 91         7.1112135525e-05
 92         5.5704753080e-04
 93        -7.7581908522e-06
 94        -1.1629750034e-04
 95         4.8770079776e-05
 96        -7.7409134994e-05
 97         4.1139914882e-04
 98        -1.8230614097e-04
 99        -2.5419861671e-04
100         3.7466279271e-05
 Sym= A
 Ene=        -1.0521520252e+00
 Spin= Alpha
 Occup=         2.0000000000e+00
  1         4.5286874799e-05
  2         2.3205266361e-02
  3        -5.0244301472e-03
  4        -5.1243317274e-03
  5        -1.3523643610e-02
  6        -1.6556630381e-04
  7         5.8045967788e-03
  8         7.8571948511e-03
  9        -6.4286325143e-03
 10        -7.8201587221e-04
 11        -7.2786358159e-04
 12         1.2519259124e-03
 13        -7.4507077263e-04
 14        -3.7159684873e-05
 15        -1.1117316652e-03
 16         2.3622962510e-02
 17         1.0483179043e-02
 18         5.3210412792e-03
 19        -1.4056494193e-02
 20         8.8480374250e-04
 21         7.3590691959e-03
 22         6.5517892568e-04
 23         1.2827886315e-03
 24        -1.9205124915e-03
 25        -2.8480083510e-04
 26        -7.5903350725e-04
 27        -8.3874511418e-04
 28        -6.1686454406e-04
 29        -3.2417687049e-03
 30         4.3330093983e-02
 31         2.2471778295e-02
 32         2.8013075570e-02
 33        -1.8396098319e-02
 34        -6.9279908706e-03
 35         1.5399963034e-02
 36         4.3487144049e-03
 37        -3.4117817144e-03
 38        -3.2895218273e-03
 39        -2.2590985212e-03
 40         8.7602508211e-04
 41         2.1409440047e-03
 42        -8.0489959160e-03
 43        -1.3338563610e-02
 44         1.8210495795e-01
 45         7.7888248471e-02
 46         1.4404425750e-01
 47         1.3194360581e-02
 48        -2.0553545504e-02
 49         9.2981864328e-03
 50         6.1128327601e-03
 51        -2.5712865898e-04
 52        -1.2950476413e-02
 53        -8.1702820308e-03
 54        -2.0790386775e-03
 55         2.9118352522e-02
 56         1.0277092534e-03
 57        -7.0154504334e-03
 58         4.1262826222e-01
 59         3.8467351330e-01
 60        -1.1305874281e-01
 61         5.2775117854e-02
 62         6.2989713451e-03
 63        -3.3303048048e-02
 64         7.6436397733e-03
 65         2.9144049990e-03
 66        -6.5693153913e-03
 67        -2.4275676961e-03
 68        -1.5358473234e-03
 69         6.8601515146e-03
 70        -1.4200126320e-03
 71         1.0987694511e-01
 72         5.1528138725e-03
 73        -1.0293112726e-02
 74        -1.8671408355e-02
 75         6.0864571355e-03
 76         2.2597122543e-03
 77        -6.4784785945e-03
 78        -3.5367314982e-04
 79        -7.9543222287e-04
 80         2.6054367768e-04
 81         1.2237678813e-02
 82         6.4992354813e-03
 83        -1.6524081362e-03
 84        -1.2682862459e-03
 85        -1.5636712230e-03
 86         3.5899293324e-02
 87        -4.4065112211e-05
 88         8.3017937751e-03
 89         5.8958313633e-03
 90         1.6008495694e-04
 91         6.5924466380e-03
 92         5.0243097453e-03
 93         9.3596712561e-04
 94        -1.7784659409e-03
 95        -1.4883075292e-04
 96         2.7989140352e-03
 97         3.3568236337e-05
 98        -1.7910713583e-04
 99        -5.4488606204e-04
100        -5.1793718217e-05
 Sym= A
 Ene=        -8.1070907078e-01
 Spin= Alpha
 Occup=         2.0000000000e+00
  1         1.3168461508e-02
  2        -1.8511696440e-01
  3        -9.4446859492e-02
  4         8.5440738426e-02
  5         1.7400297173e-02
  6        -4.2594633974e-03
  7         5.9425894301e-03
  8        -2.1467910343e-03
  9         6.6320697442e-03
 10         6.8667724815e-03
 11         7.2503270516e-04
 12        -1.7797805965e-03
 13        -9.2762120933e-03
 14        -3.5468833316e-03
 15         1.9182625990e-02
 16        -2.8560217285e-01
 17        -1.9235236983e-01
 18        -2.9472605608e-02
 19         6.1029011583e-02
 20        -7.8283216546e-03
 21        -2.4822698405e-02
 22         2.5834251915e-02
 23        -9.4713940120e-03
 24         1.0804749269e-02
 25         2.0472629457e-03
 26         2.1001777736e-03
 27        -2.1228280036e-03
 28        -7.6321232075e-03
 29         1.7940848697e-02
 30        -2.4001524807e-01
 31        -1.3367892283e-01
 32        -6.2930511562e-02
 33        -3.2817639292e-02
 34         2.7617649657e-02
 35        -1.1412041740e-02
 36        -1.6219902887e-02
 37         8.3458854592e-03
 38         7.5272160990e-03
 39         3.4641514682e-03
 40         2.8706533659e-03
 41         7.9159708209e-03
 42        -7.1789369907e-03
 43         3.6143467183e-03
 44        -8.4950117640e-02
 45        -5.2369126573e-02
 46         8.6140102892e-02
 47        -8.6857037302e-02
 48        -1.3565596774e-02
 49         2.5905956923e-02
 50        -1.8263304380e-02
 51        -5.8633966100e-03
 52         2.5461184826e-03
 53        -1.4499083073e-03
 54        -1.5548107185e-03
 55         1.5337529218e-02
 56         4.4997173846e-03
 57         4.7439698155e-04
 58         1.1229336011e-01
 59         1.1502128033e-01
 60        -3.8978412247e-03
 61        -1.8582655732e-02
 62        -1.8861021578e-03
 63         5.4343806894e-03
 64        -9.3281825096e-03
 65        -1.1460054799e-03
 66         5.0450508482e-04
 67         3.5616745709e-05
 68        -4.4830235871e-04
 69         7.8812345796e-04
 70         2.1630253576e-03
 71        -1.6377405193e-02
 72         5.1518670790e-03
 73         2.2823932008e-03
 74        -1.0965070274e-02
 75        -1.8759021266e-03
 76        -5.5894574562e-02
 77         6.9469926807e-05
 78         6.0178284048e-03
 79         6.8881066315e-03
 80        -3.7987068292e-03
 81        -6.6753555304e-02
 82        -2.2119185761e-03
 83         6.4188512853e-03
 84        -2.6749747052e-03
 85         7.9838752671e-03
 86        -1.9322462954e-02
 87         1.1788810793e-04
 88         1.0956614337e-03
 89        -3.6971189635e-03
 90        -3.3109356290e-04
 91        -7.6578868464e-02
 92        -4.6615260611e-03
 93        -1.2906092771e-02
 94        -1.7673278283e-03
 95         7.2982147689e-04
 96        -9.4319221449e-02
 97        -1.2720715688e-02
 98        -7.6329641157e-03
 99         1.1605027004e-02
100        -4.9343354516e-03
 Sym= A
 Ene=        -7.2998923434e-01
 Spin= Alpha
 Occup=         2.0000000000e+00
  1         1.4342533163e-02
  2        -2.3815976491e-01
  3        -1.1991178206e-01
  4         4.2710721337e-02
  5         6.2331835199e-03
  6        -4.8917410725e-03
  7        -4.4942092260e-03
  8         8.1760758845e-04
  9         5.4206771698e-03
 10         4.3114974813e-03
 11         1.7298770769e-04
 12        -2.5079826733e-03
 13        -2.5557061259e-03
 14         2.7086907136e-03
 15         6.8457942508e-03
 16        -1.0243538436e-01
 17        -9.3912057607e-02
 18        -1.2462946003e-01
 19        -7.1476865306e-02
 20         1.0477754718e-02
 21        -6.0526211740e-02
 22        -9.6066559177e-03
 23        -3.1134445280e-03
 24         2.5053427811e-03
 25        -8.1990216214e-04
 26        -1.5827209973e-03
 27        -1.6763991714e-02
 28         5.6303053789e-03
 29        -1.3764633518e-02
 30         2.1282127714e-01
 31         1.3756191486e-01
 32         1.2163441298e-02
 33        -1.0181341264e-01
 34        -1.6934978264e-02
 35         2.0009499362e-02
 36        -3.0362299016e-02
 37        -1.5675118062e-03
 38        -3.2538347190e-03
 39        -5.7427080138e-04
 40         3.5760700651e-03
 41        -7.3338397783e-03
 42        -1.1483154666e-02
 43        -8.2910756641e-03
 44         2.3708324453e-01
 45         1.3466368757e-01
 46        -9.0570072599e-02
 47         5.3492075164e-02
 48         1.2346364461e-02
 49        -2.8366645888e-02
 50         1.2499337358e-02
 51         2.2658761125e-03