[Molden Format]
[Atoms] (AU)
C    1    6           2.0222359341         2.7114994125        -0.2157215625
C    2    6          -0.7885717500         2.3848821347        -0.1078150449
C    3    6          -2.0872869557         0.1897620188         0.0120633412
C    4    6          -0.9229335452        -2.3418895394         0.0706912628
O    5    8           1.3374827688        -2.7629683681         0.2207364809
H    6    1           2.9464965978         1.1816744433        -1.2713144882
H    7    1           2.5272269363         4.5675217622        -1.0086494165
H    8    1           2.8145810153         2.6189402300         1.7143029537
H    9    1          -2.3016573740        -3.9499077474        -0.0294565118
H   10    1          -4.1559829765         0.2440251077         0.0621243028
H   11    1          -1.9043346138         4.1313309450        -0.1033049112
[GTO]
  1 0
 s    8  1.00
     6665.0000000000         0.0006920000
     1000.0000000000         0.0053290000
      228.0000000000         0.0270770000
       64.7100000000         0.1017180000
       21.0600000000         0.2747400000
        7.4950000000         0.4485640000
        2.7970000000         0.2850740000
        0.5215000000         0.0152040000
 s    8  1.00
     6665.0000000000        -0.0001460000
     1000.0000000000        -0.0011540000
      228.0000000000        -0.0057250000
       64.7100000000        -0.0233120000
       21.0600000000        -0.0639550000
        7.4950000000        -0.1499810000
        2.7970000000        -0.1272620000
        0.5215000000         0.5445290000
 s    1  1.00
        0.1596000000         1.0000000000
 p    3  1.00
        9.4390000000         0.0381090000
        2.0020000000         0.2094800000
        0.5456000000         0.5085570000
 p    1  1.00
        0.1517000000         1.0000000000
 d    1  1.00
        0.5500000000         1.0000000000

  2 0
 s    8  1.00
     6665.0000000000         0.0006920000
     1000.0000000000         0.0053290000
      228.0000000000         0.0270770000
       64.7100000000         0.1017180000
       21.0600000000         0.2747400000
        7.4950000000         0.4485640000
        2.7970000000         0.2850740000
        0.5215000000         0.0152040000
 s    8  1.00
     6665.0000000000        -0.0001460000
     1000.0000000000        -0.0011540000
      228.0000000000        -0.0057250000
       64.7100000000        -0.0233120000
       21.0600000000        -0.0639550000
        7.4950000000        -0.1499810000
        2.7970000000        -0.1272620000
        0.5215000000         0.5445290000
 s    1  1.00
        0.1596000000         1.0000000000
 p    3  1.00
        9.4390000000         0.0381090000
        2.0020000000         0.2094800000
        0.5456000000         0.5085570000
 p    1  1.00
        0.1517000000         1.0000000000
 d    1  1.00
        0.5500000000         1.0000000000

  3 0
 s    8  1.00
     6665.0000000000         0.0006920000
     1000.0000000000         0.0053290000
      228.0000000000         0.0270770000
       64.7100000000         0.1017180000
       21.0600000000         0.2747400000
        7.4950000000         0.4485640000
        2.7970000000         0.2850740000
        0.5215000000         0.0152040000
 s    8  1.00
     6665.0000000000        -0.0001460000
     1000.0000000000        -0.0011540000
      228.0000000000        -0.0057250000
       64.7100000000        -0.0233120000
       21.0600000000        -0.0639550000
        7.4950000000        -0.1499810000
        2.7970000000        -0.1272620000
        0.5215000000         0.5445290000
 s    1  1.00
        0.1596000000         1.0000000000
 p    3  1.00
        9.4390000000         0.0381090000
        2.0020000000         0.2094800000
        0.5456000000         0.5085570000
 p    1  1.00
        0.1517000000         1.0000000000
 d    1  1.00
        0.5500000000         1.0000000000

  4 0
 s    8  1.00
     6665.0000000000         0.0006920000
     1000.0000000000         0.0053290000
      228.0000000000         0.0270770000
       64.7100000000         0.1017180000
       21.0600000000         0.2747400000
        7.4950000000         0.4485640000
        2.7970000000         0.2850740000
        0.5215000000         0.0152040000
 s    8  1.00
     6665.0000000000        -0.0001460000
     1000.0000000000        -0.0011540000
      228.0000000000        -0.0057250000
       64.7100000000        -0.0233120000
       21.0600000000        -0.0639550000
        7.4950000000        -0.1499810000
        2.7970000000        -0.1272620000
        0.5215000000         0.5445290000
 s    1  1.00
        0.1596000000         1.0000000000
 p    3  1.00
        9.4390000000         0.0381090000
        2.0020000000         0.2094800000
        0.5456000000         0.5085570000
 p    1  1.00
        0.1517000000         1.0000000000
 d    1  1.00
        0.5500000000         1.0000000000

  5 0
 s    8  1.00
    11720.0000000000         0.0007100000
     1759.0000000000         0.0054700000
      400.8000000000         0.0278370000
      113.7000000000         0.1048000000
       37.0300000000         0.2830620000
       13.2700000000         0.4487190000
        5.0250000000         0.2709520000
        1.0130000000         0.0154580000
 s    8  1.00
    11720.0000000000        -0.0001600000
     1759.0000000000        -0.0012630000
      400.8000000000        -0.0062670000
      113.7000000000        -0.0257160000
       37.0300000000        -0.0709240000
       13.2700000000        -0.1654110000
        5.0250000000        -0.1169550000
        1.0130000000         0.5573680000
 s    1  1.00
        0.3023000000         1.0000000000
 p    3  1.00
       17.7000000000         0.0430180000
        3.8540000000         0.2289130000
        1.0460000000         0.5087280000
 p    1  1.00
        0.2753000000         1.0000000000
 d    1  1.00
        1.1850000000         1.0000000000

  6 0
 s    3  1.00
       13.0100000000         0.0196850000
        1.9620000000         0.1379770000
        0.4446000000         0.4781480000
 s    1  1.00
        0.1220000000         1.0000000000
 p    1  1.00
        0.7270000000         1.0000000000

  7 0
 s    3  1.00
       13.0100000000         0.0196850000
        1.9620000000         0.1379770000
        0.4446000000         0.4781480000
 s    1  1.00
        0.1220000000         1.0000000000
 p    1  1.00
        0.7270000000         1.0000000000

  8 0
 s    3  1.00
       13.0100000000         0.0196850000
        1.9620000000         0.1379770000
        0.4446000000         0.4781480000
 s    1  1.00
        0.1220000000         1.0000000000
 p    1  1.00
        0.7270000000         1.0000000000

  9 0
 s    3  1.00
       13.0100000000         0.0196850000
        1.9620000000         0.1379770000
        0.4446000000         0.4781480000
 s    1  1.00
        0.1220000000         1.0000000000
 p    1  1.00
        0.7270000000         1.0000000000

  10 0
 s    3  1.00
       13.0100000000         0.0196850000
        1.9620000000         0.1379770000
        0.4446000000         0.4781480000
 s    1  1.00
        0.1220000000         1.0000000000
 p    1  1.00
        0.7270000000         1.0000000000

  11 0
 s    3  1.00
       13.0100000000         0.0196850000
        1.9620000000         0.1379770000
        0.4446000000         0.4781480000
 s    1  1.00
        0.1220000000         1.0000000000
 p    1  1.00
        0.7270000000         1.0000000000

[5D7F]
[9G]

[MO]
 Sym= A
 Ene=        -1.9134749588e+01
 Spin= Alpha
 Occup=         2.0000000000e+00
  1        -4.3968364097e-05
  2        -9.9082502507e-05
  3        -2.9220163847e-05
  4         6.5132123832e-05
  5         2.3036627845e-05
  6         1.4938964581e-05
  7        -5.7661183220e-07
  8         8.0562243403e-05
  9         1.8683905625e-04
 10         5.1470274558e-05
 11         2.6913236554e-05
 12         5.9411997689e-05
 13         5.8406280230e-05
 14        -1.0515660600e-04
 15        -2.2958311879e-04
 16        -4.0767761840e-04
 17         5.8861129787e-03
 18        -1.9292729989e-05
 19        -1.0320863715e-05
 20        -2.1597634607e-05
 21        -1.1084388248e-03
 22        -2.6021140486e-03
 23         1.9179288586e-04
 24        -4.3690110921e-05
 25        -9.3451325621e-06
 26         4.7848149876e-07
 27        -4.3690038742e-05
 28        -3.7902111211e-05
 29         2.2480825727e-04
 30         3.4549188374e-04
 31        -4.6168060183e-03
 32         1.9167201865e-05
 33         2.9262077094e-04
 34        -1.7127734573e-05
 35        -4.8219454720e-03
 36        -3.6208094465e-03
 37         4.7547605073e-05
 38         1.4522433821e-04
 39        -5.3219440775e-06
 40         5.7163137032e-05
 41        -3.2260670095e-04
 42         5.1278934764e-04
 43         4.4119992639e-04
 44         5.7534256560e-04
 45         5.4988226338e-03
 46        -1.1130361265e-04
 47        -1.7103036960e-04
 48        -7.0825629969e-06
 49         6.6996042466e-03
 50         6.5879129582e-04
 51         3.6257840658e-04
 52        -4.2600800941e-05
 53        -5.4607448077e-05
 54         2.7453155050e-05
 55        -1.1497943713e-03
 56         5.2755233094e-04
 57         1.0041717609e+00
 58         9.4738505807e-03
 59        -1.5169694557e-02
 60        -1.8295234236e-03
 61         3.6326064209e-04
 62        -1.3794530654e-04
 63         3.5011414654e-03
 64        -8.6782493822e-04
 65         2.5474375222e-04
 66        -2.1024561680e-05
 67         8.4210021985e-06
 68        -2.1278314657e-08
 69         6.6195479980e-05
 70         8.1296902822e-06
 71        -8.1712747997e-05
 72        -2.6652411260e-05
 73         5.5255564145e-05
 74         4.0472654081e-05
 75        -5.8432968534e-06
 76         1.0597065223e-04
 77         2.7881726640e-04
 78        -6.5978915271e-05
 79        -7.9892584693e-05
 80         2.7584692244e-05
 81        -5.5307466903e-05
 82        -2.3639845566e-04
 83         5.6053134879e-05
 84         3.6111217870e-05
 85         4.3135403885e-05
 86        -1.2262994043e-04
 87         9.7216623535e-04
 88        -7.6220386433e-04
 89         1.2182799472e-04
 90        -4.2500384262e-05
 91        -2.6941498487e-04
 92        -1.3631569763e-03
 93         1.8905687069e-04
 94         2.6117086137e-04
 95         1.1030097376e-05
 96        -1.7337188690e-04
 97         2.9802591544e-04
 98         5.7980175983e-05
 99         8.9258400602e-05
100        -1.1953099946e-05
 Sym= A
 Ene=        -1.0272851087e+01
 Spin= Alpha
 Occup=         2.0000000000e+00
  1        -3.3069197081e-04
  2        -4.2546396800e-04
  3         8.3335293752e-04
  4         2.9698020121e-04
  5         5.5545334791e-05
  6        -1.0304027599e-05
  7        -5.7904658108e-04
  8         2.9199486348e-04
  9         1.1416794267e-04
 10         1.7978338917e-05
 11        -1.2448700252e-05
 12         3.3957198168e-05
 13        -1.2638062930e-04
 14        -7.9106327762e-05
 15        -4.2655613193e-04
 16        -6.3063493836e-04
 17         7.0192234210e-03
 18        -2.6825560038e-04
 19        -2.7314280831e-05
 20         1.2131566229e-05
 21        -2.3954771071e-03
 22        -4.1293379112e-03
 23         2.3266588610e-04
 24        -4.4355689343e-04
 25        -7.4667653650e-05
 26        -4.7152491150e-05
 27         3.3776169516e-04
 28         3.8943058744e-04
 29         1.6311863954e-03
 30        -2.3493341071e-04
 31        -2.4451957437e-03
 32        -3.3932405563e-04
 33         7.4768617030e-04
 34        -1.2694433400e-05
 35        -2.8139278457e-03
 36        -6.2935534745e-03
 37         2.2541835405e-04
 38         1.0577226147e-03
 39        -4.6935443425e-05
 40         6.4418976822e-05
 41         1.1769271015e-03
 42         8.0121049136e-04
 43         1.0059247130e+00
 44         1.5247823134e-02
 45        -1.0827911771e-02
 46         7.2250563214e-04
 47        -4.8841823833e-04
 48         5.3698830893e-05
 49         5.4649438069e-03
 50        -2.1095135457e-03
 51         2.5233550704e-04
 52        -1.6412955045e-03
 53         2.6474873366e-04
 54         9.5824867094e-06
 55         8.1906424258e-04
 56         3.1463413807e-05
 57         3.6666632924e-04
 58         9.1368174115e-04
 59        -5.9549225575e-03
 60         7.3538505086e-04
 61        -2.2251025777e-04
 62         3.9420564673e-05
 63         3.3811635913e-03
 64        -2.3952142250e-04
 65         2.5844155795e-04
 66         5.5850789797e-04
 67        -1.0997598263e-04
 68         1.6343996380e-05
 69        -7.0524575244e-04
 70         2.7136240857e-04
 71        -7.4881134324e-05
 72         7.1611278193e-05
 73         7.8264308561e-05
 74         3.1605072464e-05
 75        -1.5259880708e-05
 76        -4.2124525197e-05
 77         2.6461437155e-04
 78        -5.9081604298e-05
 79        -4.6183461625e-05
 80        -2.7692995713e-06
 81        -4.9135064577e-05
 82        -6.1673469666e-05
 83         8.3139568974e-05
 84         2.0567267702e-05
 85        -2.3926464721e-05
 86        -1.6437483087e-03
 87         2.4965198130e-03
 88        -1.4623883775e-03
 89        -1.4439030613e-03
 90        -9.5501918299e-05
 91        -4.8194574383e-04
 92        -4.6505361135e-04
 93         6.7727550758e-05
 94         3.2776879359e-04
 95        -1.6813633484e-05
 96        -3.3011686049e-05
 97         6.5632026775e-04
 98         2.4023739539e-04
 99         1.0822419121e-04
100        -1.1719100476e-05
 Sym= A
 Ene=        -1.0222768311e+01
 Spin= Alpha
 Occup=         2.0000000000e+00
  1         3.3236956237e-03
  2        -4.5800188285e-04
  3         4.3606340056e-03
  4         7.4679863109e-04
  5         9.5379568928e-05
  6         5.7862068064e-05
  7        -2.3103869599e-03
  8        -1.1053586473e-03
  9        -4.9286739741e-04
 10         7.9539368947e-04
 11         1.2513107783e-04
 12        -6.6892551945e-06
 13        -1.0410488472e-03
 14        -3.3378848172e-06
 15         1.0062836815e+00
 16         1.6065061657e-02
 17        -1.9764952128e-02
 18        -5.4888173063e-04
 19         2.4246382447e-04
 20         3.7379850990e-05
 21        -2.1571307600e-03
 22         3.5630306410e-03
 23         5.5595230724e-05
 24        -1.0922576219e-03
 25        -3.2031530749e-06
 26        -3.8410137993e-05
 27        -5.1873464227e-04
 28        -2.2422393565e-04
 29         1.2975085817e-02
 30        -1.2979178816e-03
 31         4.6468129883e-03
 32        -7.8051615609e-04
 33        -1.1032653202e-03
 34         7.7365902995e-05
 35         2.6624133611e-03
 36         2.3141863638e-03
 37        -2.2210782520e-04
 38         8.9062802489e-04
 39         7.2773900466e-05
 40         1.1433775181e-04
 41         5.7524515803e-04
 42        -9.7722240366e-04
 43        -2.6061423144e-04
 44        -5.0944552021e-04
 45         1.0331957615e-03
 46        -4.1264429151e-05
 47        -2.0665522006e-04
 48         1.1286106023e-05
 49        -1.7100318085e-04
 50         1.0373542151e-03
 51         1.8991969359e-05
 52        -3.4261305487e-04
 53        -7.7431421433e-06
 54        -9.2320491501e-06
 55         1.9368022517e-04
 56        -1.0204740241e-04
 57        -3.2890417905e-05
 58        -7.2543276548e-05
 59        -2.5092660655e-04
 60         1.2501121165e-04
 61        -2.6560634369e-06
 62         1.7574654431e-05
 63        -4.3159215466e-05
 64        -2.5772777506e-04
 65        -5.9213730152e-07
 66         1.1301967911e-05
 67        -1.4386844779e-05
 68         4.1949253222e-06
 69        -1.2148056229e-05
 70         1.3708405453e-05
 71        -4.3145547556e-04
 72         1.2732810917e-04
 73        -2.5887601082e-05
 74         3.6453193253e-05
 75         7.7592183497e-05
 76        -3.5277227742e-04
 77         2.9336725263e-04
 78         7.3568305585e-05
 79         8.3061637326e-05
 80         6.4610247416e-05
 81        -4.7587919158e-04
 82         1.2003262224e-03
 83        -1.2867434373e-04
 84         1.7582094676e-05
 85         1.7853228003e-05
 86        -2.0509380784e-05
 87         4.1716340411e-04
 88         5.4516509332e-05
 89        -5.2574085338e-05
 90        -7.3647106586e-06
 91         9.4579815430e-05
 92         9.2119903055e-04
 93         1.2100113608e-04
 94        -2.3052249474e-04
 95         1.5201188876e-05
 96        -2.3388232492e-03
 97         1.2122904361e-03
 98        -1.2083816037e-03
 99         1.7763564149e-03
100         1.1968348039e-05
 Sym= A
 Ene=        -1.0197470249e+01
 Spin= Alpha
 Occup=         2.0000000000e+00
  1         1.6506499539e-03
  2         3.9530227605e-04
  3         8.5974410077e-06
  4        -8.3592553901e-05
  5        -1.1195844789e-04
  6         7.9440441888e-05
  7         7.0900267319e-04
  8        -1.9143618046e-04
  9        -1.2298275570e-04
 10         3.1418299370e-04
 11         7.5975852528e-05
 12        -2.3528661088e-05
 13        -8.5868787261e-05
 14         2.2133660432e-04
 15         1.4500712250e-02
 16         1.7986784653e-03
 17        -6.8185955787e-03
 18        -6.0753465279e-04
 19        -1.2096610754e-03
 20         6.6280466416e-05
 21         5.8000066860e-04
 22         4.1955340768e-03
 23        -1.3612658607e-04
 24        -9.3125902631e-04
 25        -4.5766068092e-05
 26        -9.7062472213e-05
 27        -5.1005986564e-04
 28         1.0321366076e-03
 29        -1.0064821272e+00
 30        -1.6543902354e-02
 31         2.1570223678e-02
 32         3.2441521218e-04
 33        -3.0390000070e-04
 34         3.2311908287e-05
 35         5.5816309819e-03
 36         3.5469597564e-04
 37        -1.7691119759e-04
 38         1.0854665156e-03
 39         7.9764205021e-05
 40         6.7971018831e-05
 41        -3.7470589983e-04
 42        -3.8311962978e-04
 43         1.9523866120e-03
 44         8.1209839544e-04
 45        -5.7932295117e-03
 46        -2.5389907632e-04
 47         7.4846208103e-04
 48        -1.6989704442e-07
 49        -6.8574775819e-04
 50        -3.5104702314e-03
 51         4.8078952079e-05
 52        -6.9121911369e-04
 53        -3.1945654761e-05
 54        -6.4561702010e-05
 55        -6.4045952620e-04
 56        -1.1881843699e-03
 57        -4.5100301190e-05
 58        -7.8168907633e-05
 59         9.3169354767e-04
 60        -2.7463858237e-05
 61         7.5000031445e-05
 62         2.2094261513e-05
 63         9.5433857769e-05
 64         5.9738686074e-04
 65        -4.7312754951e-05
 66         1.3206606426e-04
 67        -3.3178703865e-05
 68        -1.6488230388e-05
 69        -7.3273047391e-05
 70        -2.1769440675e-04
 71         1.6535058828e-04
 72        -3.9066341334e-04
 73        -2.5728245842e-05
 74        -4.0981448269e-05
 75         5.6985295024e-05
 76        -4.9685990552e-05
 77        -2.0591617684e-04
 78        -3.5160944766e-05
 79         6.9338952622e-05
 80         1.3930018097e-05
 81        -5.1547920250e-05
 82        -1.2591117931e-04
 83        -4.9986933709e-05
 84        -6.0782530820e-05
 85         1.3920034313e-04
 86         2.4632526491e-04
 87        -1.0051011179e-03
 88        -7.3894134772e-05
 89         2.0492282871e-04
 90        -2.2793560881e-05
 91         2.4437491548e-03
 92        -7.7469336004e-04
 93         2.1369370486e-03
 94        -1.7147353620e-04
 95        -4.4419038895e-05
 96        -9.6666093760e-05
 97        -1.0154747915e-03
 98        -2.6038835569e-04
 99         2.7239809048e-05
100         1.2747337757e-05
 Sym= A
 Ene=        -1.0192404679e+01
 Spin= Alpha
 Occup=         2.0000000000e+00
  1         1.0069820805e+00
  2         1.7418549041e-02
  3        -1.9450476482e-02
  4         4.5212725167e-04
  5         1.3067149852e-04
  6         1.4351311833e-04
  7         2.9395566111e-03
  8         1.9384729775e-04
  9        -5.5284357612e-04
 10         2.2119304999e-04
 11         3.4257603559e-05
 12        -5.5479050081e-05
 13        -5.8863429451e-04
 14        -1.4559167729e-04
 15        -3.5719167436e-03
 16        -3.0409131361e-04
 17         1.8447792660e-03
 18        -4.9580989177e-04
 19         5.8539788027e-05
 20         2.4399556228e-05
 21         4.5135877459e-03
 22         2.3412887735e-03
 23        -1.6517538942e-04
 24         6.1347051387e-04
 25         1.2621779403e-04
 26         2.2266287383e-05
 27        -1.3395092916e-03
 28        -5.7611717496e-04
 29         1.0856275367e-03
 30        -5.3426474373e-04
 31         3.4651259407e-03
 32        -1.9237810966e-04
 33         9.0607426974e-05
 34         1.0968413169e-05
 35         9.1219324140e-04
 36         2.6606449793e-03
 37        -1.6512898346e-04
 38        -3.4506406619e-04
 39         7.7400327655e-06
 40        -2.4627434061e-05
 41        -5.6261556948e-04
 42        -2.0547777557e-04
 43        -1.0309592270e-04
 44        -4.6064247359e-04
 45         6.5755947432e-04
 46        -3.2919714267e-05
 47        -2.7383427928e-04
 48        -8.6454713706e-06
 49        -1.1289493465e-04
 50         5.2880453675e-04
 51         3.9921741329e-05
 52        -1.5376525193e-05
 53        -2.2428439475e-05
 54         3.7186536463e-06
 55         4.1813934520e-05
 56         3.6535267484e-05
 57        -7.2733215189e-05
 58        -1.4515693582e-04
 59         1.6365534113e-04
 60         8.6648574879e-06
 61        -1.1582368849e-04
 62        -1.0192896870e-05
 63        -1.0897166939e-04
 64         2.2436911138e-04
 65         4.0943877156e-05
 66        -4.3345623085e-05
 67         1.5311437298e-06
 68         1.6340377256e-06
 69         1.4669939211e-06
 70        -6.4265118137e-07
 71        -1.2298889516e-03
 72         1.9156337918e-03
 73         6.9944460957e-04
 74        -1.4449037443e-03
 75        -1.0030180699e-03
 76        -1.3416398051e-03
 77         1.9239047819e-03
 78         4.3655326762e-04
 79         1.8038077651e-03
 80        -7.5583358019e-04
 81        -1.0994485031e-03
 82         2.3446701782e-03
 83         5.5768588766e-04
 84        -9.6479311210e-05
 85         1.8165121628e-03
 86         1.6457745955e-05
 87         3.8767236512e-04
 88         6.4820937063e-06
 89         6.9348413645e-05
 90        -7.5783512473e-06
 91         5.5211327289e-05
 92         3.6500854262e-04
 93         9.6631284032e-05
 94        -2.0550813033e-04
 95         1.0109390190e-05
 96        -4.3486227835e-04
 97         2.4358426817e-04
 98        -3.6795314515e-04
 99        -1.1430052302e-04
100         2.0155279457e-05
 Sym= A
 Ene=        -1.0389719797e+00
 Spin= Alpha
 Occup=         2.0000000000e+00
  1        -4.8316106894e-04
  2         6.3691135504e-03
  3         5.6909960311e-03
  4        -3.0582764066e-03
  5        -3.0557616469e-03
  6        -2.9926818565e-05
  7        -3.0506434286e-03
  8        -2.5819482413e-03
  9         9.9772055700e-04
 10        -6.1513151975e-04
 11        -1.9929480211e-04
 12        -2.2448288530e-04
 13         1.8145455591e-04
 14         9.2072841577e-04
 15         5.9538036425e-04
 16         1.6567097769e-02
 17        -1.3221608038e-02
 18        -1.6566985961e-04
 19        -1.0569020281e-02
 20         5.6445094485e-04
 21        -2.1831370002e-03
 22         1.0054942363e-02
 23        -5.8400581459e-04
 24        -4.5012257843e-04
 25        -1.1710473176e-04
 26        -2.5966399544e-04
 27        -1.6792426306e-03
 28         7.3280860080e-04
 29        -3.6249413718e-03
 30         3.6835159591e-02
 31         3.2823984978e-02
 32         2.0862037727e-02
 33        -2.0614299818e-02
 34         9.2756064267e-04
 35         2.0171983217e-02
 36         1.4067485551e-03
 37        -1.5005558622e-04
 38        -3.7942333417e-03
 39         2.3750261384e-04
 40        -5.8328820355e-04
 41        -1.0774586957e-03
 42        -9.0446176082e-03
 43        -1.4591872677e-02
 44         2.2492995842e-01
 45         9.4447105661e-02
 46         1.8432853317e-01
 47        -2.5811272638e-02
 48         1.2174817905e-02
 49         1.2017931290e-02
 50        -3.1058209269e-03
 51         1.0859028188e-03
 52        -1.3454511877e-02
 53         3.4833686909e-03
 54        -1.0426416100e-03
 55         3.1001682349e-02
 56        -1.4120177082e-02
 57        -9.1292225033e-03
 58         4.0220869988e-01
 59         3.6020999857e-01
 60        -1.5502749410e-01
 61         3.1970303182e-02
 62        -1.0703416751e-02
 63        -3.1628392483e-02
 64         7.2447275699e-03
 65        -2.5909818377e-03
 66        -5.2240119991e-03
 67         1.3919934941e-03
 68        -5.0303449066e-04
 69         1.2084201846e-02
 70        -5.1726439916e-03
 71         4.9286176154e-03
 72         2.9180408214e-03
 73        -6.4031649625e-04
 74        -4.8705770805e-04
 75         5.8806669132e-04
 76         9.7804934228e-04
 77         5.4676459584e-05
 78         2.6843864948e-05
 79         1.2990500511e-05
 80        -4.0904796645e-05
 81         1.8227555602e-03
 82         8.4079773980e-04
 83        -2.6648316799e-04
 84        -1.8996332316e-04
 85        -4.3932805471e-04
 86         3.9398496986e-02
 87        -3.6401031062e-03
 88         1.0179604093e-02
 89         5.8773791860e-03
 90         6.6897488923e-04
 91         7.1985411411e-03
 92         6.0317738012e-03
 93         9.5650677167e-04
 94        -1.9537650051e-03
 95        -1.5272714502e-05
 96         1.7976096565e-03
 97        -3.2892919693e-03
 98        -2.2858253020e-04
 99        -8.3419223180e-04
100         6.7924536678e-05
 Sym= A
 Ene=        -8.0900832404e-01
 Spin= Alpha
 Occup=         2.0000000000e+00
  1         1.0985693522e-02
  2        -1.8134254452e-01
  3        -7.4987926645e-02
  4         6.5514612699e-02
  5         1.2990734303e-02
  6        -4.8579501979e-03
  7         3.0352124587e-03
  8        -8.5093364398e-03
  9         1.0641602353e-03
 10         5.6194232838e-03
 11         8.2891295318e-04
 12         3.1319363423e-05
 13        -9.7870708839e-03
 14        -3.6151632919e-03
 15         1.9785554865e-02
 16        -2.9147628987e-01
 17        -2.0133750225e-01
 18        -6.2440998457e-04
 19         6.5722842171e-02
 20        -2.6457852322e-03
 21        -3.2546350833e-02
 22         2.1009887514e-02
 23         8.5099591508e-05
 24         9.9749087024e-03
 25         8.3901253452e-04
 26         8.5790265656e-04
 27        -2.7140005244e-03
 28        -1.1356891504e-02
 29         1.7051633894e-02
 30        -2.5413786996e-01
 31        -1.4195633477e-01
 32        -5.8132798737e-02
 33        -5.7465881867e-02
 34         4.5449147865e-03
 35        -3.0093833387e-03
 36        -2.4038332406e-02
 37         1.1754182102e-03
 38         6.9308694398e-03
 39         6.4390696563e-04
 40         8.7806231369e-04
 41         8.7402488046e-03
 42        -9.1617452999e-03
 43         2.4492379468e-03
 44        -6.3941496786e-02
 45        -5.1627237420e-02
 46         6.9067205583e-02
 47        -8.0382901535e-02
 48         5.2806875797e-03
 49         2.5108984499e-02
 50        -2.2415761658e-02
 51         1.3957234630e-03
 52         2.6403829591e-03
 53         6.5896219688e-04
 54         3.1804905072e-04
 55         1.3567432606e-02
 56         2.6559062923e-03
 57        -3.3376116244e-04
 58         7.5246159238e-02
 59         7.1652197815e-02
 60        -1.1380732073e-02
 61        -1.6236817407e-02
 62        -2.2262903184e-04
 63         1.6596620435e-03
 64        -6.7316624639e-03
 65         5.6971260750e-04
 66         1.8450783854e-04
 67         6.3699744061e-05
 68         1.7763665985e-04
 69         1.6056115144e-03
 70         1.5887028250e-03
 71        -6.6974239227e-02
 72        -3.3541184631e-03
 73         5.1060430085e-03
 74        -7.2389794957e-03
 75        -5.2923781451e-03
 76        -6.2926886842e-02
 77        -1.4861799940e-03
 78         4.0735107549e-03
 79         8.7608726924e-03
 80        -3.7021355873e-03
 81        -6.7801177563e-02
 82        -3.6238615022e-03
 83         4.7136077122e-03
 84         2.7998990750e-04
 85         9.0336500497e-03
 86        -1.8051387765e-02
 87         9.9122577778e-04
 88         2.5538714928e-05
 89        -3.3810393265e-03
 90         3.6157988722e-05
 91        -8.4395504017e-02
 92        -2.4918221562e-03
 93        -1.4384254968e-02
 94        -1.4326122955e-03
 95         4.6408974992e-04
 96        -1.0230257487e-01
 97        -1.2911907853e-02
 98        -7.1266921084e-03
 99         1.4288507588e-02
100        -1.6620828779e-05
 Sym= A
 Ene=        -7.1804749600e-01
 Spin= Alpha
 Occup=         2.0000000000e+00
  1         1.4006096586e-02
  2        -2.8705233670e-01
  3        -1.1940747802e-01
  4         1.9143065674e-02
  5        -1.0715746094e-02
  6        -4.9745308260e-03
  7        -1.7476398094e-02
  8        -8.5222507551e-03
  9         4.9139414540e-04
 10         1.4524470398e-03
 11         1.8635131049e-04
 12        -1.8024509247e-04
 13        -3.0892069774e-03
 14         2.2073678746e-03
 15         5.2795715321e-03
 16        -4.8168320548e-02
 17        -8.4413399278e-02
 18        -1.3884073813e-01
 19        -9.4975015508e-02
 20         6.9053370891e-03
 21        -9.3878148258e-02
 22        -9.1084752354e-03
 23         2.8787100619e-03
 24         3.8486562260e-03
 25         5.3440253159e-04
 26        -3.8589580957e-04
 27        -1.7110230870e-02
 28         3.0883075617e-03
 29        -1.3963763745e-02
 30         2.2847730309e-01
 31         1.6674060353e-01
 32        -5.7596523630e-03
 33        -5.4652756124e-02
 34         1.0419504887e-03
 35         3.6405564919e-02
 36        -4.0788340494e-02
 37         1.5521037540e-04
 38        -4.8276545577e-03
 39         1.4748421858e-04
 40        -3.3660994371e-04
 41        -1.0029411903e-02
 42        -4.9080621606e-03
 43        -3.0569013706e-03
 44         1.5172144129e-01
 45         6.1449902512e-02
 46        -1.0686653994e-01
 47         7.9173697550e-02
 48        -5.4447382903e-03
 49        -3.7390975904e-02
 50         7.8204366104e-03
 51        -1.7898085531e-03