[Molden Format]
[Atoms] (AU)
C    1    6           1.6639333139         2.8153822279         0.2099835460
C    2    6          -0.8337840166         2.3425063464        -0.0843947584
C    3    6          -2.1223139953        -0.0557286955         0.3889604333
C    4    6          -0.8605089014        -2.2606471547         0.0416285069
O    5    8           1.6337537830        -2.4356111519        -0.3745636412
H    6    1           2.2141679690        -0.7222657324        -0.6251377349
H    7    1           2.6110781642         4.3376524689        -0.8140010457
H    8    1           2.8500075577         1.6531863366         1.4382052776
H    9    1          -1.7929369615        -4.1055520379        -0.1380188553
H   10    1          -4.1872572657        -0.1199328965         0.4928696888
H   11    1          -1.9924018249         3.7784231143        -1.0316334525
[GTO]
  1 0
 s    8  1.00
     6665.0000000000         0.0006920000
     1000.0000000000         0.0053290000
      228.0000000000         0.0270770000
       64.7100000000         0.1017180000
       21.0600000000         0.2747400000
        7.4950000000         0.4485640000
        2.7970000000         0.2850740000
        0.5215000000         0.0152040000
 s    8  1.00
     6665.0000000000        -0.0001460000
     1000.0000000000        -0.0011540000
      228.0000000000        -0.0057250000
       64.7100000000        -0.0233120000
       21.0600000000        -0.0639550000
        7.4950000000        -0.1499810000
        2.7970000000        -0.1272620000
        0.5215000000         0.5445290000
 s    1  1.00
        0.1596000000         1.0000000000
 p    3  1.00
        9.4390000000         0.0381090000
        2.0020000000         0.2094800000
        0.5456000000         0.5085570000
 p    1  1.00
        0.1517000000         1.0000000000
 d    1  1.00
        0.5500000000         1.0000000000

  2 0
 s    8  1.00
     6665.0000000000         0.0006920000
     1000.0000000000         0.0053290000
      228.0000000000         0.0270770000
       64.7100000000         0.1017180000
       21.0600000000         0.2747400000
        7.4950000000         0.4485640000
        2.7970000000         0.2850740000
        0.5215000000         0.0152040000
 s    8  1.00
     6665.0000000000        -0.0001460000
     1000.0000000000        -0.0011540000
      228.0000000000        -0.0057250000
       64.7100000000        -0.0233120000
       21.0600000000        -0.0639550000
        7.4950000000        -0.1499810000
        2.7970000000        -0.1272620000
        0.5215000000         0.5445290000
 s    1  1.00
        0.1596000000         1.0000000000
 p    3  1.00
        9.4390000000         0.0381090000
        2.0020000000         0.2094800000
        0.5456000000         0.5085570000
 p    1  1.00
        0.1517000000         1.0000000000
 d    1  1.00
        0.5500000000         1.0000000000

  3 0
 s    8  1.00
     6665.0000000000         0.0006920000
     1000.0000000000         0.0053290000
      228.0000000000         0.0270770000
       64.7100000000         0.1017180000
       21.0600000000         0.2747400000
        7.4950000000         0.4485640000
        2.7970000000         0.2850740000
        0.5215000000         0.0152040000
 s    8  1.00
     6665.0000000000        -0.0001460000
     1000.0000000000        -0.0011540000
      228.0000000000        -0.0057250000
       64.7100000000        -0.0233120000
       21.0600000000        -0.0639550000
        7.4950000000        -0.1499810000
        2.7970000000        -0.1272620000
        0.5215000000         0.5445290000
 s    1  1.00
        0.1596000000         1.0000000000
 p    3  1.00
        9.4390000000         0.0381090000
        2.0020000000         0.2094800000
        0.5456000000         0.5085570000
 p    1  1.00
        0.1517000000         1.0000000000
 d    1  1.00
        0.5500000000         1.0000000000

  4 0
 s    8  1.00
     6665.0000000000         0.0006920000
     1000.0000000000         0.0053290000
      228.0000000000         0.0270770000
       64.7100000000         0.1017180000
       21.0600000000         0.2747400000
        7.4950000000         0.4485640000
        2.7970000000         0.2850740000
        0.5215000000         0.0152040000
 s    8  1.00
     6665.0000000000        -0.0001460000
     1000.0000000000        -0.0011540000
      228.0000000000        -0.0057250000
       64.7100000000        -0.0233120000
       21.0600000000        -0.0639550000
        7.4950000000        -0.1499810000
        2.7970000000        -0.1272620000
        0.5215000000         0.5445290000
 s    1  1.00
        0.1596000000         1.0000000000
 p    3  1.00
        9.4390000000         0.0381090000
        2.0020000000         0.2094800000
        0.5456000000         0.5085570000
 p    1  1.00
        0.1517000000         1.0000000000
 d    1  1.00
        0.5500000000         1.0000000000

  5 0
 s    8  1.00
    11720.0000000000         0.0007100000
     1759.0000000000         0.0054700000
      400.8000000000         0.0278370000
      113.7000000000         0.1048000000
       37.0300000000         0.2830620000
       13.2700000000         0.4487190000
        5.0250000000         0.2709520000
        1.0130000000         0.0154580000
 s    8  1.00
    11720.0000000000        -0.0001600000
     1759.0000000000        -0.0012630000
      400.8000000000        -0.0062670000
      113.7000000000        -0.0257160000
       37.0300000000        -0.0709240000
       13.2700000000        -0.1654110000
        5.0250000000        -0.1169550000
        1.0130000000         0.5573680000
 s    1  1.00
        0.3023000000         1.0000000000
 p    3  1.00
       17.7000000000         0.0430180000
        3.8540000000         0.2289130000
        1.0460000000         0.5087280000
 p    1  1.00
        0.2753000000         1.0000000000
 d    1  1.00
        1.1850000000         1.0000000000

  6 0
 s    3  1.00
       13.0100000000         0.0196850000
        1.9620000000         0.1379770000
        0.4446000000         0.4781480000
 s    1  1.00
        0.1220000000         1.0000000000
 p    1  1.00
        0.7270000000         1.0000000000

  7 0
 s    3  1.00
       13.0100000000         0.0196850000
        1.9620000000         0.1379770000
        0.4446000000         0.4781480000
 s    1  1.00
        0.1220000000         1.0000000000
 p    1  1.00
        0.7270000000         1.0000000000

  8 0
 s    3  1.00
       13.0100000000         0.0196850000
        1.9620000000         0.1379770000
        0.4446000000         0.4781480000
 s    1  1.00
        0.1220000000         1.0000000000
 p    1  1.00
        0.7270000000         1.0000000000

  9 0
 s    3  1.00
       13.0100000000         0.0196850000
        1.9620000000         0.1379770000
        0.4446000000         0.4781480000
 s    1  1.00
        0.1220000000         1.0000000000
 p    1  1.00
        0.7270000000         1.0000000000

  10 0
 s    3  1.00
       13.0100000000         0.0196850000
        1.9620000000         0.1379770000
        0.4446000000         0.4781480000
 s    1  1.00
        0.1220000000         1.0000000000
 p    1  1.00
        0.7270000000         1.0000000000

  11 0
 s    3  1.00
       13.0100000000         0.0196850000
        1.9620000000         0.1379770000
        0.4446000000         0.4781480000
 s    1  1.00
        0.1220000000         1.0000000000
 p    1  1.00
        0.7270000000         1.0000000000

[5D7F]
[9G]

[MO]
 Sym= A
 Ene=        -1.9169455128e+01
 Spin= Alpha
 Occup=         2.0000000000e+00
  1        -1.5463728678e-04
  2        -2.6750007364e-04
  3         1.7140301671e-03
  4        -9.3607691819e-05
  5         3.0956657518e-05
  6         2.2010151922e-05
  7        -1.9468378232e-04
  8        -1.2014776936e-03
  9         9.7317100396e-05
 10        -7.6081367260e-05
 11        -3.7592908366e-05
 12         5.7131234319e-05
 13        -1.3290339558e-04
 14         5.9945643705e-05
 15         1.8350862068e-04
 16         3.2255408816e-04
 17        -4.8188817656e-03
 18         3.3056744290e-05
 19         6.9202637116e-06
 20         8.7288642923e-05
 21         4.2978165232e-05
 22         2.4946819210e-03
 23        -9.2543404797e-04
 24         5.9689635162e-05
 25        -1.0652989443e-04
 26         1.0325296888e-04
 27        -1.6112374465e-06
 28         3.0413728765e-05
 29        -1.5383301847e-04
 30        -2.1209441973e-04
 31         4.5362257405e-03
 32         9.3416694220e-05
 33        -2.5852942189e-04
 34        -3.9751680523e-05
 35         4.2963181471e-03
 36         2.5454384003e-03
 37        -6.5707394424e-04
 38        -1.3173071931e-04
 39        -1.4351190436e-04
 40        -2.1256822679e-05
 41         4.2426984190e-04
 42        -3.5648115961e-04
 43        -1.9934654900e-04
 44        -3.4851386923e-04
 45        -5.9512706412e-03
 46        -3.2534345219e-04
 47         1.6543024745e-04
 48         1.2021645083e-04
 49        -5.2253214727e-03
 50        -1.8759435888e-03
 51         6.6234410174e-04
 52         3.6674879415e-04
 53        -3.7368859894e-05
 54        -1.4147314564e-04
 55         7.8651586029e-04
 56        -3.3492307107e-04
 57        -1.0040993289e+00
 58        -9.4098390642e-03
 59         1.3905712934e-02
 60         1.0383888774e-03
 61        -1.3665461208e-03
 62        -2.4661881651e-05
 63        -3.1950020585e-03
 64         1.1195082157e-03
 65         4.7032209684e-04
 66         3.7303363276e-05
 67         2.9796301373e-06
 68         8.6639271809e-05
 69         2.0215589494e-04
 70        -2.3730643906e-04
 71        -2.4087592345e-04
 72        -7.5163814201e-04
 73        -1.4691820071e-04
 74        -1.0993869452e-03
 75         1.7298195818e-05
 76        -5.0670025915e-05
 77         1.2384066981e-04
 78         3.2677498749e-05
 79         7.9737023704e-05
 80         5.9383616868e-06
 81        -1.8721601486e-04
 82        -1.8088021994e-04
 83        -3.0406478192e-06
 84        -2.1434287987e-05
 85        -1.6827508100e-05
 86         4.7876905475e-04
 87        -8.0084152304e-04
 88         6.0970237603e-04
 89         2.0294499740e-04
 90        -6.5005271701e-05
 91         1.4433001288e-04
 92         1.1384465014e-03
 93        -2.1517085633e-04
 94        -1.9076189902e-04
 95         4.8474138048e-05
 96         4.9410358216e-05
 97        -5.7714766144e-04
 98        -2.4947821176e-05
 99        -7.5889753775e-05
100         3.9973047966e-05
 Sym= A
 Ene=        -1.0253640062e+01
 Spin= Alpha
 Occup=         2.0000000000e+00
  1        -2.9370710991e-04
  2        -3.6288706318e-04
  3         1.0888516756e-03
  4         1.3615530699e-04
  5         9.0781729541e-05
  6         4.9076355639e-05
  7        -1.1007055989e-03
  8         3.9150158420e-04
  9        -4.2072438510e-04
 10        -9.8436671168e-05
 11        -1.7121981974e-05
 12        -3.7726509795e-05
 13         4.0628022951e-05
 14        -4.2588962424e-05
 15        -4.8707251097e-04
 16        -7.0708476881e-04
 17         4.4246889507e-03
 18        -9.1772335731e-05
 19         2.1673815495e-05
 20        -8.7056961220e-06
 21        -2.0937354215e-03
 22        -3.6349079317e-03
 23         7.4492327080e-04
 24        -3.2535066842e-04
 25        -1.0134152707e-04
 26        -8.8928017009e-05
 27        -3.2967587604e-05
 28         9.9665643433e-05
 29         4.3981397819e-03
 30        -9.4861103548e-04
 31        -8.7450415782e-05
 32        -6.1941093138e-04
 33         1.2936007057e-03
 34         1.9276969046e-04
 35        -1.8829917072e-03
 36        -5.4793179358e-03
 37         4.3088324916e-04
 38         1.0661642096e-03
 39         2.8525491411e-04
 40        -1.4448698745e-04
 41         3.7666416565e-04
 42         9.6773221909e-04
 43         1.0058925172e+00
 44         1.5260392223e-02
 45        -1.1657783927e-02
 46         6.7675732766e-04
 47        -3.5297205343e-04
 48        -2.8762596700e-04
 49         4.6076460471e-03
 50        -1.7716695550e-03
 51        -8.3361124912e-04
 52        -1.6193341990e-03
 53        -3.3275697442e-04
 54         4.6238884294e-04
 55        -3.0780651466e-04
 56         8.6923060500e-05
 57         6.9514240889e-04
 58         1.2630115856e-03
 59        -4.8398736106e-03
 60         3.0723829724e-04
 61        -1.7657195856e-04
 62        -4.1775401892e-05
 63         3.2044033526e-03
 64        -1.0695417869e-04
 65        -4.8840985476e-04
 66         7.2959407289e-04
 67         3.4726274541e-04
 68        -2.4768060455e-06
 69        -7.7854446774e-04
 70         6.1715107198e-05
 71         6.1355216976e-04
 72        -2.8298622121e-04
 73        -5.8681187942e-04
 74        -1.3012126917e-04
 75         8.8811234525e-05
 76        -5.5402406493e-05
 77         1.6683442767e-04
 78        -1.3403482967e-05
 79        -4.1844010414e-05
 80         1.9680441321e-05
 81        -1.4846581421e-05
 82         6.6973298208e-04
 83         2.3508963976e-05
 84         4.7990026142e-05
 85        -3.2440128036e-05
 86        -2.2550834974e-03
 87         2.2647933372e-03
 88        -1.4446377546e-03
 89        -1.7104787286e-03
 90        -1.0893280337e-04
 91        -9.8470722812e-05
 92        -2.8381687801e-04
 93         3.2059229286e-04
 94         2.8254415482e-04
 95        -3.5843863447e-05
 96        -8.4737190080e-05
 97         4.8905917928e-04
 98         1.4783322935e-04
 99         1.2492003325e-04
100        -4.0381520041e-05
 Sym= A
 Ene=        -1.0209723802e+01
 Spin= Alpha
 Occup=         2.0000000000e+00
  1         1.5805123142e-02
  2        -1.1215920293e-03
  3         4.9559669213e-03
  4         1.3277257581e-03
  5         2.3647177032e-04
  6         4.3388060192e-05
  7        -2.4870690614e-03
  8        -1.5127695812e-03
  9         4.6998300040e-04
 10         8.8078450117e-04
 11        -2.7799729969e-04
 12         2.5609888417e-05
 13        -1.0966614361e-03
 14        -3.1664122800e-04
 15         1.0063225850e+00
 16         1.6277036696e-02
 17        -1.9230100610e-02
 18        -7.3986052687e-05
 19         1.7434418522e-04
 20        -3.6433403636e-04
 21        -2.2293327247e-03
 22         3.0851471702e-03
 23        -1.3788377993e-03
 24        -7.0634600046e-04
 25         6.6414404695e-04
 26        -7.3151361293e-04
 27         2.7560268966e-04
 28        -1.3807612825e-04
 29         5.4655498010e-03
 30        -3.9707917421e-04
 31         1.1448944487e-03
 32        -4.3339108406e-04
 33        -6.2983263247e-04
 34         1.3409134896e-04
 35         7.3431243187e-04
 36         3.1622347155e-03
 37         3.2711650015e-04
 38         7.9052546967e-04
 39         8.6311025677e-05
 40         5.0126797744e-04
 41         9.4175690216e-04
 42        -9.4230598898e-04
 43        -3.9486216317e-04
 44        -7.6505036409e-04
 45         3.6922112900e-03
 46        -4.0953897553e-05
 47        -2.1044751672e-04
 48         1.0146697025e-04
 49        -6.0686364961e-04
 50         2.5841857981e-03
 51        -6.0225270635e-05
 52        -4.1142195502e-04
 53        -3.0836961630e-04
 54        -4.8615939006e-06
 55         2.8591657303e-04
 56        -1.0229250470e-04
 57         7.1712290786e-05
 58         1.0201998823e-04
 59        -1.1315342830e-03
 60         1.5900298166e-04
 61        -4.1286478360e-05
 62         2.1050307469e-07
 63         1.1040601031e-04
 64        -6.2515194928e-04
 65         4.6099673732e-05
 66         6.4020034121e-05
 67        -4.5137047401e-06
 68         2.1726024985e-05
 69         1.3597306036e-05
 70         3.3752250052e-05
 71         3.0330710329e-04
 72         5.9477147523e-04
 73        -3.3506400175e-04
 74        -7.3164981519e-05
 75        -3.9127447606e-05
 76        -2.0004274896e-05
 77         9.3687934090e-04
 78         1.3982031174e-04
 79        -1.1202746365e-04
 80         1.6750015269e-04
 81        -2.8635012075e-04
 82         6.6497783449e-05
 83         4.1419300230e-05
 84         1.8610433150e-04
 85        -1.7128413128e-04
 86         2.3452177045e-05
 87         7.1309412904e-04
 88         1.3794928035e-04
 89        -8.4796145632e-05
 90        -8.1887279851e-06
 91        -1.7735522976e-04
 92         3.2704065635e-04
 93        -1.9742278278e-05
 94        -3.5810677101e-04
 95        -4.1360883815e-05
 96        -2.3332389145e-03
 97         1.2105130829e-03
 98        -1.1126345165e-03
 99         1.5087708385e-03
100        -1.0336882087e-03
 Sym= A
 Ene=        -1.0189078582e+01
 Spin= Alpha
 Occup=         2.0000000000e+00
  1         1.0065514041e+00
  2         1.6834406194e-02
  3        -1.6638815230e-02
  4         3.2307982294e-04
  5        -2.7397883186e-04
  6        -1.3518795559e-04
  7         2.3573244440e-03
  8         1.6961900041e-03
  9         6.8446934600e-04
 10        -4.6719232322e-04
 11         3.2323118726e-04
 12        -1.5625454004e-03
 13         5.3675850496e-04
 14         3.8787568176e-04
 15        -1.6973416501e-02
 16        -1.3567301385e-03
 17         1.9163041656e-03
 18        -1.3276777170e-03
 19        -2.5490579664e-04
 20        -2.0770737376e-04
 21         3.1080075622e-03
 22         1.8995755199e-03
 23        -1.3232052553e-04
 24         9.2285877872e-04
 25        -4.2714198302e-04
 26         2.2739097233e-04
 27        -1.1680444478e-03
 28        -7.4742486589e-04
 29        -1.6949543147e-03
 30        -5.4610390079e-04
 31         3.2585746705e-03
 32        -1.1956527032e-04
 33         1.3281734875e-05
 34        -6.1402226424e-05
 35         1.9013336353e-03
 36         2.1190979252e-03
 37        -3.8100840231e-04
 38        -3.7863994669e-04
 39         7.0014902711e-05
 40        -2.0237251082e-04
 41        -3.4067489700e-04
 42        -1.7392103572e-05
 43         1.7107035324e-05
 44        -2.0991536450e-04
 45        -1.2841592148e-03
 46        -7.0028901250e-05
 47        -1.3448143065e-04
 48        -5.5371303926e-05
 49        -1.3913276182e-03
 50        -3.6815685360e-04
 51         2.8078345207e-04
 52         5.6225710379e-05
 53         1.0944388826e-04
 54        -8.3737064520e-05
 55        -1.1107092425e-04
 56         1.1053665973e-04
 57         1.8280378533e-05
 58         5.2777126842e-05
 59         4.4467728023e-04
 60         1.7112804391e-04
 61         1.0031196912e-04
 62        -5.9824442995e-05
 63        -9.6691879066e-04
 64        -1.3653272281e-04
 65         1.5086487059e-04
 66        -7.0235446356e-05
 67        -3.4775697215e-05
 68        -3.2797650648e-05
 69         4.6810083818e-05
 70         6.9727072551e-05
 71         4.1024232800e-04
 72         2.1302865912e-03
 73        -7.9018059792e-05
 74         6.5957330412e-04
 75         1.0149695432e-04
 76        -2.3001520741e-03
 77         1.7580297199e-03
 78         9.3193982591e-04
 79         1.6325511550e-03
 80        -1.2678487108e-03
 81        -1.8362691701e-03
 82         1.5625321585e-03
 83         1.1016979706e-03
 84        -1.3665978033e-03
 85         1.4010788379e-03
 86        -6.9459911831e-05
 87        -5.0256542388e-05
 88         5.0380519667e-05
 89         9.6787846419e-06
 90        -3.1379816079e-05
 91         1.1186202321e-04
 92         6.0687521755e-04
 93         8.1478187447e-06
 94        -1.1789942879e-04
 95         5.0614693452e-05
 96         5.5297519477e-06
 97         3.2767031793e-04
 98        -3.6113118775e-05
 99        -2.8676325943e-04
100         7.2020824443e-05
 Sym= A
 Ene=        -1.0185006807e+01
 Spin= Alpha
 Occup=         2.0000000000e+00
  1         1.0195529796e-03
  2        -4.3170301450e-04
  3         2.4045013858e-03
  4         6.7938878952e-05
  5         1.1454972132e-04
  6        -6.0042752156e-05
  7        -1.9344173534e-03
  8        -3.5342934013e-04
  9         3.2100800926e-04
 10        -2.8437646241e-04
 11         4.4598023648e-04
 12        -2.5176639828e-04
 13         1.9227293602e-04
 14        -4.3666078175e-04
 15        -5.8196229425e-03
 16        -6.4864326686e-04
 17         3.3161092625e-03
 18         2.1982125326e-04
 19         6.6337312996e-04
 20        -1.5075917786e-04
 21        -2.1532613638e-03
 22        -3.4550779031e-03
 23        -8.9983085099e-05
 24         8.5706171367e-04
 25         5.0088213350e-04
 26         4.2412496256e-04
 27         5.6470226600e-04
 28        -1.1767685466e-03
 29         1.0066665443e+00
 30         1.6765446631e-02
 31        -2.2014961407e-02
 32        -1.9345882160e-04
 33        -1.8165761804e-04
 34        -4.0494755654e-04
 35        -5.0412975299e-03
 36        -1.4923250802e-04
 37         1.9316989542e-03
 38        -1.0884148450e-03
 39        -1.5021847485e-04
 40         5.8402453847e-05
 41         5.4495856231e-04
 42        -1.6784901809e-04
 43        -5.5561270207e-03
 44        -1.4956364493e-03
 45         6.8989387046e-03
 46         6.5805527075e-04
 47        -1.1071358734e-03
 48        -1.9637732627e-04
 49        -2.9419408126e-04
 50         4.0766581762e-03
 51        -6.9203277227e-06
 52         8.0973922336e-04
 53         2.6453125972e-04
 54        -4.0155590098e-04
 55         6.7543931174e-04
 56         1.0065404523e-03
 57         2.1001096575e-05
 58         2.1989836120e-05
 59        -9.3105187385e-04
 60         5.6062748361e-05
 61        -5.2849414940e-05
 62        -2.4420829265e-05
 63        -1.1077486862e-04
 64        -7.4332759979e-04
 65         8.0473751629e-05
 66        -5.6063637085e-05
 67        -1.5086656393e-05
 68         1.0266827843e-05
 69         7.7671784277e-05
 70         8.6827073496e-05
 71         2.7665524245e-04
 72         2.4541843819e-04
 73        -1.4574009379e-04
 74        -1.9252416092e-04
 75         4.4925803586e-05
 76         1.8498811501e-04
 77         5.5012994084e-04
 78         1.1244956969e-04
 79        -1.6031099289e-04
 80         4.9473640748e-05
 81        -6.4642180887e-04
 82         3.8874756000e-04
 83         1.4124292082e-04
 84        -6.5433670132e-05
 85         1.2786628614e-04
 86         1.3190895801e-04
 87         1.0664967711e-03
 88         3.4019305369e-04
 89        -5.1062727254e-06
 90         3.1256421106e-05
 91        -2.3650367051e-03
 92         9.4248539600e-04
 93        -2.1660773940e-03
 94        -1.2589322874e-04
 95        -6.3041123183e-05
 96        -3.5404477690e-04
 97         5.8682328760e-04
 98         2.1532733274e-04
 99         2.4250981725e-04
100         8.0388004931e-05
 Sym= A
 Ene=        -1.0703568186e+00
 Spin= Alpha
 Occup=         2.0000000000e+00
  1         3.6249478281e-04
  2         1.3819263968e-02
  3        -5.9757504090e-03
  4        -2.7122511613e-03
  5        -8.2014161010e-03
  6        -6.6210272065e-04
  7         3.0322388565e-03
  8         6.9430052655e-03
  9        -4.4748223282e-03
 10        -1.9768604269e-04
 11        -7.7506054829e-04
 12         7.1931316850e-04
 13        -6.1205261084e-04
 14         8.8811060199e-04
 15        -4.1375213500e-04
 16         1.6564012864e-02
 17         6.0429507363e-03
 18         3.2533774497e-03
 19        -1.0370099917e-02
 20         8.0385207405e-04
 21         5.8619891863e-03
 22         1.4773129452e-03
 23         7.7252307988e-04
 24        -1.5552031481e-03
 25        -2.2895003547e-04
 26        -6.0643170770e-04
 27        -1.0454242118e-03
 28         1.1761975700e-05
 29        -1.4879687491e-03
 30         3.7345320465e-02
 31        -2.1758341436e-03
 32         2.3698633116e-02
 33        -1.7103536928e-02
 34        -5.8938271962e-03
 35         6.1121969300e-03
 36         1.2482815848e-02
 37        -1.2108226994e-03
 38        -2.3674850482e-03
 39        -1.8851517072e-03
 40         1.1258359348e-03
 41         2.7128289855e-03
 42        -7.6721937263e-03
 43        -1.2421948921e-02
 44         1.5818933341e-01
 45         8.2644837717e-02
 46         1.3019036005e-01
 47         6.9997437138e-03
 48        -2.2499527598e-02
 49         5.0788608226e-03
 50         2.3511108532e-02
 51         9.6167400018e-04
 52        -1.1777130676e-02
 53        -9.3083067089e-03
 54        -1.1559982218e-03
 55         2.9082146635e-02
 56         1.0299312577e-04
 57        -6.9255240872e-03
 58         4.2054115579e-01
 59         3.6388183200e-01
 60        -8.4540491257e-02
 61         8.4073311062e-02
 62         7.5023941215e-03
 63        -3.0839076376e-02
 64        -5.6222227228e-03
 65         5.1734507467e-03
 66        -6.5401510622e-03
 67        -2.7661682616e-03
 68        -7.4724380710e-04
 69         4.3815160872e-03
 70        -1.2872104158e-03
 71         1.7464294253e-01
 72         4.9791789515e-03
 73        -1.6012443682e-02
 74        -3.1242844467e-02
 75         6.4745631309e-03
 76         7.3698911669e-04
 77        -4.5958543102e-03
 78        -2.6549900007e-05
 79        -2.5573427621e-04
 80        -2.4135165354e-05
 81         1.0841233411e-02
 82         7.0147952776e-03
 83        -1.4581116816e-03
 84        -6.3090370542e-04
 85        -1.1844598949e-03
 86         3.4356995318e-02
 87         5.2309639965e-03
 88         7.9473244354e-03
 89         5.2753934062e-03
 90        -1.4798546015e-04
 91         5.2000513260e-03
 92         2.3623327913e-03
 93         5.5616935687e-04
 94        -2.0767281438e-03
 95        -1.7531260048e-04
 96         1.9810391388e-03
 97        -1.0377512646e-03
 98        -2.4412306933e-04
 99        -4.2916380283e-04
100        -1.1365872392e-04
 Sym= A
 Ene=        -8.0443655713e-01
 Spin= Alpha
 Occup=         2.0000000000e+00
  1         1.5076994812e-02
  2        -1.9185857315e-01
  3        -1.0522127246e-01
  4         8.4925537063e-02
  5         2.7624772760e-02
  6         9.1910189328e-03
  7         7.4311639176e-03
  8        -2.4751375543e-03
  9         8.1110421610e-03
 10         6.0917781041e-03
 11        -1.3583710894e-03
 12        -3.3056624284e-03
 13        -7.6164041363e-03
 14        -5.2082538370e-03
 15         1.9462600591e-02
 16        -2.7974814516e-01
 17        -1.8238293803e-01
 18        -3.9188235588e-02
 19         4.5897490667e-02
 20        -1.2231557944e-02
 21        -2.1157982934e-02
 22         2.3113517814e-02
 23        -1.1997649503e-02
 24         1.1027362353e-02
 25         2.8555703420e-04
 26         1.6083790504e-03
 27        -2.2648598725e-03
 28        -9.7899307786e-03
 29         1.7940796426e-02
 30        -2.3840680367e-01
 31        -1.4082980053e-01
 32        -5.9097064554e-02
 33        -1.8753640742e-02
 34         2.3339026748e-02
 35        -1.7704530210e-02
 36        -1.2316843381e-02
 37         9.2731587326e-03
 38         8.2529316426e-03
 39         2.7987303656e-03
 40         2.1982105581e-03
 41         8.4519985051e-03
 42        -5.5758569087e-03
 43         4.9285694119e-03
 44        -1.1472275161e-01
 45        -6.1578483725e-02
 46         7.0050188009e-02
 47        -8.5436618890e-02
 48        -1.3905296207e-02
 49         2.3837992848e-02
 50        -1.2077917228e-02
 51        -6.2758011494e-03
 52         3.0915119231e-03
 53        -1.3466969235e-03
 54        -1.6157075255e-03
 55         1.2922326804e-02
 56         4.8542513385e-03
 57         8.1441509532e-04
 58         9.7494021416e-02
 59         9.2937558767e-02
 60         1.9237887436e-02
 61        -1.3318624754e-03
 62        -6.1291926343e-03
 63         1.3841343700e-02
 64        -8.6389658075e-03
 65        -2.7405105056e-03
 66         7.7074932121e-04
 67         3.9032936441e-04
 68        -5.8220181302e-04
 69        -9.2647996991e-04
 70         2.4864089161e-03
 71         2.4823558586e-02
 72         3.7311381161e-03
 73        -5.7786521143e-05
 74        -1.1151975726e-02
 75        -4.9324873793e-04
 76        -5.9064043774e-02
 77         5.2096556726e-04
 78         6.4902772226e-03
 79         7.4628768642e-03
 80        -4.1677912484e-03
 81        -6.9863171466e-02
 82        -2.7195526149e-03
 83         7.8301149878e-03
 84        -5.1495998299e-03
 85         6.6754227150e-03
 86        -2.7605015766e-02
 87         1.1211868710e-03
 88         2.4784056204e-04
 89        -5.0233096192e-03
 90        -3.9125238940e-04
 91        -7.7492324786e-02
 92        -7.2616343933e-03
 93        -1.2713020073e-02
 94        -1.4224015423e-03
 95         9.5404310025e-04
 96        -9.5436714158e-02
 97        -1.2590945086e-02
 98        -8.3261708571e-03
 99         1.0763743247e-02
100        -6.3924031029e-03
 Sym= A
 Ene=        -7.3353886371e-01
 Spin= Alpha
 Occup=         2.0000000000e+00
  1         1.6033197272e-02
  2        -2.2786297221e-01
  3        -1.2345521225e-01
  4         4.8749089957e-02
  5         1.3187429654e-02
  6         1.0682861365e-02
  7        -4.0330597741e-04
  8        -1.0166042374e-04
  9         3.7565242669e-03
 10         3.9819122701e-03
 11        -1.6149714021e-03
 12        -2.9395447983e-03
 13        -3.9496633966e-03
 14         1.0381028688e-03
 15         8.3037759399e-03
 16        -1.2238434809e-01
 17        -9.9697850645e-02
 18        -1.1496779458e-01
 19        -7.2386914216e-02
 20         8.7204630991e-04
 21        -5.0943245988e-02
 22        -9.6380485211e-03
 23        -5.3232960409e-03
 24         2.6011341974e-03
 25        -2.5987623600e-03
 26        -1.7870999721e-03
 27        -1.5657185687e-02
 28         2.2054976629e-03
 29        -1.3346840734e-02
 30         2.0123144784e-01
 31         1.3370369289e-01
 32         1.5270741619e-02
 33        -1.1179003603e-01
 34        -1.5346920642e-02
 35         2.0415832504e-02
 36        -3.0674607715e-02
 37        -2.1162629155e-03
 38        -3.2617011560e-03
 39        -6.3614944802e-04
 40         3.4411464432e-03
 41        -6.5628459821e-03
 42        -1.2492019161e-02
 43        -9.9295585129e-03
 44         2.5273133306e-01
 45         1.4289515343e-01
 46        -7.1116197797e-02
 47         5.2459159461e-02
 48         1.1742819883e-02
 49        -2.2200987592e-02
 50         7.8739245005e-03
 51         2.0946461440e-03