[Molden Format]
[Atoms] (AU)
C    1    6           1.6406334855         3.0054022936         0.3011117542
C    2    6          -0.7921484712         2.4108258764        -0.1731299080
C    3    6          -2.0449587522        -0.0094665402         0.2919221673
C    4    6          -0.8870032929        -2.2778476719         0.1045822025
O    5    8           1.5818015491        -2.6834987386        -0.4058604329
H    6    1           2.3531903424        -1.0397149315        -0.7154305102
H    7    1           2.4240133281         4.8291151643        -0.2606211284
H    8    1           2.9023587763         1.7570345697         1.3631706613
H    9    1          -1.9226308463        -4.0583915445         0.2742368063
H   10    1          -4.0835004132        -0.0121233440         0.6138561935
H   11    1          -1.9701655842         3.8577099722        -1.0788799485
[GTO]
  1 0
 s    8  1.00
     6665.0000000000         0.0006920000
     1000.0000000000         0.0053290000
      228.0000000000         0.0270770000
       64.7100000000         0.1017180000
       21.0600000000         0.2747400000
        7.4950000000         0.4485640000
        2.7970000000         0.2850740000
        0.5215000000         0.0152040000
 s    8  1.00
     6665.0000000000        -0.0001460000
     1000.0000000000        -0.0011540000
      228.0000000000        -0.0057250000
       64.7100000000        -0.0233120000
       21.0600000000        -0.0639550000
        7.4950000000        -0.1499810000
        2.7970000000        -0.1272620000
        0.5215000000         0.5445290000
 s    1  1.00
        0.1596000000         1.0000000000
 p    3  1.00
        9.4390000000         0.0381090000
        2.0020000000         0.2094800000
        0.5456000000         0.5085570000
 p    1  1.00
        0.1517000000         1.0000000000
 d    1  1.00
        0.5500000000         1.0000000000

  2 0
 s    8  1.00
     6665.0000000000         0.0006920000
     1000.0000000000         0.0053290000
      228.0000000000         0.0270770000
       64.7100000000         0.1017180000
       21.0600000000         0.2747400000
        7.4950000000         0.4485640000
        2.7970000000         0.2850740000
        0.5215000000         0.0152040000
 s    8  1.00
     6665.0000000000        -0.0001460000
     1000.0000000000        -0.0011540000
      228.0000000000        -0.0057250000
       64.7100000000        -0.0233120000
       21.0600000000        -0.0639550000
        7.4950000000        -0.1499810000
        2.7970000000        -0.1272620000
        0.5215000000         0.5445290000
 s    1  1.00
        0.1596000000         1.0000000000
 p    3  1.00
        9.4390000000         0.0381090000
        2.0020000000         0.2094800000
        0.5456000000         0.5085570000
 p    1  1.00
        0.1517000000         1.0000000000
 d    1  1.00
        0.5500000000         1.0000000000

  3 0
 s    8  1.00
     6665.0000000000         0.0006920000
     1000.0000000000         0.0053290000
      228.0000000000         0.0270770000
       64.7100000000         0.1017180000
       21.0600000000         0.2747400000
        7.4950000000         0.4485640000
        2.7970000000         0.2850740000
        0.5215000000         0.0152040000
 s    8  1.00
     6665.0000000000        -0.0001460000
     1000.0000000000        -0.0011540000
      228.0000000000        -0.0057250000
       64.7100000000        -0.0233120000
       21.0600000000        -0.0639550000
        7.4950000000        -0.1499810000
        2.7970000000        -0.1272620000
        0.5215000000         0.5445290000
 s    1  1.00
        0.1596000000         1.0000000000
 p    3  1.00
        9.4390000000         0.0381090000
        2.0020000000         0.2094800000
        0.5456000000         0.5085570000
 p    1  1.00
        0.1517000000         1.0000000000
 d    1  1.00
        0.5500000000         1.0000000000

  4 0
 s    8  1.00
     6665.0000000000         0.0006920000
     1000.0000000000         0.0053290000
      228.0000000000         0.0270770000
       64.7100000000         0.1017180000
       21.0600000000         0.2747400000
        7.4950000000         0.4485640000
        2.7970000000         0.2850740000
        0.5215000000         0.0152040000
 s    8  1.00
     6665.0000000000        -0.0001460000
     1000.0000000000        -0.0011540000
      228.0000000000        -0.0057250000
       64.7100000000        -0.0233120000
       21.0600000000        -0.0639550000
        7.4950000000        -0.1499810000
        2.7970000000        -0.1272620000
        0.5215000000         0.5445290000
 s    1  1.00
        0.1596000000         1.0000000000
 p    3  1.00
        9.4390000000         0.0381090000
        2.0020000000         0.2094800000
        0.5456000000         0.5085570000
 p    1  1.00
        0.1517000000         1.0000000000
 d    1  1.00
        0.5500000000         1.0000000000

  5 0
 s    8  1.00
    11720.0000000000         0.0007100000
     1759.0000000000         0.0054700000
      400.8000000000         0.0278370000
      113.7000000000         0.1048000000
       37.0300000000         0.2830620000
       13.2700000000         0.4487190000
        5.0250000000         0.2709520000
        1.0130000000         0.0154580000
 s    8  1.00
    11720.0000000000        -0.0001600000
     1759.0000000000        -0.0012630000
      400.8000000000        -0.0062670000
      113.7000000000        -0.0257160000
       37.0300000000        -0.0709240000
       13.2700000000        -0.1654110000
        5.0250000000        -0.1169550000
        1.0130000000         0.5573680000
 s    1  1.00
        0.3023000000         1.0000000000
 p    3  1.00
       17.7000000000         0.0430180000
        3.8540000000         0.2289130000
        1.0460000000         0.5087280000
 p    1  1.00
        0.2753000000         1.0000000000
 d    1  1.00
        1.1850000000         1.0000000000

  6 0
 s    3  1.00
       13.0100000000         0.0196850000
        1.9620000000         0.1379770000
        0.4446000000         0.4781480000
 s    1  1.00
        0.1220000000         1.0000000000
 p    1  1.00
        0.7270000000         1.0000000000

  7 0
 s    3  1.00
       13.0100000000         0.0196850000
        1.9620000000         0.1379770000
        0.4446000000         0.4781480000
 s    1  1.00
        0.1220000000         1.0000000000
 p    1  1.00
        0.7270000000         1.0000000000

  8 0
 s    3  1.00
       13.0100000000         0.0196850000
        1.9620000000         0.1379770000
        0.4446000000         0.4781480000
 s    1  1.00
        0.1220000000         1.0000000000
 p    1  1.00
        0.7270000000         1.0000000000

  9 0
 s    3  1.00
       13.0100000000         0.0196850000
        1.9620000000         0.1379770000
        0.4446000000         0.4781480000
 s    1  1.00
        0.1220000000         1.0000000000
 p    1  1.00
        0.7270000000         1.0000000000

  10 0
 s    3  1.00
       13.0100000000         0.0196850000
        1.9620000000         0.1379770000
        0.4446000000         0.4781480000
 s    1  1.00
        0.1220000000         1.0000000000
 p    1  1.00
        0.7270000000         1.0000000000

  11 0
 s    3  1.00
       13.0100000000         0.0196850000
        1.9620000000         0.1379770000
        0.4446000000         0.4781480000
 s    1  1.00
        0.1220000000         1.0000000000
 p    1  1.00
        0.7270000000         1.0000000000

[5D7F]
[9G]

[MO]
 Sym= A
 Ene=        -1.9174745540e+01
 Spin= Alpha
 Occup=         2.0000000000e+00
  1        -7.7550103937e-05
  2        -1.3350132620e-04
  3         1.1947520125e-03
  4        -1.0134863911e-04
  5         7.4651679378e-05
  6         2.3152113539e-05
  7        -2.3400771591e-04
  8        -1.3376310495e-03
  9         1.6254919206e-04
 10        -7.0527506917e-05
 11         1.1417755238e-05
 12         4.2419274287e-05
 13        -5.0610617244e-05
 14         7.5531013567e-05
 15         2.1029428843e-04
 16         3.6211007658e-04
 17        -5.5667959480e-03
 18        -6.3259964866e-06
 19         5.7617082471e-06
 20         6.4836833908e-05
 21         2.4741948844e-04
 22         2.9533260192e-03
 23        -8.9701377596e-04
 24         6.5396718287e-05
 25        -1.2662000143e-04
 26         1.0335158844e-04
 27        -5.5905316295e-06
 28         2.4157252282e-05
 29        -1.9239873813e-04
 30        -2.8116668639e-04
 31         4.7190347652e-03
 32         4.8566615292e-05
 33        -2.6417292674e-04
 34         6.5304659106e-06
 35         4.6477699950e-03
 36         3.1594179852e-03
 37        -1.0693100659e-03
 38        -1.5946980411e-04
 39        -1.4275246483e-04
 40         6.5792283046e-05
 41         3.9637368177e-04
 42        -3.9877691743e-04
 43        -2.0147239125e-04
 44        -3.6648366616e-04
 45        -5.6497056311e-03
 46        -3.2847142457e-04
 47         2.1936452966e-04
 48         9.8556003020e-05
 49        -5.8961969154e-03
 50        -1.4291890770e-03
 51         1.2153140274e-03
 52         3.9945658193e-04
 53         4.5003996594e-06
 54         7.2479177396e-05
 55         7.0899852193e-04
 56        -4.0398590307e-04
 57        -1.0040845214e+00
 58        -9.3612838944e-03
 59         1.4044464801e-02
 60         8.9347752656e-04
 61        -1.4584931418e-03
 62        -4.8307369598e-05
 63        -3.2425875535e-03
 64         1.4139503536e-03
 65         6.0501075502e-04
 66         2.1831757454e-05
 67         3.8565335935e-06
 68         8.6917862874e-05
 69         1.5166519745e-04
 70        -2.6507216312e-04
 71        -2.4227963494e-04
 72        -3.1271046392e-04
 73        -2.3414004345e-04
 74        -9.8932391637e-04
 75         6.9962643538e-05
 76         5.4171945235e-05
 77         2.9534352796e-04
 78         3.7089173982e-05
 79         6.2115269348e-05
 80         6.8783638508e-06
 81        -2.3018491384e-04
 82        -2.0493342224e-04
 83         3.2250025913e-06
 84        -2.3128456170e-05
 85        -1.1097452913e-05
 86         3.9835069250e-04
 87        -8.9302329875e-04
 88         6.3704283743e-04
 89         1.4112269158e-04
 90        -1.2727178025e-04
 91         1.6614696843e-04
 92         1.2583844373e-03
 93        -2.2733024596e-04
 94        -2.0974518426e-04
 95         6.4131049197e-05
 96         9.2058354402e-05
 97        -6.0677993091e-04
 98        -3.4958012608e-05
 99        -1.0851991822e-04
100         2.9325556311e-05
 Sym= A
 Ene=        -1.0250544295e+01
 Spin= Alpha
 Occup=         2.0000000000e+00
  1        -2.8103324366e-04
  2        -3.4529877212e-04
  3         1.1249260337e-03
  4         1.4468155211e-04
  5         8.0679514387e-05
  6         7.2572950828e-05
  7        -1.2809324862e-03
  8         4.8084245090e-04
  9        -6.3869714470e-04
 10        -7.6280037861e-05
 11        -1.6152738521e-05
 12        -2.9800584199e-05
 13         5.4592989127e-05
 14        -3.7228007067e-05
 15        -4.9074451018e-04
 16        -7.0344827179e-04
 17         4.8531465930e-03
 18        -1.1916428752e-04
 19         1.1945056268e-05
 20         2.4033105637e-06
 21        -2.4050810570e-03
 22        -4.1433687117e-03
 23         7.6083854934e-04
 24        -3.5173283355e-04
 25        -9.8468598081e-05
 26        -1.0532872545e-04
 27         6.0829458186e-06
 28         1.8631436442e-04
 29         4.6207251596e-03
 30        -1.0093265484e-03
 31         1.7922681714e-04
 32        -5.7527103983e-04
 33         1.3529366066e-03
 34         9.5286180308e-05
 35        -1.9525133386e-03
 36        -6.4876748669e-03
 37         7.7730273765e-04
 38         1.0746771537e-03
 39         2.3927917359e-04
 40        -5.0382163106e-05
 41         5.7259329905e-04
 42         9.0054485181e-04
 43         1.0059161482e+00
 44         1.5302491285e-02
 45        -1.2582310795e-02
 46         5.6871684533e-04
 47        -4.6219461631e-04
 48        -1.7676802782e-04
 49         5.0928693031e-03
 50        -2.3884507553e-03
 51        -1.0189810104e-03
 52        -1.6300955621e-03
 53        -5.1196638025e-04
 54         3.4201648282e-05
 55        -2.9585166507e-04
 56        -2.7781262005e-05
 57         7.2353235658e-04
 58         1.3057591428e-03
 59        -4.9682072246e-03
 60         2.6714240550e-04
 61        -2.0999981581e-04
 62        -3.4243416975e-05
 63         3.2732225401e-03
 64        -2.7383052375e-04
 65        -6.9471790768e-04
 66         6.9728921834e-04
 67         4.3178808251e-04
 68        -1.5165339437e-05
 69        -7.6673488675e-04
 70         2.0296586385e-04
 71         5.2789110775e-04
 72        -4.4184957333e-04
 73        -6.2529465883e-04
 74        -2.6632757579e-05
 75         1.1851399699e-04
 76        -5.3557594082e-05
 77         1.7456528832e-04
 78        -2.5895214886e-05
 79        -5.4657440836e-05
 80         3.0926110418e-05
 81         4.7795408013e-06
 82         9.3519027938e-04
 83         1.1086102804e-05
 84         6.3999941991e-05
 85        -2.9467838294e-05
 86        -2.1429687623e-03
 87         2.3243551479e-03
 88        -1.5331321368e-03
 89        -1.5843900344e-03
 90         2.6665083393e-04
 91        -1.4300974985e-04
 92        -2.7256105451e-04
 93         3.0150406323e-04
 94         2.9340505842e-04
 95        -7.3624829554e-05
 96        -5.5661891872e-05
 97         5.4929630341e-04
 98         1.7162660427e-04
 99         1.3076817112e-04
100        -3.2261037937e-05
 Sym= A
 Ene=        -1.0205906826e+01
 Spin= Alpha
 Occup=         2.0000000000e+00
  1         2.1794424196e-02
  2        -1.1359232878e-03
  3         4.7985175442e-03
  4         1.3307501972e-03
  5         3.3914630754e-04
  6         1.6752935146e-04
  7        -2.0858169982e-03
  8        -1.8081742202e-03
  9         3.8209561182e-04
 10         7.6138064697e-04
 11        -5.4985993547e-04
 12        -3.0895192620e-05
 13        -1.0645568129e-03
 14        -4.0255502781e-04
 15         1.0061977307e+00
 16         1.6276733915e-02
 17        -1.9216625069e-02
 18        -1.2498263359e-04
 19         2.1681247011e-04
 20        -2.3910632442e-04
 21        -1.7183478119e-03
 22         3.1879685871e-03
 23        -1.7675282452e-03
 24        -7.6836221587e-04
 25         6.9456519057e-04
 26        -6.4292291680e-04
 27         2.2806400345e-04
 28        -3.7582004091e-05
 29         5.6560557190e-03
 30        -4.3676245835e-04
 31         1.0595678034e-03
 32        -4.6355018720e-04
 33        -6.2688815220e-04
 34         1.4489228376e-04
 35         7.4056705989e-04
 36         3.8808413333e-03
 37         2.8388218058e-04
 38         7.9798390192e-04
 39         4.3810908578e-05
 40         5.8797417526e-04
 41         1.0937247929e-03
 42        -9.5580759261e-04
 43        -3.6034792252e-04
 44        -7.0518587013e-04
 45         4.1582140711e-03
 46        -1.0462564899e-04
 47        -1.6324018869e-04
 48         1.2881383421e-04
 49        -6.2176120902e-04
 50         2.8080044398e-03
 51        -2.7281950931e-04
 52        -4.3181703420e-04
 53        -3.1752822183e-04
 54         5.9844438924e-05
 55         4.0637719193e-04
 56        -3.0765204347e-04
 57         9.0464638616e-05
 58         1.3303041406e-04
 59        -1.2340383391e-03
 60         1.6394666759e-04
 61        -3.9960357179e-05
 62        -2.6598697087e-05
 63         1.3191620122e-04
 64        -7.0004545900e-04
 65         9.3254264293e-05
 66         8.3707631916e-05
 67         2.4639918850e-05
 68         2.0203343966e-05
 69        -1.3953405888e-05
 70         1.8509919580e-05
 71         2.9643427759e-04
 72         6.1031074405e-04
 73        -2.7561682930e-04
 74        -8.1654299142e-05
 75        -1.5992501383e-05
 76        -5.0207905943e-05
 77         9.0009428443e-04
 78         1.4462189244e-04
 79        -1.1594444981e-04
 80         7.6936731636e-05
 81        -2.5724645864e-04
 82        -2.0926656870e-04
 83         3.9394543130e-05
 84         2.4728518504e-04
 85        -1.1595925827e-04
 86         9.5200723775e-05
 87         8.0301846293e-04
 88         1.7931326321e-04
 89        -5.8828190956e-05
 90         2.0685586206e-06
 91        -2.9569387999e-04
 92         3.9971958325e-04
 93        -6.9118057643e-05
 94        -3.8377105706e-04
 95        -5.7909915255e-05
 96        -2.2986263666e-03
 97         1.1956310423e-03
 98        -1.1601926834e-03
 99         1.5204588887e-03
100        -9.2418846542e-04
 Sym= A
 Ene=        -1.0190168991e+01
 Spin= Alpha
 Occup=         2.0000000000e+00
  1         1.0061965550e+00
  2         1.6376800465e-02
  3        -1.5209585686e-02
  4         2.7938449364e-04
  5        -4.0145482893e-05
  6         3.9517356067e-05
  7         2.1787957242e-03
  8         7.0953791074e-04
  9         7.3409604093e-04
 10        -1.0432478564e-03
 11         7.5329217582e-04
 12        -1.1754477196e-03
 13         6.6080073415e-05
 14         3.3576968518e-04
 15        -2.3024360843e-02
 16        -1.4512734337e-03
 17         9.3810235099e-04
 18        -1.3474458427e-03
 19        -3.3596031629e-04
 20        -2.7735935926e-04
 21         2.8822757554e-03
 22         2.5076993371e-03
 23        -5.1289349239e-05
 24         1.0067352580e-03
 25        -5.8422899971e-04
 26         1.8493205484e-04
 27        -9.9907294238e-04
 28        -7.7800606023e-04
 29        -1.1004380438e-03
 30        -5.2120021384e-04
 31         3.5313316421e-03
 32        -8.4414956231e-05
 33         5.5091640967e-05
 34        -6.7324522777e-05
 35         1.9524079833e-03
 36         2.4688438406e-03
 37        -5.0732046069e-04
 38        -3.7486321525e-04
 39         7.5072921488e-05
 40        -2.4737336599e-04
 41        -3.3819664972e-04
 42         3.2661582367e-05
 43         1.0476203336e-05
 44        -2.0708540419e-04
 45        -6.5452592624e-04
 46         3.6631193491e-07
 47        -1.3499162203e-04
 48        -5.2363884770e-05
 49        -1.3156743780e-03
 50        -1.5623108579e-04
 51         3.0369212548e-04
 52         5.9258354367e-05
 53         9.9031116812e-05
 54        -8.9558894577e-05
 55        -4.7339989447e-05
 56         1.0664239720e-04
 57         1.0646895184e-05
 58         3.4377360122e-05
 59         4.0797149050e-04
 60         1.1922251172e-04
 61         6.5756573175e-05
 62        -3.9663562376e-05
 63        -6.6701124365e-04
 64        -1.7012045328e-04
 65         1.0604736028e-04
 66        -2.9829233730e-05
 67        -3.4523793585e-05
 68        -2.8230626580e-05
 69         7.9818389255e-05
 70         5.3404210122e-05
 71         1.6412091373e-04
 72         1.2844881266e-03
 73        -1.2024393238e-04
 74         4.1864426551e-04
 75         9.0769984252e-05
 76        -2.3145972986e-03
 77         1.9023964614e-03
 78         7.4266748931e-04
 79         2.0247147396e-03
 80        -6.9298622063e-04
 81        -2.1439890130e-03
 82         1.4956605711e-03
 83         1.2196029062e-03
 84        -1.4846232929e-03
 85         1.2296546926e-03
 86        -8.0614428062e-05
 87        -3.1061234345e-05
 88         3.9054218944e-05
 89         2.0507027035e-05
 90        -1.9386240783e-05
 91         1.0931859935e-04
 92         5.8310518162e-04
 93         1.1192409725e-05
 94        -1.3193754519e-04
 95         4.5002936342e-05
 96         7.7332260514e-05
 97         2.4096777091e-04
 98         1.8925121742e-05
 99        -3.1687340956e-04
100         1.0416737670e-04
 Sym= A
 Ene=        -1.0182572586e+01
 Spin= Alpha
 Occup=         2.0000000000e+00
  1         3.7974586142e-04
  2        -4.5292407596e-04
  3         2.8521213849e-03
  4         7.3536421972e-05
  5         1.0486049996e-04
  6        -8.5480289921e-05
  7        -2.1144963582e-03
  8        -4.3535255525e-04
  9        -5.0299009468e-05
 10        -2.5293545963e-04
 11         5.2447686605e-04
 12        -3.0789526061e-04
 13         2.7480007867e-04
 14        -4.7895498921e-04
 15        -6.0384666532e-03
 16        -6.8744886635e-04
 17         2.9836012396e-03
 18         2.1245205598e-04
 19         6.9890965798e-04
 20        -1.7756325557e-04
 21        -2.1258209164e-03
 22        -3.8631184469e-03
 23        -5.0997779322e-05
 24         9.0432565503e-04
 25         4.9458552984e-04
 26         3.6474925400e-04
 27         5.5871210887e-04
 28        -1.3098517919e-03
 29         1.0066468864e+00
 30         1.6748753347e-02
 31        -2.1865885159e-02
 32        -2.2702832061e-04
 33        -1.5808534374e-04
 34        -1.2405266372e-04
 35        -5.1377478542e-03
 36        -2.5885224545e-04
 37         1.5887397640e-03
 38        -1.0818621050e-03
 39        -3.7678393576e-04
 40        -6.5143572766e-06
 41         2.9194393818e-04
 42        -2.1765148215e-04
 43        -5.8756943658e-03
 44        -1.5971374286e-03
 45         6.7455382666e-03
 46         6.4068245720e-04
 47        -1.2367651129e-03
 48        -9.1978018293e-05
 49         3.0127038388e-04
 50         4.1889353142e-03
 51        -3.5064945752e-04
 52         8.4322080782e-04
 53         1.5981730825e-04
 54        -2.0653606939e-04
 55         6.9970675771e-04
 56         1.0175507266e-03
 57         3.4611248880e-05
 58         4.9181159036e-05
 59        -9.6063975754e-04
 60         2.7398375403e-05
 61        -5.8504020001e-05
 62        -2.1568931878e-06
 63        -1.0696019981e-04
 64        -7.0917137944e-04
 65         7.4094056878e-05
 66        -5.7528088843e-05
 67        -4.1733004647e-05
 68        -9.3871448275e-06
 69         9.7599587136e-05
 70         8.2009912672e-05
 71         2.7276261797e-04
 72         3.6465677151e-05
 73        -1.3569367944e-04
 74        -1.6274416987e-04
 75         2.5165193762e-05
 76         1.0960963534e-04
 77         5.1440112456e-04
 78         1.4150332303e-04
 79        -1.4505232224e-04
 80         5.1034806732e-05
 81        -7.0650881206e-04
 82         5.0643155705e-04
 83         1.9409488740e-04
 84        -1.2008641848e-04
 85         1.2234027280e-04
 86         1.4239878568e-04
 87         1.2067005904e-03
 88         2.8337645550e-04
 89        -2.1581990964e-05
 90        -1.7899458513e-05
 91        -2.3837425166e-03
 92         8.3703479615e-04
 93        -2.1212209417e-03
 94        -5.7110946167e-05
 95         2.5883746354e-04
 96        -3.3085953636e-04
 97         6.8971771778e-04
 98         2.0730342076e-04
 99         2.8807487827e-04
100         7.3402276282e-05
 Sym= A
 Ene=        -1.0657242038e+00
 Spin= Alpha
 Occup=         2.0000000000e+00
  1         1.4460851156e-04
  2         8.3405481108e-03
  3        -4.4031551736e-03
  4        -1.8748894108e-03
  5        -5.0402079225e-03
  6        -6.7171488301e-04
  7         2.5855290057e-03
  8         5.1778418226e-03
  9        -1.9101830777e-03
 10        -2.5708188145e-04
 11        -5.6898071626e-04
 12         7.0661386890e-04
 13        -8.2186352483e-04
 14         9.7989678091e-04
 15        -7.8419829669e-05
 16         1.3046942913e-02
 17         1.8745445083e-03
 18         1.5151352606e-03
 19        -8.5961018844e-03
 20         9.7484919180e-04
 21         5.9188096733e-03
 22         3.2524730620e-03
 23         1.1852033203e-04
 24        -1.3790809040e-03
 25        -1.6251516305e-04
 26        -4.2772112686e-04
 27        -1.3121463242e-03
 28         4.4645125266e-04
 29        -1.3080368351e-03
 30         3.4922166247e-02
 31        -4.6397283282e-03
 32         2.1090317310e-02
 33        -1.7959342511e-02
 34        -4.2785249053e-03
 35         5.3517376928e-03
 36         1.5187789751e-02
 37        -2.0262000573e-03
 38        -2.2155400691e-03
 39        -1.1149408527e-03
 40         1.5486487691e-03
 41         2.2639823433e-03
 42        -8.0625502037e-03
 43        -1.2692525066e-02
 44         1.5387540457e-01
 45         8.5298700818e-02
 46         1.2594360773e-01
 47        -5.9879095505e-03
 48        -2.7167499068e-02
 49         4.8699463488e-03
 50         2.4097908142e-02
 51        -1.3200098336e-03
 52        -1.1081428007e-02
 53        -1.0809973156e-02
 54         9.6428471726e-04
 55         2.8368976212e-02
 56        -5.0125709763e-03
 57        -6.7045314947e-03
 58         4.2404490995e-01
 59         3.7237675859e-01
 60        -7.2922951829e-02
 61         9.0739785490e-02
 62         8.4104017181e-03
 63        -3.1083650556e-02
 64        -1.7760943154e-03
 65         6.8021344317e-03
 66        -6.3379328541e-03
 67        -3.3506776123e-03
 68        -4.2043699155e-04
 69         3.9231976781e-03
 70        -1.8608737372e-03
 71         1.7212337010e-01
 72         4.8964918341e-03
 73        -1.8826681298e-02
 74        -2.9866410672e-02
 75         7.2124282453e-03
 76         4.3925615804e-06
 77        -3.9275414131e-03
 78         5.9240501990e-05
 79         1.1475643707e-04
 80        -1.6442970879e-04
 81         7.3858409498e-03
 82         4.6573500832e-03
 83        -1.1406929334e-03
 84        -6.5897718729e-04
 85        -9.3354028925e-04
 86         3.4174561064e-02
 87         5.3314052370e-03
 88         8.2943825872e-03
 89         4.4511680538e-03
 90        -1.5291439567e-03
 91         5.0084455124e-03
 92         2.0032917942e-03
 93         3.9655614827e-04
 94        -2.3029912036e-03
 95         1.1826581418e-05
 96         1.6184568958e-03
 97        -1.1883915762e-03
 98        -3.0128554375e-04
 99        -4.4432723246e-04
100        -8.4930848004e-05
 Sym= A
 Ene=        -8.0201396711e-01
 Spin= Alpha
 Occup=         2.0000000000e+00
  1         1.4778688403e-02
  2        -1.9183140456e-01
  3        -1.0379142835e-01
  4         8.2964075795e-02
  5         2.9060815838e-02
  6         1.3878987966e-02
  7         8.6547529929e-03
  8        -2.9460094663e-03
  9         8.2566693290e-03
 10         4.8050667965e-03
 11        -2.2879908776e-03
 12        -3.3318276546e-03
 13        -7.8069385662e-03
 14        -5.9896538271e-03
 15         1.9422328509e-02
 16        -2.7767823397e-01
 17        -1.7813416865e-01
 18        -3.7801092319e-02
 19         4.0192299010e-02
 20        -1.9307200397e-02
 21        -1.8739867880e-02
 22         2.0963613312e-02
 23        -1.3765083863e-02
 24         1.0432159957e-02
 25        -8.6725348839e-04
 26         1.3261077998e-03
 27        -1.5098154030e-03
 28        -1.1008793208e-02
 29         1.8199416187e-02
 30        -2.4133588450e-01
 31        -1.4224060910e-01
 32        -5.4693271625e-02
 33        -1.5434497156e-02
 34         1.5516074901e-02
 35        -1.9041039962e-02
 36        -1.1674189245e-02
 37         9.4800926101e-03
 38         8.6475867113e-03
 39         1.7536383065e-03
 40         2.6210228408e-03
 41         9.4954307730e-03
 42        -5.2705079656e-03
 43         5.5166088489e-03
 44        -1.2482278439e-01
 45        -6.7027157405e-02
 46         6.0849771087e-02
 47        -8.5637629685e-02
 48        -9.9834628775e-03
 49         2.3213929671e-02
 50        -1.2703644831e-02
 51        -6.6163609817e-03
 52         3.3845522628e-03
 53        -1.6632034724e-03
 54        -4.9208857253e-04
 55         1.2080184456e-02
 56         4.1251908205e-03
 57         1.1056255964e-03
 58         8.7880991957e-02
 59         8.0888768107e-02
 60         2.6846218226e-02
 61         2.4116961275e-03
 62        -7.5580574898e-03
 63         1.6352112693e-02
 64        -7.8995417518e-03
 65        -3.3389826568e-03
 66         7.9941371332e-04
 67         3.9325694469e-04
 68        -7.0766782061e-04
 69        -1.0677611610e-03
 70         2.9235514461e-03
 71         3.4057741812e-02
 72         3.7352819992e-03
 73        -1.9673191686e-03
 74        -9.1275446829e-03
 75         3.4619412421e-04
 76        -5.9782320875e-02
 77        -5.6674223020e-04
 78         5.8497143004e-03
 79         8.8417305608e-03
 80        -2.1254734905e-03
 81        -6.9110230214e-02
 82        -4.6717891634e-03
 83         8.1628671877e-03
 84        -5.5168211469e-03
 85         5.8360869813e-03
 86        -3.3376069669e-02
 87         9.9511266779e-04
 88        -5.3440593355e-04
 89        -5.8827350012e-03
 90         2.3523541576e-04
 91        -8.1360588545e-02
 92        -8.4768343577e-03
 93        -1.3095375096e-02
 94        -9.2166829972e-04
 95         1.9997284993e-03
 96        -9.5392602483e-02
 97        -1.2299351630e-02
 98        -8.5160225327e-03
 99         1.0824617734e-02
100        -6.2774935623e-03
 Sym= A
 Ene=        -7.3149659568e-01
 Spin= Alpha
 Occup=         2.0000000000e+00
  1         1.6384707995e-02
  2        -2.2736280544e-01
  3        -1.2673745662e-01
  4         5.4543932394e-02
  5         8.8031218504e-03
  6         1.3824304121e-02
  7         2.8538857049e-03
  8         1.1703217871e-03
  9         2.8470946580e-03
 10         3.0992509286e-03
 11        -2.5897393550e-03
 12        -2.2551163931e-03
 13        -5.5010163246e-03
 14         3.5713270791e-05
 15         8.9100357513e-03
 16        -1.3501915497e-01
 17        -1.0124357912e-01
 18        -1.0950787588e-01
 19        -7.6883167423e-02
 20        -6.9036234239e-03
 21        -4.7782241038e-02
 22        -1.2773359764e-02
 23        -6.5756967874e-03
 24         2.3601842205e-03
 25        -4.1870038939e-03
 26        -2.6174673482e-03
 27        -1.4511445357e-02
 28         2.9804418394e-04
 29        -1.3329231893e-02
 30         1.9825859851e-01
 31         1.2941571122e-01
 32         1.0094161129e-02
 33        -1.1990697025e-01
 34        -4.5843323594e-03
 35         1.8570885268e-02
 36        -3.3883512458e-02
 37        -7.9168996502e-05
 38        -3.3605764736e-03
 39         1.8586078745e-04
 40         1.9792959727e-03
 41        -6.8058208318e-03
 42        -1.2133845640e-02
 43        -1.0021798367e-02
 44         2.5156374779e-01
 45         1.3987347858e-01
 46        -7.3178269468e-02
 47         5.9211996630e-02
 48         1.1376329532e-02
 49        -2.2227894412e-02
 50         9.9019234134e-03
 51         2.5177903257e-03