[Molden Format]
[Atoms] (AU)
C    1    6           1.6655002903         2.8126527852         0.2054815945
C    2    6          -0.8352039224         2.3468057967        -0.0826525257
C    3    6          -2.1197135655        -0.0522224578         0.3878678312
C    4    6          -0.8605771428        -2.2630279619         0.0432860043
O    5    8           1.6316553143        -2.4391220531        -0.3749670413
H    6    1           2.2241534296        -0.7229681604        -0.6247190475
H    7    1           2.6038912678         4.3492583374        -0.7949760581
H    8    1           2.8522225212         1.6591808713         1.4383198703
H    9    1          -1.8017965868        -4.1057657638        -0.1273519752
H   10    1          -4.1819861615        -0.1159847274         0.4981654570
H   11    1          -1.9924240892         3.7814171229        -1.0346187288
[GTO]
  1 0
 s    8  1.00
     6665.0000000000         0.0006920000
     1000.0000000000         0.0053290000
      228.0000000000         0.0270770000
       64.7100000000         0.1017180000
       21.0600000000         0.2747400000
        7.4950000000         0.4485640000
        2.7970000000         0.2850740000
        0.5215000000         0.0152040000
 s    8  1.00
     6665.0000000000        -0.0001460000
     1000.0000000000        -0.0011540000
      228.0000000000        -0.0057250000
       64.7100000000        -0.0233120000
       21.0600000000        -0.0639550000
        7.4950000000        -0.1499810000
        2.7970000000        -0.1272620000
        0.5215000000         0.5445290000
 s    1  1.00
        0.1596000000         1.0000000000
 p    3  1.00
        9.4390000000         0.0381090000
        2.0020000000         0.2094800000
        0.5456000000         0.5085570000
 p    1  1.00
        0.1517000000         1.0000000000
 d    1  1.00
        0.5500000000         1.0000000000

  2 0
 s    8  1.00
     6665.0000000000         0.0006920000
     1000.0000000000         0.0053290000
      228.0000000000         0.0270770000
       64.7100000000         0.1017180000
       21.0600000000         0.2747400000
        7.4950000000         0.4485640000
        2.7970000000         0.2850740000
        0.5215000000         0.0152040000
 s    8  1.00
     6665.0000000000        -0.0001460000
     1000.0000000000        -0.0011540000
      228.0000000000        -0.0057250000
       64.7100000000        -0.0233120000
       21.0600000000        -0.0639550000
        7.4950000000        -0.1499810000
        2.7970000000        -0.1272620000
        0.5215000000         0.5445290000
 s    1  1.00
        0.1596000000         1.0000000000
 p    3  1.00
        9.4390000000         0.0381090000
        2.0020000000         0.2094800000
        0.5456000000         0.5085570000
 p    1  1.00
        0.1517000000         1.0000000000
 d    1  1.00
        0.5500000000         1.0000000000

  3 0
 s    8  1.00
     6665.0000000000         0.0006920000
     1000.0000000000         0.0053290000
      228.0000000000         0.0270770000
       64.7100000000         0.1017180000
       21.0600000000         0.2747400000
        7.4950000000         0.4485640000
        2.7970000000         0.2850740000
        0.5215000000         0.0152040000
 s    8  1.00
     6665.0000000000        -0.0001460000
     1000.0000000000        -0.0011540000
      228.0000000000        -0.0057250000
       64.7100000000        -0.0233120000
       21.0600000000        -0.0639550000
        7.4950000000        -0.1499810000
        2.7970000000        -0.1272620000
        0.5215000000         0.5445290000
 s    1  1.00
        0.1596000000         1.0000000000
 p    3  1.00
        9.4390000000         0.0381090000
        2.0020000000         0.2094800000
        0.5456000000         0.5085570000
 p    1  1.00
        0.1517000000         1.0000000000
 d    1  1.00
        0.5500000000         1.0000000000

  4 0
 s    8  1.00
     6665.0000000000         0.0006920000
     1000.0000000000         0.0053290000
      228.0000000000         0.0270770000
       64.7100000000         0.1017180000
       21.0600000000         0.2747400000
        7.4950000000         0.4485640000
        2.7970000000         0.2850740000
        0.5215000000         0.0152040000
 s    8  1.00
     6665.0000000000        -0.0001460000
     1000.0000000000        -0.0011540000
      228.0000000000        -0.0057250000
       64.7100000000        -0.0233120000
       21.0600000000        -0.0639550000
        7.4950000000        -0.1499810000
        2.7970000000        -0.1272620000
        0.5215000000         0.5445290000
 s    1  1.00
        0.1596000000         1.0000000000
 p    3  1.00
        9.4390000000         0.0381090000
        2.0020000000         0.2094800000
        0.5456000000         0.5085570000
 p    1  1.00
        0.1517000000         1.0000000000
 d    1  1.00
        0.5500000000         1.0000000000

  5 0
 s    8  1.00
    11720.0000000000         0.0007100000
     1759.0000000000         0.0054700000
      400.8000000000         0.0278370000
      113.7000000000         0.1048000000
       37.0300000000         0.2830620000
       13.2700000000         0.4487190000
        5.0250000000         0.2709520000
        1.0130000000         0.0154580000
 s    8  1.00
    11720.0000000000        -0.0001600000
     1759.0000000000        -0.0012630000
      400.8000000000        -0.0062670000
      113.7000000000        -0.0257160000
       37.0300000000        -0.0709240000
       13.2700000000        -0.1654110000
        5.0250000000        -0.1169550000
        1.0130000000         0.5573680000
 s    1  1.00
        0.3023000000         1.0000000000
 p    3  1.00
       17.7000000000         0.0430180000
        3.8540000000         0.2289130000
        1.0460000000         0.5087280000
 p    1  1.00
        0.2753000000         1.0000000000
 d    1  1.00
        1.1850000000         1.0000000000

  6 0
 s    3  1.00
       13.0100000000         0.0196850000
        1.9620000000         0.1379770000
        0.4446000000         0.4781480000
 s    1  1.00
        0.1220000000         1.0000000000
 p    1  1.00
        0.7270000000         1.0000000000

  7 0
 s    3  1.00
       13.0100000000         0.0196850000
        1.9620000000         0.1379770000
        0.4446000000         0.4781480000
 s    1  1.00
        0.1220000000         1.0000000000
 p    1  1.00
        0.7270000000         1.0000000000

  8 0
 s    3  1.00
       13.0100000000         0.0196850000
        1.9620000000         0.1379770000
        0.4446000000         0.4781480000
 s    1  1.00
        0.1220000000         1.0000000000
 p    1  1.00
        0.7270000000         1.0000000000

  9 0
 s    3  1.00
       13.0100000000         0.0196850000
        1.9620000000         0.1379770000
        0.4446000000         0.4781480000
 s    1  1.00
        0.1220000000         1.0000000000
 p    1  1.00
        0.7270000000         1.0000000000

  10 0
 s    3  1.00
       13.0100000000         0.0196850000
        1.9620000000         0.1379770000
        0.4446000000         0.4781480000
 s    1  1.00
        0.1220000000         1.0000000000
 p    1  1.00
        0.7270000000         1.0000000000

  11 0
 s    3  1.00
       13.0100000000         0.0196850000
        1.9620000000         0.1379770000
        0.4446000000         0.4781480000
 s    1  1.00
        0.1220000000         1.0000000000
 p    1  1.00
        0.7270000000         1.0000000000

[5D7F]
[9G]

[MO]
 Sym= A
 Ene=        -1.9169672634e+01
 Spin= Alpha
 Occup=         2.0000000000e+00
  1        -1.5177851259e-04
  2        -2.6218123744e-04
  3         1.7155849426e-03
  4        -9.5299219285e-05
  5         3.2810087754e-05
  6         2.1966489986e-05
  7        -2.0231023016e-04
  8        -1.2095013235e-03
  9         9.8896418091e-05
 10        -7.5013334840e-05
 11        -3.6040711558e-05
 12         5.7313362084e-05
 13        -1.3201517561e-04
 14         5.9955448995e-05
 15         1.8728994125e-04
 16         3.2917874224e-04
 17        -4.8719586375e-03
 18         3.4525516851e-05
 19         7.1458482592e-06
 20         8.7687849864e-05
 21         3.1156121525e-05
 22         2.5299813405e-03
 23        -9.2635837024e-04
 24         6.2409391209e-05
 25        -1.0584301771e-04
 26         1.0225792958e-04
 27        -1.2081565666e-06
 28         2.9981040660e-05
 29        -1.5623850283e-04
 30        -2.1603613869e-04
 31         4.6076515529e-03
 32         9.2665547806e-05
 33        -2.6084672272e-04
 34        -3.9368176373e-05
 35         4.3335377089e-03
 36         2.5529268991e-03
 37        -6.6989447089e-04
 38        -1.3222014792e-04
 39        -1.4378774084e-04
 40        -1.8889727691e-05
 41         4.1975842564e-04
 42        -3.5857082507e-04
 43        -1.9905010076e-04
 44        -3.4717525188e-04
 45        -5.9823028820e-03
 46        -3.2270280742e-04
 47         1.6663481232e-04
 48         1.1972336740e-04
 49        -5.2468644901e-03
 50        -1.9185104426e-03
 51         6.7075390125e-04
 52         3.6781766700e-04
 53        -3.7049918324e-05
 54        -1.3661860866e-04
 55         7.8652406922e-04
 56        -3.3543366999e-04
 57        -1.0040987079e+00
 58        -9.4065642823e-03
 59         1.3948233093e-02
 60         1.0392774133e-03
 61        -1.3543649856e-03
 62        -2.8884199184e-05
 63        -3.1957787483e-03
 64         1.1401553840e-03
 65         4.7338831103e-04
 66         3.3455212626e-05
 67         2.3663789870e-06
 68         8.4027804956e-05
 69         1.9388567832e-04
 70        -2.3538904490e-04
 71        -2.7020980871e-04
 72        -7.5018010083e-04
 73        -1.4195774323e-04
 74        -1.0760482559e-03
 75         1.2689937672e-05
 76        -4.7633849612e-05
 77         1.2959510531e-04
 78         3.3823000539e-05
 79         7.8979663825e-05
 80         5.3539920712e-06
 81        -1.8817987619e-04
 82        -1.7457297066e-04
 83        -3.6089356245e-06
 84        -2.0990103224e-05
 85        -1.7632241558e-05
 86         4.6712524166e-04
 87        -8.2242159233e-04
 88         6.1374828973e-04
 89         1.9978557991e-04
 90        -6.7821046346e-05
 91         1.4617194255e-04
 92         1.1510191348e-03
 93        -2.1510492418e-04
 94        -1.9132673015e-04
 95         4.8783588213e-05
 96         4.8277058117e-05
 97        -5.8696258762e-04
 98        -2.5385001713e-05
 99        -7.6832259603e-05
100         3.9155387749e-05
 Sym= A
 Ene=        -1.0253839278e+01
 Spin= Alpha
 Occup=         2.0000000000e+00
  1        -2.9553123999e-04
  2        -3.6666927434e-04
  3         1.0827367519e-03
  4         1.3817693956e-04
  5         9.1571111436e-05
  6         4.8875018024e-05
  7        -1.0958996910e-03
  8         3.7434100247e-04
  9        -4.1253911684e-04
 10        -9.8243543779e-05
 11        -1.9337307171e-05
 12        -3.7052580454e-05
 13         3.7717307906e-05
 14        -4.0976351915e-05
 15        -4.8508333848e-04
 16        -7.0402399307e-04
 17         4.4290417436e-03
 18        -9.2686937807e-05
 19         2.0061482887e-05
 20        -7.4178921642e-06
 21        -2.0914238642e-03
 22        -3.6102066711e-03
 23         7.4067511490e-04
 24        -3.2615751928e-04
 25        -1.0314257351e-04
 26        -8.7841667932e-05
 27        -2.8263394647e-05
 28         1.0583598804e-04
 29         4.3011827728e-03
 30        -9.3668694347e-04
 31        -7.5640878539e-05
 32        -6.0989884176e-04
 33         1.2835945425e-03
 34         1.8953518817e-04
 35        -1.8750463172e-03
 36        -5.4939702260e-03
 37         4.2927161939e-04
 38         1.0625146550e-03
 39         2.8215555323e-04
 40        -1.4377992823e-04
 41         3.8957468291e-04
 42         9.6424168228e-04
 43         1.0058866673e+00
 44         1.5244958462e-02
 45        -1.1659615286e-02
 46         6.8429312705e-04
 47        -3.6149657763e-04
 48        -2.8723010169e-04
 49         4.6273273594e-03
 50        -1.7651004902e-03
 51        -8.3703087196e-04
 52        -1.6177616417e-03
 53        -3.3785174022e-04
 54         4.4598138331e-04
 55        -2.8709980359e-04
 56         1.0036660056e-04
 57         6.9503872777e-04
 58         1.2631666429e-03
 59        -4.8579750061e-03
 60         3.0918460070e-04
 61        -1.7787253109e-04
 62        -4.2470795719e-05
 63         3.2158870443e-03
 64        -1.1007362490e-04
 65        -4.9692972691e-04
 66         7.2942025783e-04
 67         3.5030887355e-04
 68        -3.5260999770e-06
 69        -7.7951323501e-04
 70         6.4094078846e-05
 71         6.0585274898e-04
 72        -2.8842461817e-04
 73        -5.9137406167e-04
 74        -1.2945612476e-04
 75         9.0627445132e-05
 76        -5.4361728583e-05
 77         1.7626333087e-04
 78        -1.4604255956e-05
 79        -4.0887980022e-05
 80         2.0120471872e-05
 81        -1.5822888786e-05
 82         6.6266373918e-04
 83         2.4387122667e-05
 84         4.9315796331e-05
 85        -3.3372424909e-05
 86        -2.2379847850e-03
 87         2.2751895479e-03
 88        -1.4447524883e-03
 89        -1.7044557080e-03
 90        -9.9739939218e-05
 91        -1.0465815665e-04
 92        -2.8084072264e-04
 93         3.1676301685e-04
 94         2.8272926434e-04
 95        -3.6358746714e-05
 96        -8.3444084576e-05
 97         4.8108745260e-04
 98         1.4874446254e-04
 99         1.2291441742e-04
100        -3.9730438586e-05
 Sym= A
 Ene=        -1.0209688395e+01
 Spin= Alpha
 Occup=         2.0000000000e+00
  1         1.5464098648e-02
  2        -1.1280206176e-03
  3         4.9738214894e-03
  4         1.3234056216e-03
  5         2.3156902900e-04
  6         4.2749407547e-05
  7        -2.4971455744e-03
  8        -1.5054856523e-03
  9         4.4434259682e-04
 10         8.8276793046e-04
 11        -2.6860048944e-04
 12         2.7794060363e-05
 13        -1.1016136494e-03
 14        -3.1301767501e-04
 15         1.0063279755e+00
 16         1.6275592517e-02
 17        -1.9260264673e-02
 18        -7.3368362434e-05
 19         1.6790935436e-04
 20        -3.7627111724e-04
 21        -2.2356259996e-03
 22         3.0892184016e-03
 23        -1.3462751341e-03
 24        -7.0180997508e-04
 25         6.6469414823e-04
 26        -7.3539127054e-04
 27         2.7452271598e-04
 28        -1.3991594999e-04
 29         5.4308737938e-03
 30        -4.0561265407e-04
 31         1.2050753845e-03
 32        -4.3483835609e-04
 33        -6.3219193975e-04
 34         1.3423604126e-04
 35         7.5930962631e-04
 36         3.1516377171e-03
 37         3.0800253916e-04
 38         7.9300428876e-04
 39         8.0500566278e-05
 40         4.9743709377e-04
 41         9.4513655812e-04
 42        -9.4258278872e-04
 43        -3.9065624696e-04
 44        -7.5874183161e-04
 45         3.6489156374e-03
 46        -4.1202620057e-05
 47        -2.0967812440e-04
 48         1.0218000357e-04
 49        -5.8818380726e-04
 50         2.5537210948e-03
 51        -6.4501201388e-05
 52        -4.1036450437e-04
 53        -3.0816484997e-04
 54        -2.8090809735e-06
 55         2.9040488178e-04
 56        -1.0779999559e-04
 57         7.0815596194e-05
 58         1.0006893869e-04
 59        -1.1292632737e-03
 60         1.5721269533e-04
 61        -4.2481000221e-05
 62         8.5463460156e-07
 63         1.1492523437e-04
 64        -6.1940478500e-04
 65         4.2171623243e-05
 66         6.4821062206e-05
 67        -3.2783854453e-06
 68         2.1632688772e-05
 69         1.2664758348e-05
 70         3.0383549007e-05
 71         2.9513864795e-04
 72         5.7251159219e-04
 73        -3.3269820212e-04
 74        -8.0512963135e-05
 75        -3.9706451861e-05
 76        -1.9937545553e-05
 77         9.2577468784e-04
 78         1.4247457950e-04
 79        -1.1769273848e-04
 80         1.6650649187e-04
 81        -2.8640042872e-04
 82         8.6066169645e-05
 83         4.3737845656e-05
 84         1.8817016073e-04
 85        -1.7302205239e-04
 86         2.4871727580e-05
 87         7.0699615487e-04
 88         1.3759420876e-04
 89        -8.3379666911e-05
 90        -7.8195244382e-06
 91        -1.7816734857e-04
 92         3.3686131508e-04
 93        -1.9030309428e-05
 94        -3.5740158336e-04
 95        -4.1640726814e-05
 96        -2.3286302033e-03
 97         1.2181708547e-03
 98        -1.1102012685e-03
 99         1.5053052528e-03
100        -1.0418336528e-03
 Sym= A
 Ene=        -1.0188695446e+01
 Spin= Alpha
 Occup=         2.0000000000e+00
  1         1.0065654113e+00
  2         1.6854640674e-02
  3        -1.6570867899e-02
  4         3.3314528573e-04
  5        -2.3881336408e-04
  6        -1.0458180133e-04
  7         2.3383251266e-03
  8         1.7001461177e-03
  9         6.2418470904e-04
 10        -4.8254038073e-04
 11         3.4235883872e-04
 12        -1.5631206058e-03
 13         5.2214410536e-04
 14         3.9785581715e-04
 15        -1.6631675356e-02
 16        -1.3512984976e-03
 17         1.8864328814e-03
 18        -1.3300047855e-03
 19        -2.4809331496e-04
 20        -2.0009923528e-04
 21         3.0649172026e-03
 22         1.8579185372e-03
 23        -1.1294298534e-04
 24         9.2933510510e-04
 25        -4.1322161794e-04
 26         2.3308274815e-04
 27        -1.1753050773e-03
 28        -7.3281147449e-04
 29        -1.7007076781e-03
 30        -5.4740909651e-04
 31         3.2269159706e-03
 32        -1.2161959520e-04
 33         1.2543326258e-05
 34        -5.8675208375e-05
 35         1.8915941390e-03
 36         2.0943656592e-03
 37        -3.8022811947e-04
 38        -3.8096592351e-04
 39         7.0261639226e-05
 40        -1.9796486819e-04
 41        -3.3742263550e-04
 42        -2.0327667032e-05
 43         1.4151883915e-05
 44        -2.1509147777e-04
 45        -1.2646326867e-03
 46        -6.9724556588e-05
 47        -1.3702063596e-04
 48        -5.3904380965e-05
 49        -1.3691184320e-03
 50        -3.5694364224e-04
 51         2.7667786663e-04
 52         5.5307548600e-05
 53         1.0739624988e-04
 54        -8.3473133774e-05
 55        -1.0818616416e-04
 56         1.0993824915e-04
 57         1.6382684833e-05
 58         4.9127745835e-05
 59         4.3973106269e-04
 60         1.7024495151e-04
 61         9.6756856293e-05
 62        -5.8330333770e-05
 63        -9.5589171473e-04
 64        -1.3290330606e-04
 65         1.4922584242e-04
 66        -7.0092622105e-05
 67        -3.4934284789e-05
 68        -3.1690021285e-05
 69         4.7177029893e-05
 70         7.0259621901e-05
 71         4.1212163107e-04
 72         2.1038666691e-03
 73        -8.2204915370e-05
 74         6.5481414087e-04
 75         9.9489661816e-05
 76        -2.3411476716e-03
 77         1.7416278939e-03
 78         9.2971478009e-04
 79         1.6663044756e-03
 80        -1.2413613996e-03
 81        -1.8490519332e-03
 82         1.5876672320e-03
 83         1.1042091740e-03
 84        -1.3608506893e-03
 85         1.4165271143e-03
 86        -6.8534554254e-05
 87        -4.6347967240e-05
 88         4.9447459292e-05
 89         1.0112583442e-05
 90        -3.0550493435e-05
 91         1.1065339952e-04
 92         6.0545069882e-04
 93         7.1098035438e-06
 94        -1.1782896538e-04
 95         5.0539082449e-05
 96         1.1677648758e-05
 97         3.3300664251e-04
 98        -3.5039039098e-05
 99        -2.8630700644e-04
100         7.4136970771e-05
 Sym= A
 Ene=        -1.0184677193e+01
 Spin= Alpha
 Occup=         2.0000000000e+00
  1         1.0259763141e-03
  2        -4.3320051233e-04
  3         2.3652068550e-03
  4         7.0335805543e-05
  5         1.1694352820e-04
  6        -5.9573864636e-05
  7        -1.9096992257e-03
  8        -3.6108049495e-04
  9         3.2854994718e-04
 10        -2.8595177817e-04
 11         4.3786791476e-04
 12        -2.5188920819e-04
 13         1.8916127082e-04
 14        -4.3387269571e-04
 15        -5.7941337523e-03
 16        -6.5798166942e-04
 17         3.3366738510e-03
 18         2.2198354237e-04
 19         6.7051408140e-04
 20        -1.5186321225e-04
 21        -2.1057892487e-03
 22        -3.4290274985e-03
 23        -8.7582717467e-05
 24         8.5743836515e-04
 25         4.9812379142e-04
 26         4.2331938211e-04
 27         5.6634469640e-04
 28        -1.1760492016e-03
 29         1.0066641876e+00
 30         1.6759579340e-02
 31        -2.1947321145e-02
 32        -2.0726176871e-04
 33        -1.7219831923e-04
 34        -3.9403851727e-04
 35        -5.0301142224e-03
 36        -1.4332889296e-04
 37         1.9113983536e-03
 38        -1.0885539883e-03
 39        -1.5646097464e-04
 40         5.5518354961e-05
 41         5.3944979680e-04
 42        -1.5934735801e-04
 43        -5.4437840967e-03
 44        -1.4833357227e-03
 45         6.8691723454e-03
 46         6.5149410357e-04
 47        -1.1037238520e-03
 48        -1.9324438238e-04
 49        -2.7063191796e-04
 50         4.0641184689e-03
 51        -1.3074298255e-05
 52         8.0730819304e-04
 53         2.6131039712e-04
 54        -3.9703221891e-04
 55         6.7411915300e-04
 56         1.0096024592e-03
 57         2.2546856269e-05
 58         2.4763277074e-05
 59        -9.4118816017e-04
 60         5.6132531760e-05
 61        -5.2859436243e-05
 62        -2.4213448376e-05
 63        -1.1207428216e-04
 64        -7.4248569097e-04
 65         8.0071867421e-05
 66        -5.6158849503e-05
 67        -1.5340980491e-05
 68         9.7906639051e-06
 69         7.7066009939e-05
 70         8.6210629836e-05
 71         2.7429587901e-04
 72         2.4898633246e-04
 73        -1.4684968476e-04
 74        -1.9372145508e-04
 75         4.3963213298e-05
 76         1.8025788575e-04
 77         5.5218700638e-04
 78         1.1409089603e-04
 79        -1.5773345677e-04
 80         4.4975856616e-05
 81        -6.4396764988e-04
 82         3.7705642922e-04
 83         1.4063784012e-04
 84        -6.0332052213e-05
 85         1.2932487528e-04
 86         1.2432000835e-04
 87         1.0647826145e-03
 88         3.3605624873e-04
 89        -1.0246264152e-05
 90         2.8940727236e-05
 91        -2.3790383786e-03
 92         9.4534439104e-04
 93        -2.1679884503e-03
 94        -1.2379742627e-04
 95        -5.2492460177e-05
 96        -3.5399842472e-04
 97         5.8996219921e-04
 98         2.1259359808e-04
 99         2.4014421599e-04
100         8.0649936507e-05
 Sym= A
 Ene=        -1.0698212713e+00
 Spin= Alpha
 Occup=         2.0000000000e+00
  1         3.5311174069e-04
  2         1.3767655827e-02
  3        -5.9572187541e-03
  4        -2.7063680065e-03
  5        -8.1713614637e-03
  6        -6.4280302882e-04
  7         3.1401733276e-03
  8         7.0469769751e-03
  9        -4.5053993850e-03
 10        -2.0623979733e-04
 11        -7.6457361490e-04
 12         7.1269439752e-04
 13        -6.1710658430e-04
 14         8.7878654815e-04
 15        -4.2336798549e-04
 16         1.6446376083e-02
 17         6.0580799938e-03
 18         3.2176560004e-03
 19        -1.0308339059e-02
 20         7.8353814962e-04
 21         6.0004870617e-03
 22         1.3603699346e-03
 23         8.4193384069e-04
 24        -1.5572327039e-03
 25        -2.2120279972e-04
 26        -5.9671787209e-04
 27        -1.0567462069e-03
 28        -6.2915552930e-06
 29        -1.5048285018e-03
 30         3.7280975563e-02
 31        -1.8217110870e-03
 32         2.3612180475e-02
 33        -1.7177849358e-02
 34        -5.8522463453e-03
 35         6.2280777691e-03
 36         1.2371389564e-02
 37        -1.2743711123e-03
 38        -2.3763627019e-03
 39        -1.8562374914e-03
 40         1.1345578194e-03
 41         2.6105401804e-03
 42        -7.6912359386e-03
 43        -1.2447712361e-02
 44         1.5855479022e-01
 45         8.2568822965e-02
 46         1.3052161099e-01
 47         6.7734650583e-03
 48        -2.2668804066e-02
 49         5.1882766568e-03
 50         2.3137432940e-02
 51         8.9792496887e-04
 52        -1.1804042819e-02
 53        -9.3467014699e-03
 54        -1.1302213226e-03
 55         2.9067762901e-02
 56         7.2698947424e-05
 57        -6.8851753990e-03
 58         4.2072185247e-01
 59         3.6489701119e-01
 60        -8.4761692625e-02
 61         8.3437479916e-02
 62         7.8159205277e-03
 63        -3.0931749733e-02
 64        -5.2115406608e-03
 65         5.1916719113e-03
 66        -6.5292620986e-03
 67        -2.7936793867e-03
 68        -7.2542056721e-04
 69         4.4621189737e-03
 70        -1.2751526497e-03
 71         1.7282048666e-01
 72         5.0274488954e-03
 73        -1.6071832920e-02
 74        -3.0917263147e-02
 75         6.3893185167e-03
 76         7.0715083962e-04
 77        -4.7348803580e-03
 78        -2.6386467104e-05
 79        -2.4424017109e-04
 80        -2.5361023272e-05
 81         1.0779733749e-02
 82         6.9516116887e-03
 83        -1.4585872823e-03
 84        -6.5093452981e-04
 85        -1.1813862119e-03
 86         3.4205329599e-02
 87         5.1303352929e-03
 88         7.9911431919e-03
 89         5.2143570227e-03
 90        -2.0556499630e-04
 91         5.2459740613e-03
 92         2.3907618133e-03
 93         5.7322308427e-04
 94        -2.0741190559e-03
 95        -1.6872628728e-04
 96         1.9919193227e-03
 97        -9.0497193465e-04
 98        -2.4674102043e-04
 99        -4.3212467693e-04
100        -1.1258920184e-04
 Sym= A
 Ene=        -8.0419021234e-01
 Spin= Alpha
 Occup=         2.0000000000e+00
  1         1.5186436920e-02
  2        -1.9253183905e-01
  3        -1.0569918913e-01
  4         8.5070469154e-02
  5         2.7157717000e-02
  6         8.8200476076e-03
  7         7.5818102892e-03
  8        -2.2141748968e-03
  9         8.0153565212e-03
 10         6.1044108852e-03
 11        -1.2934646262e-03
 12        -3.2858661263e-03
 13        -7.6674329983e-03
 14        -5.1588527656e-03
 15         1.9449733957e-02
 16        -2.8027435016e-01
 17        -1.8236763698e-01
 18        -3.9462479493e-02
 19         4.6075270245e-02
 20        -1.1936861885e-02
 21        -2.1043260476e-02
 22         2.2720003365e-02
 23        -1.1905763181e-02
 24         1.1044108844e-02
 25         3.3034719985e-04
 26         1.5983664298e-03
 27        -2.3365384042e-03
 28        -9.7618785968e-03
 29         1.7898546506e-02
 30        -2.3785388063e-01
 31        -1.4064955115e-01
 32        -5.8661852711e-02
 33        -1.9596031245e-02
 34         2.3057871436e-02
 35        -1.7857845660e-02
 36        -1.2483122931e-02
 37         9.2905891471e-03
 38         8.2448781512e-03
 39         2.7582464304e-03
 40         2.2286389452e-03
 41         8.4573758966e-03
 42        -5.6667672827e-03
 43         4.8475304912e-03
 44        -1.1357793719e-01
 45        -6.1051964829e-02
 46         6.9587335378e-02
 47        -8.4920981549e-02
 48        -1.3781685940e-02
 49         2.3803486146e-02
 50        -1.2082117939e-02
 51        -6.2746400980e-03
 52         3.0724758976e-03
 53        -1.3611610648e-03
 54        -1.5904042521e-03
 55         1.2894521909e-02
 56         4.7957022497e-03
 57         8.1568435334e-04
 58         9.7011884668e-02
 59         9.2629191563e-02
 60         1.8963281410e-02
 61        -1.6436434229e-03
 62        -6.0129375966e-03
 63         1.3705997119e-02
 64        -8.5821958821e-03
 65        -2.7232363301e-03
 66         7.6545942718e-04
 67         3.8295544270e-04
 68        -5.7848740851e-04
 69        -8.8538759948e-04
 70         2.4767422763e-03
 71         2.4214211124e-02
 72         3.6780036993e-03
 73        -1.1417892520e-04
 74        -1.1036199584e-02
 75        -4.9750773821e-04
 76        -5.9693677210e-02
 77         3.1517926959e-04
 78         6.5103143647e-03
 79         7.5810217533e-03
 80        -4.1274824242e-03
 81        -7.0213142288e-02
 82        -2.7553180422e-03
 83         7.8663005233e-03
 84        -5.1439074625e-03
 85         6.7323684852e-03
 86        -2.7403971942e-02
 87         1.1198942017e-03
 88         2.4246404672e-04
 89        -4.9839040280e-03
 90        -3.7846163627e-04
 91        -7.7574691799e-02
 92        -7.3751286917e-03
 93        -1.2695849095e-02
 94        -1.4439670350e-03
 95         9.7992305428e-04
 96        -9.5582640778e-02
 97        -1.2456620742e-02
 98        -8.3430168289e-03
 99         1.0780172872e-02
100        -6.4269663955e-03
 Sym= A
 Ene=        -7.3311676289e-01
 Spin= Alpha
 Occup=         2.0000000000e+00
  1         1.6079571897e-02
  2        -2.2743451161e-01
  3        -1.2289913061e-01
  4         4.8036641734e-02
  5         1.2307041459e-02
  6         1.0088489327e-02
  7        -6.2477728120e-04
  8         1.8132392335e-04
  9         3.6039554486e-03
 10         3.9416099742e-03
 11        -1.5284882538e-03
 12        -2.9089090657e-03
 13        -3.8885280771e-03
 14         1.1032910384e-03
 15         8.2124499320e-03
 16        -1.2098976979e-01
 17        -9.8937263502e-02
 18        -1.1486250217e-01
 19        -7.2316407867e-02
 20         1.1317141630e-03
 21        -5.1217076486e-02
 22        -9.9864977465e-03
 23        -5.2250026946e-03
 24         2.6021493138e-03
 25        -2.5407828273e-03
 26        -1.7676659248e-03
 27        -1.5673728631e-02
 28         2.2500932360e-03
 29        -1.3388879548e-02
 30         2.0186797811e-01
 31         1.3408063495e-01
 32         1.4842777006e-02
 33        -1.1135768117e-01
 34        -1.5091296676e-02
 35         2.0624978879e-02
 36        -3.0757085946e-02
 37        -2.0871579933e-03
 38        -3.2939760277e-03
 39        -6.1425172419e-04
 40         3.4018312071e-03
 41        -6.6041845091e-03
 42        -1.2405993995e-02
 43        -9.8235093985e-03
 44         2.5284445855e-01
 45         1.4287857105e-01
 46        -7.1205749307e-02
 47         5.2593823265e-02
 48         1.1743311882e-02
 49        -2.2443669018e-02
 50         7.7461516299e-03
 51         2.1233659719e-03