[Molden Format]
[Atoms] (AU)
C    1    6           1.6408949017         3.0052746380         0.3014669947
C    2    6          -0.7917456467         2.4108860406        -0.1721784400
C    3    6          -2.0445291125        -0.0097973036         0.2924110303
C    4    6          -0.8880550285        -2.2782831450         0.1038438774
O    5    8           1.5815281729        -2.6826416012        -0.4066422784
H    6    1           2.3535999132        -1.0365973037        -0.7107974400
H    7    1           2.4254065391         4.8282686758        -0.2623350436
H    8    1           2.9022519605         1.7548236800         1.3619314264
H    9    1          -1.9215899937        -4.0601049827         0.2713273937
H   10    1          -4.0836589319        -0.0129830795         0.6172095600
H   11    1          -1.9689070162         3.8565465577        -1.0811838172
[GTO]
  1 0
 s    8  1.00
     6665.0000000000         0.0006920000
     1000.0000000000         0.0053290000
      228.0000000000         0.0270770000
       64.7100000000         0.1017180000
       21.0600000000         0.2747400000
        7.4950000000         0.4485640000
        2.7970000000         0.2850740000
        0.5215000000         0.0152040000
 s    8  1.00
     6665.0000000000        -0.0001460000
     1000.0000000000        -0.0011540000
      228.0000000000        -0.0057250000
       64.7100000000        -0.0233120000
       21.0600000000        -0.0639550000
        7.4950000000        -0.1499810000
        2.7970000000        -0.1272620000
        0.5215000000         0.5445290000
 s    1  1.00
        0.1596000000         1.0000000000
 p    3  1.00
        9.4390000000         0.0381090000
        2.0020000000         0.2094800000
        0.5456000000         0.5085570000
 p    1  1.00
        0.1517000000         1.0000000000
 d    1  1.00
        0.5500000000         1.0000000000

  2 0
 s    8  1.00
     6665.0000000000         0.0006920000
     1000.0000000000         0.0053290000
      228.0000000000         0.0270770000
       64.7100000000         0.1017180000
       21.0600000000         0.2747400000
        7.4950000000         0.4485640000
        2.7970000000         0.2850740000
        0.5215000000         0.0152040000
 s    8  1.00
     6665.0000000000        -0.0001460000
     1000.0000000000        -0.0011540000
      228.0000000000        -0.0057250000
       64.7100000000        -0.0233120000
       21.0600000000        -0.0639550000
        7.4950000000        -0.1499810000
        2.7970000000        -0.1272620000
        0.5215000000         0.5445290000
 s    1  1.00
        0.1596000000         1.0000000000
 p    3  1.00
        9.4390000000         0.0381090000
        2.0020000000         0.2094800000
        0.5456000000         0.5085570000
 p    1  1.00
        0.1517000000         1.0000000000
 d    1  1.00
        0.5500000000         1.0000000000

  3 0
 s    8  1.00
     6665.0000000000         0.0006920000
     1000.0000000000         0.0053290000
      228.0000000000         0.0270770000
       64.7100000000         0.1017180000
       21.0600000000         0.2747400000
        7.4950000000         0.4485640000
        2.7970000000         0.2850740000
        0.5215000000         0.0152040000
 s    8  1.00
     6665.0000000000        -0.0001460000
     1000.0000000000        -0.0011540000
      228.0000000000        -0.0057250000
       64.7100000000        -0.0233120000
       21.0600000000        -0.0639550000
        7.4950000000        -0.1499810000
        2.7970000000        -0.1272620000
        0.5215000000         0.5445290000
 s    1  1.00
        0.1596000000         1.0000000000
 p    3  1.00
        9.4390000000         0.0381090000
        2.0020000000         0.2094800000
        0.5456000000         0.5085570000
 p    1  1.00
        0.1517000000         1.0000000000
 d    1  1.00
        0.5500000000         1.0000000000

  4 0
 s    8  1.00
     6665.0000000000         0.0006920000
     1000.0000000000         0.0053290000
      228.0000000000         0.0270770000
       64.7100000000         0.1017180000
       21.0600000000         0.2747400000
        7.4950000000         0.4485640000
        2.7970000000         0.2850740000
        0.5215000000         0.0152040000
 s    8  1.00
     6665.0000000000        -0.0001460000
     1000.0000000000        -0.0011540000
      228.0000000000        -0.0057250000
       64.7100000000        -0.0233120000
       21.0600000000        -0.0639550000
        7.4950000000        -0.1499810000
        2.7970000000        -0.1272620000
        0.5215000000         0.5445290000
 s    1  1.00
        0.1596000000         1.0000000000
 p    3  1.00
        9.4390000000         0.0381090000
        2.0020000000         0.2094800000
        0.5456000000         0.5085570000
 p    1  1.00
        0.1517000000         1.0000000000
 d    1  1.00
        0.5500000000         1.0000000000

  5 0
 s    8  1.00
    11720.0000000000         0.0007100000
     1759.0000000000         0.0054700000
      400.8000000000         0.0278370000
      113.7000000000         0.1048000000
       37.0300000000         0.2830620000
       13.2700000000         0.4487190000
        5.0250000000         0.2709520000
        1.0130000000         0.0154580000
 s    8  1.00
    11720.0000000000        -0.0001600000
     1759.0000000000        -0.0012630000
      400.8000000000        -0.0062670000
      113.7000000000        -0.0257160000
       37.0300000000        -0.0709240000
       13.2700000000        -0.1654110000
        5.0250000000        -0.1169550000
        1.0130000000         0.5573680000
 s    1  1.00
        0.3023000000         1.0000000000
 p    3  1.00
       17.7000000000         0.0430180000
        3.8540000000         0.2289130000
        1.0460000000         0.5087280000
 p    1  1.00
        0.2753000000         1.0000000000
 d    1  1.00
        1.1850000000         1.0000000000

  6 0
 s    3  1.00
       13.0100000000         0.0196850000
        1.9620000000         0.1379770000
        0.4446000000         0.4781480000
 s    1  1.00
        0.1220000000         1.0000000000
 p    1  1.00
        0.7270000000         1.0000000000

  7 0
 s    3  1.00
       13.0100000000         0.0196850000
        1.9620000000         0.1379770000
        0.4446000000         0.4781480000
 s    1  1.00
        0.1220000000         1.0000000000
 p    1  1.00
        0.7270000000         1.0000000000

  8 0
 s    3  1.00
       13.0100000000         0.0196850000
        1.9620000000         0.1379770000
        0.4446000000         0.4781480000
 s    1  1.00
        0.1220000000         1.0000000000
 p    1  1.00
        0.7270000000         1.0000000000

  9 0
 s    3  1.00
       13.0100000000         0.0196850000
        1.9620000000         0.1379770000
        0.4446000000         0.4781480000
 s    1  1.00
        0.1220000000         1.0000000000
 p    1  1.00
        0.7270000000         1.0000000000

  10 0
 s    3  1.00
       13.0100000000         0.0196850000
        1.9620000000         0.1379770000
        0.4446000000         0.4781480000
 s    1  1.00
        0.1220000000         1.0000000000
 p    1  1.00
        0.7270000000         1.0000000000

  11 0
 s    3  1.00
       13.0100000000         0.0196850000
        1.9620000000         0.1379770000
        0.4446000000         0.4781480000
 s    1  1.00
        0.1220000000         1.0000000000
 p    1  1.00
        0.7270000000         1.0000000000

[5D7F]
[9G]

[MO]
 Sym= A
 Ene=        -1.9174631831e+01
 Spin= Alpha
 Occup=         2.0000000000e+00
  1        -7.8200123004e-05
  2        -1.3462346546e-04
  3         1.2063069240e-03
  4        -1.0191461152e-04
  5         7.4835450548e-05
  6         2.3243200868e-05
  7        -2.3882665474e-04
  8        -1.3423101230e-03
  9         1.6113223047e-04
 10        -7.0717905076e-05
 11         1.1784627438e-05
 12         4.2497970348e-05
 13        -5.0548111830e-05
 14         7.5622626857e-05
 15         2.1066389127e-04
 16         3.6270019767e-04
 17        -5.5735713435e-03
 18        -6.0593001732e-06
 19         5.7913384316e-06
 20         6.5065655402e-05
 21         2.3823392409e-04
 22         2.9552854501e-03
 23        -8.9901480527e-04
 24         6.5997129156e-05
 25        -1.2667154974e-04
 26         1.0344507192e-04
 27        -5.9932904780e-06
 28         2.3339455287e-05
 29        -1.9228489262e-04
 30        -2.8086460289e-04
 31         4.7376706445e-03
 32         5.0047168443e-05
 33        -2.6523066668e-04
 34         6.4787753921e-06
 35         4.6498602516e-03
 36         3.1496781403e-03
 37        -1.0688580099e-03
 38        -1.5922267884e-04
 39        -1.4274548466e-04
 40         6.5632386346e-05
 41         3.9430136768e-04
 42        -3.9810644601e-04
 43        -1.9985895645e-04
 44        -3.6409333515e-04
 45        -5.6624299526e-03
 46        -3.2932921400e-04
 47         2.1899753657e-04
 48         9.8957128187e-05
 49        -5.8867476400e-03
 50        -1.4407838473e-03
 51         1.2116906666e-03
 52         4.0121865502e-04
 53         4.6737541700e-06
 54         7.1447735720e-05
 55         7.0819834832e-04
 56        -4.0331069881e-04
 57        -1.0040834809e+00
 58        -9.3585998569e-03
 59         1.4047408605e-02
 60         8.9350608379e-04
 61        -1.4560015052e-03
 62        -5.2222401901e-05
 63        -3.2387471971e-03
 64         1.4176863889e-03
 65         6.0536617283e-04
 66         2.1088482563e-05
 67         2.7178343809e-06
 68         8.5502350939e-05
 69         1.5103533641e-04
 70        -2.6387082435e-04
 71        -2.4972637864e-04
 72        -3.2097555472e-04
 73        -2.3123953963e-04
 74        -9.8478947416e-04
 75         6.5861207950e-05
 76         5.4201616031e-05
 77         2.9633264121e-04
 78         3.7140371792e-05
 79         6.2263077719e-05
 80         7.0779269320e-06
 81        -2.3106223233e-04
 82        -2.0243182544e-04
 83         3.2478132053e-06
 84        -2.4143138880e-05
 85        -1.2034114852e-05
 86         4.0029227332e-04
 87        -8.9374571933e-04
 88         6.3592752851e-04
 89         1.4261592573e-04
 90        -1.2679032799e-04
 91         1.6704990757e-04
 92         1.2557320141e-03
 93        -2.2665561649e-04
 94        -2.0881035101e-04
 95         6.3776131201e-05
 96         9.1036689922e-05
 97        -6.0885833807e-04
 98        -3.4862057500e-05
 99        -1.0842607325e-04
100         2.9221778866e-05
 Sym= A
 Ene=        -1.0250497497e+01
 Spin= Alpha
 Occup=         2.0000000000e+00
  1        -2.8064764659e-04
  2        -3.4449063856e-04
  3         1.1208001480e-03
  4         1.4463223595e-04
  5         8.0359469791e-05
  6         7.2523250274e-05
  7        -1.2791862214e-03
  8         4.8547010923e-04
  9        -6.3851991878e-04
 10        -7.6098906230e-05
 11        -1.6064565036e-05
 12        -2.9608677544e-05
 13         5.4853988577e-05
 14        -3.7392825805e-05
 15        -4.9192068331e-04
 16        -7.0462768452e-04
 17         4.8560695552e-03
 18        -1.1877845667e-04
 19         1.2381010677e-05
 20         2.2619647611e-06
 21        -2.4018547574e-03
 22        -4.1452529410e-03
 23         7.6171078071e-04
 24        -3.5180035309e-04
 25        -9.8155674705e-05
 26        -1.0522081761e-04
 27         5.6199562342e-06
 28         1.8562614771e-04
 29         4.6362481338e-03
 30        -1.0118814696e-03
 31         1.7491830177e-04
 32        -5.7672360557e-04
 33         1.3553880623e-03
 34         9.6166776340e-05
 35        -1.9522722593e-03
 36        -6.4858984865e-03
 37         7.7465536180e-04
 38         1.0748093252e-03
 39         2.4026863249e-04
 40        -5.2247768332e-05
 41         5.7104924602e-04
 42         9.0113495284e-04
 43         1.0059156008e+00
 44         1.5301772347e-02
 45        -1.2585288603e-02
 46         5.6587206368e-04
 47        -4.6147832917e-04
 48        -1.7703160124e-04
 49         5.0809840344e-03
 50        -2.3876995571e-03
 51        -1.0175997289e-03
 52        -1.6314028809e-03
 53        -5.0975961766e-04
 54         3.6251167223e-05
 55        -3.0487663322e-04
 56        -2.5459519530e-05
 57         7.2278462976e-04
 58         1.3044046721e-03
 59        -4.9527930102e-03
 60         2.6557743981e-04
 61        -2.0902579929e-04
 62        -3.4413419552e-05
 63         3.2666937137e-03
 64        -2.6973330237e-04
 65        -6.9378359626e-04
 66         6.9679339458e-04
 67         4.3118272840e-04
 68        -1.6201467213e-05
 69        -7.6626927556e-04
 70         2.0133320451e-04
 71         5.2560062259e-04
 72        -4.3973804531e-04
 73        -6.2467125411e-04
 74        -2.6622903146e-05
 75         1.1849258609e-04
 76        -5.3853946067e-05
 77         1.7262417713e-04
 78        -2.5887460499e-05
 79        -5.4722034686e-05
 80         3.0841250810e-05
 81         5.3185208286e-06
 82         9.3655462034e-04
 83         1.0856609641e-05
 84         6.3787342036e-05
 85        -2.9420464929e-05
 86        -2.1496327962e-03
 87         2.3225679126e-03
 88        -1.5341833729e-03
 89        -1.5874562226e-03
 90         2.6501889223e-04
 91        -1.4222225439e-04
 92        -2.6978165329e-04
 93         3.0198429705e-04
 94         2.9300145526e-04
 95        -7.4017354568e-05
 96        -5.5424561993e-05
 97         5.4975288399e-04
 98         1.7149827421e-04
 99         1.3079419565e-04
100        -3.2165743068e-05
 Sym= A
 Ene=        -1.0205974166e+01
 Spin= Alpha
 Occup=         2.0000000000e+00
  1         2.1866232185e-02
  2        -1.1358548684e-03
  3         4.7979797276e-03
  4         1.3316902880e-03
  5         3.3913982691e-04
  6         1.6707822530e-04
  7        -2.0845358410e-03
  8        -1.8098942885e-03
  9         3.8285437052e-04
 10         7.6136185752e-04
 11        -5.4809406259e-04
 12        -2.9874392491e-05
 13        -1.0644629131e-03
 14        -4.0244639264e-04
 15         1.0061962388e+00
 16         1.6276849505e-02
 17        -1.9220470977e-02
 18        -1.2380191309e-04
 19         2.1543332326e-04
 20        -2.4129442645e-04
 21        -1.7168439991e-03
 22         3.1917185317e-03
 23        -1.7650243801e-03
 24        -7.6546157828e-04
 25         6.9635273557e-04
 26        -6.4458151277e-04
 27         2.2910741220e-04
 28        -3.5674662392e-05
 29         5.6433423058e-03
 30        -4.3658433620e-04
 31         1.0590136881e-03
 32        -4.6340460793e-04
 33        -6.2629642098e-04
 34         1.4481511961e-04
 35         7.4331042292e-04
 36         3.8852867950e-03
 37         2.8336761020e-04
 38         7.9818102564e-04
 39         4.2430117806e-05
 40         5.8734898967e-04
 41         1.0953381420e-03
 42        -9.5606563165e-04
 43        -3.5969416282e-04
 44        -7.0510000793e-04
 45         4.1609736439e-03
 46        -1.0527149193e-04
 47        -1.6261547301e-04
 48         1.2919221079e-04
 49        -6.2182554332e-04
 50         2.8097245987e-03
 51        -2.7032041080e-04
 52        -4.3140110946e-04
 53        -3.1795904761e-04
 54         6.0594315680e-05
 55         4.0712665840e-04
 56        -3.0914478068e-04
 57         9.0487132628e-05
 58         1.3304518871e-04
 59        -1.2335039785e-03
 60         1.6391715648e-04
 61        -3.9933677961e-05
 62        -2.6547966914e-05
 63         1.3303862970e-04
 64        -6.9859020372e-04
 65         9.1453671552e-05
 66         8.3788011882e-05
 67         2.4629401866e-05
 68         1.9799536176e-05
 69        -1.4243326406e-05
 70         1.8314068186e-05
 71         2.9515966761e-04
 72         6.1045376273e-04
 73        -2.7635107011e-04
 74        -8.1357237974e-05
 75        -1.7057070033e-05
 76        -4.9547252632e-05
 77         9.0049693801e-04
 78         1.4430406079e-04
 79        -1.1592040992e-04
 80         7.7007550085e-05
 81        -2.5812607878e-04
 82        -2.1080944612e-04
 83         3.8665482306e-05
 84         2.4653021652e-04
 85        -1.1526768934e-04
 86         9.6859801036e-05
 87         8.0345810130e-04
 88         1.7966082893e-04
 89        -5.7957745214e-05
 90         2.0532613378e-06
 91        -2.9612105933e-04
 92         4.0098184720e-04
 93        -6.9927906444e-05
 94        -3.8424039602e-04
 95        -5.7907017330e-05
 96        -2.2978147428e-03
 97         1.1961341077e-03
 98        -1.1588157275e-03
 99         1.5184719060e-03
100        -9.2823301442e-04
 Sym= A
 Ene=        -1.0190266949e+01
 Spin= Alpha
 Occup=         2.0000000000e+00
  1         1.0061947177e+00
  2         1.6376297855e-02
  3        -1.5218653582e-02
  4         2.7884146686e-04
  5        -4.3463657855e-05
  6         3.6786661179e-05
  7         2.1835539475e-03
  8         7.1521913298e-04
  9         7.3585524034e-04
 10        -1.0437832521e-03
 11         7.4860279313e-04
 12        -1.1773445351e-03
 13         6.5326356052e-05
 14         3.3565444572e-04
 15        -2.3097704312e-02
 16        -1.4534675050e-03
 17         9.4909723784e-04
 18        -1.3472901974e-03
 19        -3.3573172517e-04
 20        -2.7710641669e-04
 21         2.8886674127e-03
 22         2.5052400094e-03
 23        -5.0517439241e-05
 24         1.0059032782e-03
 25        -5.8526076440e-04
 26         1.8531008070e-04
 27        -9.9805030137e-04
 28        -7.7674073365e-04
 29        -1.0963137324e-03
 30        -5.2117746762e-04
 31         3.5298586057e-03
 32        -8.4365568483e-05
 33         5.4448426143e-05
 34        -6.7111321850e-05
 35         1.9509898892e-03
 36         2.4702425237e-03
 37        -5.0688720119e-04
 38        -3.7484198347e-04
 39         7.5117040717e-05
 40        -2.4706135472e-04
 41        -3.3757123912e-04
 42         3.2973430851e-05
 43         1.0808445899e-05
 44        -2.0644736535e-04
 45        -6.5116961953e-04
 46         3.8869002648e-07
 47        -1.3455147778e-04
 48        -5.2309866381e-05
 49        -1.3166980386e-03
 50        -1.5881884840e-04
 51         3.0330532228e-04
 52         5.9310216370e-05
 53         9.8958233159e-05
 54        -8.9801721535e-05
 55        -4.7006624450e-05
 56         1.0609342501e-04
 57         1.0610686166e-05
 58         3.4403233436e-05
 59         4.0897290680e-04
 60         1.1949586572e-04
 61         6.6411166451e-05
 62        -3.9084053953e-05
 63        -6.6590474954e-04
 64        -1.6958415138e-04
 65         1.0480860247e-04
 66        -3.0364927569e-05
 67        -3.4176101596e-05
 68        -2.8041902707e-05
 69         7.9299966782e-05
 70         5.4042834832e-05
 71         1.6497152716e-04
 72         1.2835044022e-03
 73        -1.2032401304e-04
 74         4.2085453589e-04
 75         8.9797124060e-05
 76        -2.3142964879e-03
 77         1.9000485586e-03
 78         7.4410013628e-04
 79         2.0233585374e-03
 80        -6.9564604094e-04
 81        -2.1412248595e-03
 82         1.4937145664e-03
 83         1.2195387868e-03
 84        -1.4854096739e-03
 85         1.2272767660e-03
 86        -8.0920927214e-05
 87        -3.2960429698e-05
 88         3.9378564755e-05
 89         2.0361564967e-05
 90        -1.9529781010e-05
 91         1.0928581905e-04
 92         5.8227442983e-04
 93         1.1253563067e-05
 94        -1.3170445457e-04
 95         4.4793051604e-05
 96         7.8615988099e-05
 97         2.4310331961e-04
 98         1.9170066271e-05
 99        -3.1710773346e-04
100         1.0526246953e-04
 Sym= A
 Ene=        -1.0182615192e+01
 Spin= Alpha
 Occup=         2.0000000000e+00
  1         3.7562280100e-04
  2        -4.5285137156e-04
  3         2.8480120480e-03
  4         7.3272241609e-05
  5         1.0504546215e-04
  6        -8.5900906792e-05
  7        -2.1138362502e-03
  8        -4.3469000012e-04
  9        -4.9285806460e-05
 10        -2.5342340789e-04
 11         5.2471328075e-04
 12        -3.0722404222e-04
 13         2.7482445280e-04
 14        -4.7991334144e-04
 15        -6.0257782003e-03
 16        -6.8764176121e-04
 17         2.9867978817e-03
 18         2.1207366428e-04
 19         6.9910869906e-04
 20        -1.7783624536e-04
 21        -2.1225290427e-03
 22        -3.8654501271e-03
 23        -4.9824497012e-05
 24         9.0441790050e-04
 25         4.9564532949e-04
 26         3.6382173270e-04
 27         5.5844537951e-04
 28        -1.3109425689e-03
 29         1.0066454382e+00
 30         1.6745744906e-02
 31        -2.1876718600e-02
 32        -2.2241671442e-04
 33        -1.5932352897e-04
 34        -1.2262340021e-04
 35        -5.1425901348e-03
 36        -2.5650004995e-04
 37         1.5903423146e-03
 38        -1.0801089623e-03
 39        -3.7910384457e-04
 40        -5.9609424093e-06
 41         2.8732399283e-04
 42        -2.1660506893e-04
 43        -5.8945598361e-03
 44        -1.5999403725e-03
 45         6.7534222556e-03
 46         6.4100376082e-04
 47        -1.2378523273e-03
 48        -9.2790271667e-05
 49         3.0384570930e-04
 50         4.1979186331e-03
 51        -3.4805778109e-04
 52         8.4264850082e-04
 53         1.6086187334e-04
 54        -2.0748700662e-04
 55         6.9993760140e-04
 56         1.0168801317e-03
 57         3.4552060669e-05
 58         4.9053501589e-05
 59        -9.6117120358e-04
 60         2.7576129116e-05
 61        -5.8401554599e-05
 62        -2.4368599882e-06
 63        -1.0639413114e-04
 64        -7.0851285512e-04
 65         7.2837204393e-05
 66        -5.7535232440e-05
 67        -4.1634757050e-05
 68        -9.6928774959e-06
 69         9.7420759266e-05
 70         8.1736393659e-05
 71         2.7220645876e-04
 72         3.6109695181e-05
 73        -1.3631445396e-04
 74        -1.6279513066e-04
 75         2.4659079163e-05
 76         1.1055611156e-04
 77         5.1451570660e-04
 78         1.4143294840e-04
 79        -1.4551320668e-04
 80         5.1055543839e-05
 81        -7.0657890143e-04
 82         5.0740968522e-04
 83         1.9351847950e-04
 84        -1.2078733012e-04
 85         1.2183491069e-04
 86         1.4449249408e-04
 87         1.2099960870e-03
 88         2.8426723808e-04
 89        -2.1221357976e-05
 90        -1.7679855116e-05
 91        -2.3770353997e-03
 92         8.3384707880e-04
 93        -2.1182071982e-03
 94        -5.7048558024e-05
 95         2.6170122740e-04
 96        -3.3249693386e-04
 97         6.9249399875e-04
 98         2.0648007133e-04
 99         2.8845351376e-04
100         7.3176240597e-05
 Sym= A
 Ene=        -1.0653976483e+00
 Spin= Alpha
 Occup=         2.0000000000e+00
  1         1.4260804590e-04
  2         8.3759468783e-03
  3        -4.3975020605e-03
  4        -1.8838014436e-03
  5        -5.0602413786e-03
  6        -6.7195499668e-04
  7         2.6011775657e-03
  8         5.1859522431e-03
  9        -1.9150837716e-03
 10        -2.5678490455e-04
 11        -5.6798946295e-04
 12         7.0474860699e-04
 13        -8.1899378029e-04
 14         9.7866285725e-04
 15        -8.5502773463e-05
 16         1.3082994703e-02
 17         1.9411762001e-03
 18         1.5265223683e-03
 19        -8.6155616771e-03
 20         9.7497254092e-04
 21         5.9274938713e-03
 22         3.2284460106e-03
 23         1.3364590786e-04
 24        -1.3821675162e-03
 25        -1.6173483127e-04
 26        -4.2933661514e-04
 27        -1.3160922894e-03
 28         4.4073985246e-04
 29        -1.3137809758e-03
 30         3.5027682821e-02
 31        -4.5337739340e-03
 32         2.1143399372e-02
 33        -1.8014488929e-02
 34        -4.2942519288e-03
 35         5.3629796887e-03
 36         1.5130264126e-02
 37        -2.0337072423e-03
 38        -2.2184651109e-03
 39        -1.1149539046e-03
 40         1.5465179108e-03
 41         2.2421602039e-03
 42        -8.0616912375e-03
 43        -1.2695218636e-02
 44         1.5393061817e-01
 45         8.5267638905e-02
 46         1.2589249532e-01
 47        -5.8929799608e-03
 48        -2.7121264936e-02
 49         4.9260216469e-03
 50         2.4050413551e-02
 51        -1.2838073022e-03
 52        -1.1081358621e-02
 53        -1.0788469425e-02
 54         9.4955731191e-04
 55         2.8354186144e-02
 56        -4.9861245284e-03
 57        -6.6948259530e-03
 58         4.2402762417e-01
 59         3.7261092698e-01
 60        -7.2967718408e-02
 61         9.0613029752e-02
 62         8.6646657477e-03
 63        -3.1086748008e-02
 64        -1.6998236265e-03
 65         6.7772810938e-03
 66        -6.3433121385e-03
 67        -3.3481043465e-03
 68        -3.9825325042e-04
 69         3.9289440767e-03
 70        -1.8533366678e-03
 71         1.7181380897e-01
 72         4.9178144761e-03
 73        -1.8799776019e-02
 74        -2.9834594779e-02
 75         7.0971281075e-03
 76         9.6696516048e-06
 77        -3.9312120982e-03
 78         5.8060552062e-05
 79         1.1252274186e-04
 80        -1.6336705298e-04
 81         7.4242081672e-03
 82         4.6423749124e-03
 83        -1.1419401569e-03
 84        -6.5423993349e-04
 85        -9.2816027818e-04
 86         3.4245133042e-02
 87         5.3360053607e-03
 88         8.2844636729e-03
 89         4.4776344452e-03
 90        -1.5230012830e-03
 91         5.0297948977e-03
 92         1.9969930632e-03
 93         4.0644486729e-04
 94        -2.2960651933e-03
 95         1.0015818664e-05
 96         1.6255428236e-03
 97        -1.1766313107e-03
 98        -3.0118613338e-04
 99        -4.4589345460e-04
100        -8.5202784039e-05
 Sym= A
 Ene=        -8.0204473889e-01
 Spin= Alpha
 Occup=         2.0000000000e+00
  1         1.4794955622e-02
  2        -1.9207074720e-01
  3        -1.0392959763e-01
  4         8.3051991852e-02
  5         2.9118611998e-02
  6         1.3903499420e-02
  7         8.6458804887e-03
  8        -2.9375552153e-03
  9         8.2632153276e-03
 10         4.8089227926e-03
 11        -2.2936784225e-03
 12        -3.3341887948e-03
 13        -7.8112814939e-03
 14        -5.9940827697e-03
 15         1.9428184046e-02
 16        -2.7779618050e-01
 17        -1.7816656078e-01
 18        -3.7977493028e-02
 19         4.0124912738e-02
 20        -1.9255835754e-02
 21        -1.8804530040e-02
 22         2.0918844319e-02
 23        -1.3784555678e-02
 24         1.0440518044e-02
 25        -8.6818759546e-04
 26         1.3174180081e-03
 27        -1.5228064121e-03
 28        -1.0999549376e-02
 29         1.8181573051e-02
 30        -2.4114177645e-01
 31        -1.4219148174e-01
 32        -5.4685067547e-02
 33        -1.5466760623e-02
 34         1.5507188397e-02
 35        -1.9044017274e-02
 36        -1.1738599692e-02
 37         9.5045135117e-03
 38         8.6508944912e-03
 39         1.7495087974e-03
 40         2.6151111496e-03
 41         9.4934676547e-03
 42        -5.2859322020e-03
 43         5.5073522549e-03
 44        -1.2456577079e-01
 45        -6.6887070841e-02
 46         6.0821456529e-02
 47        -8.5635850386e-02
 48        -1.0024083741e-02
 49         2.3221780901e-02
 50        -1.2682334434e-02
 51        -6.6374418759e-03
 52         3.3733027135e-03
 53        -1.6605543657e-03
 54        -5.0370824392e-04
 55         1.2090459175e-02
 56         4.1048303830e-03
 57         1.1035089847e-03
 58         8.7975966878e-02
 59         8.1047885828e-02
 60         2.6692323169e-02
 61         2.3562026645e-03
 62        -7.4533479868e-03
 63         1.6295935823e-02
 64        -7.8841057263e-03
 65        -3.3215997302e-03
 66         7.9611369592e-04
 67         3.9512177227e-04
 68        -7.0241747900e-04
 69        -1.0613823113e-03
 70         2.9150661672e-03
 71         3.3857268228e-02
 72         3.7285277718e-03
 73        -1.9556227699e-03
 74        -9.1286313252e-03
 75         3.2034182927e-04
 76        -5.9831000184e-02
 77        -5.6122790419e-04
 78         5.8592850901e-03
 79         8.8460332244e-03
 80        -2.1353267121e-03
 81        -6.9221846538e-02
 82        -4.6765697443e-03
 83         8.1730440666e-03
 84        -5.5298908128e-03
 85         5.8417759853e-03
 86        -3.3221217817e-02
 87         1.0131430449e-03
 88        -5.2085418694e-04
 89        -5.8630419039e-03
 90         2.2882173029e-04
 91        -8.1186506133e-02
 92        -8.4619372674e-03
 93        -1.3069609595e-02
 94        -9.2213567610e-04
 95         2.0089726324e-03
 96        -9.5428999767e-02
 97        -1.2297240181e-02
 98        -8.5180011094e-03
 99         1.0818208234e-02
100        -6.2997480166e-03
 Sym= A
 Ene=        -7.3154506489e-01
 Spin= Alpha
 Occup=         2.0000000000e+00
  1         1.6372165766e-02
  2        -2.2725228293e-01
  3        -1.2674403901e-01
  4         5.4484201941e-02
  5         8.8663641052e-03
  6         1.3834395921e-02
  7         2.8319314614e-03
  8         1.1587895379e-03
  9         2.8454878742e-03
 10         3.0975048009e-03
 11        -2.5895652712e-03
 12        -2.2526366742e-03
 13        -5.4923216977e-03
 14         4.1985602330e-05
 15         8.8928057917e-03
 16        -1.3474561155e-01
 17        -1.0107157322e-01
 18        -1.0957287620e-01
 19        -7.6910367312e-02
 20        -6.8604325844e-03
 21        -4.7705479208e-02
 22        -1.2801561340e-02
 23        -6.5538749602e-03
 24         2.3524133436e-03
 25        -4.1812141172e-03
 26        -2.6144482040e-03
 27        -1.4521443076e-02
 28         3.1718600601e-04
 29        -1.3341607551e-02
 30         1.9862389736e-01
 31         1.2956249473e-01
 32         1.0153953761e-02
 33        -1.1993646167e-01
 34        -4.6380312695e-03
 35         1.8508603679e-02
 36        -3.3755304104e-02
 37        -1.1122376091e-04
 38        -3.3684883807e-03
 39         1.8206373949e-04
 40         1.9875279390e-03
 41        -6.8275565847e-03
 42        -1.2126724339e-02
 43        -1.0036195878e-02
 44         2.5158055014e-01
 45         1.3999525918e-01
 46        -7.3297889157e-02
 47         5.9489417051e-02
 48         1.1413090626e-02
 49        -2.2319720678e-02
 50         1.0002636502e-02
 51         2.5480941257e-03