[Molden Format]
[Atoms] (AU)
C    1    6           1.8426743472         2.4007811200        -0.1155430447
C    2    6          -0.9246947316         2.3349488632        -0.0681952386
C    3    6          -2.1688959117         0.1166353827         0.4073351602
C    4    6          -0.7741836770        -2.2079712239         0.0726740364
O    5    8           1.5498169511        -2.3920054719        -0.1852653405
H    6    1           2.2427318057         0.3532232544        -0.7769315795
H    7    1           2.6521241522         4.1486673504        -0.9348996067
H    8    1           2.7428618655         1.9743863028         1.7250061708
H    9    1          -1.8862852720        -3.9479418452        -0.2295524140
H   10    1          -4.2265489588         0.0045297992         0.4284804207
H   11    1          -2.0090848346         3.9436497914        -0.7994546016
[GTO]
  1 0
 s    8  1.00
     6665.0000000000         0.0006920000
     1000.0000000000         0.0053290000
      228.0000000000         0.0270770000
       64.7100000000         0.1017180000
       21.0600000000         0.2747400000
        7.4950000000         0.4485640000
        2.7970000000         0.2850740000
        0.5215000000         0.0152040000
 s    8  1.00
     6665.0000000000        -0.0001460000
     1000.0000000000        -0.0011540000
      228.0000000000        -0.0057250000
       64.7100000000        -0.0233120000
       21.0600000000        -0.0639550000
        7.4950000000        -0.1499810000
        2.7970000000        -0.1272620000
        0.5215000000         0.5445290000
 s    1  1.00
        0.1596000000         1.0000000000
 p    3  1.00
        9.4390000000         0.0381090000
        2.0020000000         0.2094800000
        0.5456000000         0.5085570000
 p    1  1.00
        0.1517000000         1.0000000000
 d    1  1.00
        0.5500000000         1.0000000000

  2 0
 s    8  1.00
     6665.0000000000         0.0006920000
     1000.0000000000         0.0053290000
      228.0000000000         0.0270770000
       64.7100000000         0.1017180000
       21.0600000000         0.2747400000
        7.4950000000         0.4485640000
        2.7970000000         0.2850740000
        0.5215000000         0.0152040000
 s    8  1.00
     6665.0000000000        -0.0001460000
     1000.0000000000        -0.0011540000
      228.0000000000        -0.0057250000
       64.7100000000        -0.0233120000
       21.0600000000        -0.0639550000
        7.4950000000        -0.1499810000
        2.7970000000        -0.1272620000
        0.5215000000         0.5445290000
 s    1  1.00
        0.1596000000         1.0000000000
 p    3  1.00
        9.4390000000         0.0381090000
        2.0020000000         0.2094800000
        0.5456000000         0.5085570000
 p    1  1.00
        0.1517000000         1.0000000000
 d    1  1.00
        0.5500000000         1.0000000000

  3 0
 s    8  1.00
     6665.0000000000         0.0006920000
     1000.0000000000         0.0053290000
      228.0000000000         0.0270770000
       64.7100000000         0.1017180000
       21.0600000000         0.2747400000
        7.4950000000         0.4485640000
        2.7970000000         0.2850740000
        0.5215000000         0.0152040000
 s    8  1.00
     6665.0000000000        -0.0001460000
     1000.0000000000        -0.0011540000
      228.0000000000        -0.0057250000
       64.7100000000        -0.0233120000
       21.0600000000        -0.0639550000
        7.4950000000        -0.1499810000
        2.7970000000        -0.1272620000
        0.5215000000         0.5445290000
 s    1  1.00
        0.1596000000         1.0000000000
 p    3  1.00
        9.4390000000         0.0381090000
        2.0020000000         0.2094800000
        0.5456000000         0.5085570000
 p    1  1.00
        0.1517000000         1.0000000000
 d    1  1.00
        0.5500000000         1.0000000000

  4 0
 s    8  1.00
     6665.0000000000         0.0006920000
     1000.0000000000         0.0053290000
      228.0000000000         0.0270770000
       64.7100000000         0.1017180000
       21.0600000000         0.2747400000
        7.4950000000         0.4485640000
        2.7970000000         0.2850740000
        0.5215000000         0.0152040000
 s    8  1.00
     6665.0000000000        -0.0001460000
     1000.0000000000        -0.0011540000
      228.0000000000        -0.0057250000
       64.7100000000        -0.0233120000
       21.0600000000        -0.0639550000
        7.4950000000        -0.1499810000
        2.7970000000        -0.1272620000
        0.5215000000         0.5445290000
 s    1  1.00
        0.1596000000         1.0000000000
 p    3  1.00
        9.4390000000         0.0381090000
        2.0020000000         0.2094800000
        0.5456000000         0.5085570000
 p    1  1.00
        0.1517000000         1.0000000000
 d    1  1.00
        0.5500000000         1.0000000000

  5 0
 s    8  1.00
    11720.0000000000         0.0007100000
     1759.0000000000         0.0054700000
      400.8000000000         0.0278370000
      113.7000000000         0.1048000000
       37.0300000000         0.2830620000
       13.2700000000         0.4487190000
        5.0250000000         0.2709520000
        1.0130000000         0.0154580000
 s    8  1.00
    11720.0000000000        -0.0001600000
     1759.0000000000        -0.0012630000
      400.8000000000        -0.0062670000
      113.7000000000        -0.0257160000
       37.0300000000        -0.0709240000
       13.2700000000        -0.1654110000
        5.0250000000        -0.1169550000
        1.0130000000         0.5573680000
 s    1  1.00
        0.3023000000         1.0000000000
 p    3  1.00
       17.7000000000         0.0430180000
        3.8540000000         0.2289130000
        1.0460000000         0.5087280000
 p    1  1.00
        0.2753000000         1.0000000000
 d    1  1.00
        1.1850000000         1.0000000000

  6 0
 s    3  1.00
       13.0100000000         0.0196850000
        1.9620000000         0.1379770000
        0.4446000000         0.4781480000
 s    1  1.00
        0.1220000000         1.0000000000
 p    1  1.00
        0.7270000000         1.0000000000

  7 0
 s    3  1.00
       13.0100000000         0.0196850000
        1.9620000000         0.1379770000
        0.4446000000         0.4781480000
 s    1  1.00
        0.1220000000         1.0000000000
 p    1  1.00
        0.7270000000         1.0000000000

  8 0
 s    3  1.00
       13.0100000000         0.0196850000
        1.9620000000         0.1379770000
        0.4446000000         0.4781480000
 s    1  1.00
        0.1220000000         1.0000000000
 p    1  1.00
        0.7270000000         1.0000000000

  9 0
 s    3  1.00
       13.0100000000         0.0196850000
        1.9620000000         0.1379770000
        0.4446000000         0.4781480000
 s    1  1.00
        0.1220000000         1.0000000000
 p    1  1.00
        0.7270000000         1.0000000000

  10 0
 s    3  1.00
       13.0100000000         0.0196850000
        1.9620000000         0.1379770000
        0.4446000000         0.4781480000
 s    1  1.00
        0.1220000000         1.0000000000
 p    1  1.00
        0.7270000000         1.0000000000

  11 0
 s    3  1.00
       13.0100000000         0.0196850000
        1.9620000000         0.1379770000
        0.4446000000         0.4781480000
 s    1  1.00
        0.1220000000         1.0000000000
 p    1  1.00
        0.7270000000         1.0000000000

[5D7F]
[9G]

[MO]
 Sym= A
 Ene=        -1.9139293447e+01
 Spin= Alpha
 Occup=         2.0000000000e+00
  1        -2.5341374889e-05
  2        -4.1613085587e-05
  3        -3.3597851352e-05
  4         1.0794919153e-04
  5        -7.5562847401e-05
  6        -9.5440202828e-05
  7        -1.7789374545e-04
  8        -2.8899401178e-04
  9         3.6834411742e-04
 10         2.7668504373e-05
 11         2.4436574578e-05
 12         1.0482094785e-04
 13         1.8098739560e-05
 14        -2.1260396749e-04
 15        -9.4915775994e-05
 16        -1.7088211777e-04
 17         3.9905960189e-03
 18        -2.2762791964e-05
 19        -3.7053523367e-05
 20        -7.7682778716e-05
 21        -8.2294638002e-04
 22        -1.6191024589e-03
 23         5.6618026441e-04
 24         9.1055634704e-06
 25         7.5125359870e-05
 26        -7.4288665708e-05
 27        -5.1308584277e-05
 28        -5.2071654713e-05
 29         2.0472180640e-04
 30         3.1176739721e-04
 31        -3.8819684194e-03
 32        -1.1841335369e-05
 33         2.6251751185e-04
 34         2.3549380735e-05
 35        -4.1577140299e-03
 36        -2.7068027108e-03
 37         5.4873912564e-04
 38         1.2635653311e-04
 39         1.2947312623e-04
 40         7.5621993980e-05
 41        -4.9477874217e-04
 42         4.1993032424e-04
 43         4.1672590559e-04
 44         5.8279713632e-04
 45         6.2163028507e-03
 46         9.3259641554e-05
 47        -1.6645603624e-04
 48        -9.2373946792e-05
 49         5.7259760715e-03
 50         1.6019606552e-03
 51        -5.0888071565e-04
 52        -1.0463374611e-04
 53         1.1744169442e-04
 54         1.7157031028e-04
 55        -1.1324036743e-03
 56         4.4610456364e-04
 57         1.0042538396e+00
 58         9.6453889444e-03
 59        -1.5251405141e-02
 60        -1.7210279243e-03
 61         4.1152304681e-04
 62         1.0322481124e-04
 63         3.4461957077e-03
 64        -1.2454547827e-03
 65        -2.4492721074e-04
 66         7.7901563567e-05
 67         3.3071978182e-06
 68         2.7165583403e-05
 69         1.1037722519e-04
 70         4.0477477324e-05
 71         2.5366252716e-04
 72         2.8546482090e-04
 73        -1.9411435155e-04
 74        -7.2330728357e-04
 75         1.6441716053e-04
 76         2.1821389755e-04
 77         4.2502614095e-04
 78        -6.4377345298e-05
 79        -9.0980052075e-05
 80         3.5259745928e-05
 81        -1.6335295528e-04
 82        -3.1439402782e-04
 83         7.1484186731e-05
 84         9.9368156282e-05
 85         5.5032417759e-05
 86        -4.2106154032e-04
 87         8.1061003762e-04
 88        -7.2996994037e-04
 89        -1.0780529431e-04
 90         6.1564375588e-05
 91        -1.9053217737e-04
 92        -1.2484960028e-03
 93         1.9509012167e-04
 94         2.1897660564e-04
 95        -4.0177734888e-05
 96        -1.5068020342e-04
 97         1.8353877327e-04
 98         3.8814514114e-05
 99         6.6462745999e-05
100        -3.9626048680e-05
 Sym= A
 Ene=        -1.0272949571e+01
 Spin= Alpha
 Occup=         2.0000000000e+00
  1        -3.6055590880e-04
  2        -5.0815634897e-04
  3         1.2458538929e-03
  4         2.5771083191e-04
  5         1.3170264126e-05
  6        -4.3960505401e-05
  7        -7.9864641830e-04
  8        -3.2992220708e-04
  9        -3.5714258298e-05
 10        -1.1468902157e-04
 11        -1.3543405627e-04
 12         2.1008864037e-05
 13        -9.9621904274e-05
 14        -1.1064605855e-04
 15        -3.9932258190e-04
 16        -6.2157805989e-04
 17         5.0438970347e-03
 18        -1.5985801174e-04
 19        -4.4247702685e-06
 20         2.9630381966e-05
 21        -1.9185806462e-03
 22        -2.9751304472e-03
 23         7.2813093699e-04
 24        -3.0758402637e-04
 25        -2.1932276514e-04
 26        -8.0127589368e-05
 27         1.2883782788e-04
 28         1.4971592729e-04
 29         1.9588603647e-03
 30        -3.6268506281e-04
 31        -1.0664728063e-03
 32        -4.2589779210e-04
 33         9.0885883606e-04
 34         1.3745073552e-04
 35        -2.1863939476e-03
 36        -4.9063861164e-03
 37         4.0678289894e-04
 38         1.0272577185e-03
 39         2.0132280648e-04
 40        -1.6352401670e-04
 41         7.2825746709e-04
 42         1.0287995738e-03
 43         1.0059788208e+00
 44         1.5383235329e-02
 45        -1.0267200013e-02
 46         7.9765631977e-04
 47        -3.7331057163e-04
 48        -3.6466294757e-04
 49         4.8857285386e-03
 50        -1.5090348737e-03
 51        -5.1988804751e-04
 52        -1.6005829260e-03
 53        -1.8387141693e-04
 54         4.3843840942e-04
 55         5.4625565818e-04
 56         2.0709227548e-04
 57         4.8836690283e-04
 58         1.0705787450e-03
 59        -5.6393620082e-03
 60         6.6583794674e-04
 61        -6.7543920033e-05
 62        -8.6830488316e-05
 63         3.4270738916e-03
 64        -8.6502004134e-05
 65        -3.6840003690e-04
 66         6.2279509181e-04
 67         2.2299885042e-04
 68        -3.6798079296e-05
 69        -7.8272693716e-04
 70         9.4034765322e-05
 71        -9.9490517828e-06
 72        -4.3202752748e-04
 73        -3.3250082513e-04
 74        -3.4328161213e-04
 75         1.3173223887e-05
 76        -1.3150478598e-05
 77         4.6341694184e-04
 78        -3.3283837015e-05
 79        -1.3257972596e-05
 80         3.0408631468e-05
 81        -6.9742413222e-05
 82         1.6345884212e-04
 83         6.6810505107e-05
 84         8.9097794396e-05
 85        -8.2721461293e-05
 86        -1.9702783672e-03
 87         2.3808451237e-03
 88        -1.3423078269e-03
 89        -1.6055289339e-03
 90        -2.7826768047e-04
 91        -3.9600240000e-04
 92        -4.8949619272e-04
 93         1.2565630661e-04
 94         2.7408067575e-04
 95        -2.6903844134e-05
 96        -8.4647359110e-05
 97         3.8657857487e-04
 98         1.7733524212e-04
 99         1.0411804360e-04
100        -5.0017810965e-05
 Sym= A
 Ene=        -1.0227238344e+01
 Spin= Alpha
 Occup=         2.0000000000e+00
  1         2.6407748097e-03
  2        -4.6267518085e-04
  3         4.5701943324e-03
  4         8.0699538202e-04
  5        -6.6249260528e-05
  6         2.0041399300e-05
  7        -2.5352621191e-03
  8        -4.9743009773e-04
  9         8.5725315197e-05
 10         8.3061150182e-04
 11         1.4782255810e-04
 12         6.1357422096e-05
 13        -1.0057107078e-03
 14        -1.4732632665e-04
 15         1.0064534722e+00
 16         1.6286167677e-02
 17        -2.0114939724e-02
 18        -4.3511822296e-04
 19         4.5557926884e-05
 20        -3.8833747212e-04
 21        -2.3492427842e-03
 22         3.9474300833e-03
 23        -7.0912741221e-04
 24        -7.6285083961e-04
 25         4.0528836989e-04
 26        -8.5498895129e-04
 27        -4.1716425514e-04
 28        -5.4093223483e-04
 29         8.7998434197e-03
 30        -9.7008449752e-04
 31         4.0198041477e-03
 32        -5.9631495898e-04
 33        -9.8435484543e-04
 34         1.7705023095e-04
 35         1.9891563415e-03
 36         2.6956714642e-03
 37        -2.1010514304e-04
 38         8.7034679913e-04
 39         1.4909466154e-04
 40         3.9283123931e-04
 41         4.3412838676e-04
 42        -1.0209524558e-03
 43        -3.5418966016e-04
 44        -6.4148604915e-04
 45         1.6631807229e-03
 46         3.6878896206e-05
 47        -2.0123473983e-04
 48         3.6894171395e-05
 49        -7.2553352017e-04
 50         1.3896315762e-03
 51        -7.4746536329e-05
 52        -3.1456491365e-04
 53        -1.6367235837e-04
 54        -5.0706216214e-05
 55         4.1802049526e-05
 56         1.6777198287e-04
 57         1.3337102614e-05
 58         1.6976024404e-05
 59        -3.0828837433e-04
 60         1.2517959406e-04
 61         4.1020426205e-05
 62         8.9765416954e-07
 63        -2.3339947865e-04
 64        -5.5753053714e-04
 65         7.5829816662e-05
 66         1.4454054342e-05
 67        -2.4186882693e-05
 68        -2.1568134931e-06
 69         2.2841008043e-05
 70         3.7410924243e-05
 71        -2.6738149679e-04
 72         8.8902838267e-04
 73        -3.6640415141e-04
 74        -1.5950310407e-04
 75         1.8485005105e-06
 76        -1.5577880501e-04
 77         2.5317818229e-04
 78         1.6023332672e-04
 79        -8.5519551915e-05
 80         7.1999368736e-05
 81        -5.4429254823e-04
 82         7.9669028947e-04
 83        -5.3738684656e-05
 84         2.2234221116e-05
 85         7.0324027190e-06
 86        -1.6886864350e-04
 87         3.3578642912e-04
 88         5.0399563335e-05
 89        -1.3258329342e-04
 90        -3.0432308199e-05
 91         1.6985283647e-04
 92         6.6842903478e-04
 93         1.8539008631e-04
 94        -2.8717752268e-04
 95         2.1352015984e-05
 96        -2.5597052196e-03
 97         1.1186195619e-03
 98        -1.1954947753e-03
 99         1.6995367258e-03
100        -8.9245885428e-04
 Sym= A
 Ene=        -1.0194781716e+01
 Spin= Alpha
 Occup=         2.0000000000e+00
  1         5.9980147468e-04
  2         4.9377011942e-04
  3        -9.1797172790e-04
  4        -1.3590272920e-04
  5        -8.7965282272e-05
  6         1.4916796181e-04
  7         1.1339443820e-03
  8         2.3973460965e-04
  9        -5.3085597793e-04
 10         2.8034094263e-04
 11         3.4079504712e-05
 12         1.2344348190e-04
 13         7.6718980870e-06
 14         8.4960771732e-05
 15         9.8681084502e-03
 16         1.3270335585e-03
 17        -5.1602852223e-03
 18        -5.3775108515e-04
 19        -1.0510281251e-03
 20         2.3476603705e-04
 21         1.3594484124e-03
 22         2.9375313434e-03
 23        -6.4482109053e-05
 24        -8.6034133403e-04
 25        -3.0803614866e-04
 26        -5.6561050163e-04
 27        -6.8045938425e-04
 28         8.2632941858e-04
 29        -1.0066399106e+00
 30        -1.6774047350e-02
 31         2.1148606965e-02
 32         2.7350090778e-04
 33        -9.2858500814e-05
 34         4.9102598444e-04
 35         4.8084008391e-03
 36         1.4187327342e-04
 37        -1.8104269124e-03
 38         1.1074558159e-03
 39         6.8063027098e-05
 40         6.7760512605e-05
 41        -7.0731602559e-04
 42        -4.0518561806e-04
 43         2.3700597691e-03
 44         8.3855218787e-04
 45        -5.8422726017e-03
 46        -3.9180649204e-04
 47         7.1257341964e-04
 48         1.3229464000e-04
 49         5.9760848509e-04
 50        -3.3270923648e-03
 51        -2.1166589890e-05
 52        -7.3187921135e-04
 53        -2.9110379890e-04
 54         3.2606623087e-04
 55        -5.3400506656e-04
 56        -1.1815648444e-03
 57        -1.4798524571e-05
 58        -2.4615504282e-05
 59         5.1844408724e-04
 60        -5.4942712785e-05
 61         3.5138009595e-06
 62         5.1363894612e-05
 63         1.7851909760e-04
 64         7.5429452687e-04
 65        -9.8416647178e-05
 66         1.1512855105e-04
 67        -6.9456222246e-06
 68        -8.6300809704e-07
 69        -3.6030381194e-05
 70        -1.9735531158e-04
 71         1.3844540686e-04
 72        -4.9907419064e-04
 73         9.6452565756e-05
 74         1.1199575309e-04
 75         2.7618873978e-05
 76        -4.7091990582e-06
 77        -4.5101678154e-04
 78        -5.9842880475e-05
 79         2.3270469480e-05
 80         4.5591750375e-05
 81         2.0758221670e-04
 82        -1.5998281515e-04
 83        -6.8549527882e-06
 84        -1.1441879818e-04
 85         8.6918095190e-05
 86         2.3362674040e-04
 87        -8.0371203739e-04
 88        -2.2723591092e-04
 89         1.6281936203e-04
 90        -2.8352786285e-05
 91         2.5260389079e-03
 92        -1.0703712193e-03
 93         2.2493927392e-03
 94         4.2316925336e-05
 95         1.6996036176e-04
 96         1.9689774170e-05
 97        -5.2711527965e-04
 98        -3.1128581312e-04
 99        -7.1733773012e-06
100        -1.4747583039e-04
 Sym= A
 Ene=        -1.0177208712e+01
 Spin= Alpha
 Occup=         2.0000000000e+00
  1         1.0069437192e+00
  2         1.7397944541e-02
  3        -1.9141759018e-02
  4         1.8966907690e-04
  5        -8.7324536842e-05
  6         4.2917697246e-04
  7         2.5915198741e-03
  8         1.7406851986e-03
  9        -4.9880129167e-04
 10        -1.9285737713e-04
 11         3.1640936738e-04
 12        -6.4524296525e-04
 13        -7.3130355979e-04
 14         4.0164841026e-04
 15        -2.8757887762e-03
 16        -3.2295289453e-04
 17         1.9385189436e-03
 18        -6.1618084299e-04
 19         5.7596920394e-05
 20        -2.5907469293e-06
 21         3.3271457297e-03
 22         1.4474994779e-03
 23        -1.8488762168e-04
 24         7.5520734844e-04
 25         1.7919644867e-04
 26        -6.4072224941e-06
 27        -1.2987514339e-03
 28        -1.4101292570e-04
 29        -5.5660565369e-05
 30        -6.0038611476e-04
 31         2.4671313277e-03
 32        -2.2456911504e-04
 33        -4.8213397461e-05
 34        -2.0919452618e-05
 35         1.1595504089e-03
 36         2.0812761632e-03
 37        -3.2524733079e-04
 38        -3.6402515772e-04
 39         2.2250147907e-05
 40        -1.2948166836e-04
 41        -2.7629080077e-04
 42        -1.8475436729e-04
 43        -1.8721716117e-04
 44        -5.3369767447e-04
 45        -3.0182400389e-04
 46        -1.5607362726e-04
 47        -2.1960119605e-04
 48        -7.8298782349e-05
 49        -7.9429728772e-04
 50         6.3663058342e-04
 51         2.0557756502e-04
 52        -6.7297568786e-05
 53        -3.7273898857e-05
 54        -4.7639969215e-05
 55        -8.9329630890e-05
 56         2.4054931859e-04
 57        -4.2810681638e-05
 58        -8.1297422153e-05
 59         3.1300295787e-04
 60         1.2455693926e-04
 61        -1.8483102472e-05
 62        -1.0255850234e-04
 63        -9.6257483398e-04
 64        -2.7369790067e-04
 65         4.7154424286e-04
 66        -5.2497141755e-05
 67        -4.4015701109e-06
 68         9.3572042219e-05
 69         7.0671864340e-05
 70        -2.0888107645e-05
 71        -6.0490013135e-04
 72         3.7428766021e-03
 73         3.2955577517e-04
 74        -1.5598528557e-03
 75        -6.1988949435e-04
 76        -1.9036307752e-03
 77         1.3147872796e-03
 78         8.7060937783e-04
 79         1.7518280649e-03
 80        -9.7808101418e-04
 81        -1.0205597520e-03
 82         2.1350490398e-03
 83         5.8230031202e-04
 84        -3.8762829718e-04
 85         1.7757905561e-03
 86        -5.9950567148e-05
 87         3.5572305864e-04
 88         2.3205082917e-05
 89        -3.7772572081e-05
 90        -4.1768162971e-05
 91         3.8944909544e-05
 92         4.6231274214e-04
 93         1.3073703583e-05
 94        -1.4683965676e-04
 95         2.7161181079e-05
 96        -2.4069535528e-04
 97         2.3189313454e-04
 98        -3.0816600235e-04
 99        -1.8592935946e-04
100         5.3925901472e-05
 Sym= A
 Ene=        -1.0448621737e+00
 Spin= Alpha
 Occup=         2.0000000000e+00
  1        -7.9161141107e-04
  2         1.8628269377e-02
  3         5.0305497804e-04
  4        -4.9754791052e-03
  5        -1.0318686354e-02
  6        -3.8968773942e-05
  7         1.6483610973e-03
  8         3.8205938731e-03
  9        -2.6216700504e-03
 10        -5.4423093301e-04
 11        -4.5175324374e-04
 12         4.2778243468e-04
 13         4.4863236283e-04
 14         2.3745609459e-04
 15        -7.0295626752e-04
 16         2.1996546789e-02
 17         6.3715059799e-04
 18         2.9169693353e-03
 19        -1.3580047697e-02
 20         1.1582794236e-03
 21         2.6675754433e-03
 22         3.9050552945e-03
 23        -1.8460442354e-04
 24        -1.3905237612e-03
 25        -4.4012343544e-04
 26        -6.2964778338e-04
 27        -1.1175697222e-03
 28         8.6536718215e-05
 29        -4.2231494756e-03
 30         4.0076195251e-02
 31         3.2939673554e-02
 32         2.5599010789e-02
 33        -1.7864312699e-02
 34        -5.6989413775e-03
 35         1.9328732922e-02
 36         1.0900043632e-04
 37        -4.0391753882e-03
 38        -3.8149814097e-03
 39        -2.1015037447e-03
 40         8.9723041084e-04
 41         1.4765466264e-03
 42        -8.7897344231e-03
 43        -1.4903393190e-02
 44         2.1571687018e-01
 45         8.6710657359e-02
 46         1.7411282002e-01
 47        -2.1631168514e-03
 48        -2.0000949502e-02
 49         1.4307456129e-02
 50        -1.4398136339e-03
 51        -5.9521041814e-04
 52        -1.3731684446e-02
 53        -7.2585579195e-03
 54        -1.8466293423e-03
 55         3.1592863383e-02
 56        -5.7802703775e-03
 57        -9.6847035315e-03
 58         4.0020940767e-01
 59         3.7177918867e-01
 60        -1.4614924153e-01
 61         2.5839425930e-02
 62         1.3286249191e-02
 63        -3.3169944837e-02
 64         1.1831107401e-02
 65         1.8814400370e-03
 66        -6.1144142992e-03
 67        -2.4934281221e-03
 68        -1.3254386567e-03
 69         1.0472475342e-02
 70        -2.5709435245e-03
 71         3.6412483411e-02
 72         4.8396819454e-03
 73        -3.7515742727e-03
 74        -2.7839950922e-03
 75         2.4088079088e-03
 76         2.3590022203e-03
 77        -3.2993237535e-03
 78        -4.0089236074e-04
 79        -6.4980871803e-04
 80         3.0952605578e-04
 81         7.8145498493e-03
 82         2.7145345001e-03
 83        -8.8141138008e-04
 84        -1.0379332799e-03
 85        -1.0172830349e-03
 86         4.1933755998e-02
 87        -2.2770104043e-03
 88         8.8698564606e-03
 89         7.3285648568e-03
 90         6.1606046613e-04
 91         6.9405593455e-03
 92         5.9660508240e-03
 93         1.0277455201e-03
 94        -1.7459810377e-03
 95        -1.1389979962e-04
 96         2.7774053565e-03
 97        -1.0201971609e-03
 98        -1.0710299815e-04
 99        -7.8745694357e-04
100         9.6961078767e-05
 Sym= A
 Ene=        -8.1679206856e-01
 Spin= Alpha
 Occup=         2.0000000000e+00
  1         1.1382974659e-02
  2        -1.7619385393e-01
  3        -7.7003867302e-02
  4         7.4670419937e-02
  5         1.6808016680e-02
  6        -7.0183921143e-03
  7         2.7105309114e-03
  8        -9.4057706882e-03
  9         7.6310975496e-03
 10         5.9268700465e-03
 11         1.0114328069e-03
 12        -3.8272297263e-04
 13        -1.0893887077e-02
 14        -2.6753484877e-03
 15         1.9434685706e-02
 16        -2.8665664251e-01
 17        -2.0223919278e-01
 18        -1.1939311165e-02
 19         7.6856973163e-02
 20        -7.5922108612e-03
 21        -2.7550057154e-02
 22         3.0985635946e-02
 23        -9.1042764139e-03
 24         1.0435425683e-02
 25         2.3815353391e-03
 26         2.2408254685e-03
 27        -1.1379400583e-03
 28        -7.3459836092e-03
 29         1.7848139161e-02
 30        -2.4977929201e-01
 31        -1.3189887994e-01
 32        -6.4696575318e-02
 33        -5.0284379372e-02
 34         2.8432837466e-02
 35        -5.5642039186e-03
 36        -1.6234664016e-02
 37         7.2248778916e-03
 38         6.7638073859e-03
 39         3.3005341295e-03
 40         3.0849780916e-03
 41         7.8976182311e-03
 42        -7.9332283947e-03
 43         2.7431119692e-03
 44        -6.3113593201e-02
 45        -4.7171165213e-02
 46         8.8413146972e-02
 47        -8.5650385046e-02
 48        -1.0969421759e-02
 49         2.3905497119e-02
 50        -2.3546905649e-02
 51        -5.0434114419e-03
 52         2.8319145655e-03
 53        -8.2958657136e-04
 54        -1.3005034460e-03
 55         1.5065329150e-02
 56         3.6995362536e-03
 57        -5.0975373340e-04
 58         9.7194889394e-02
 59         9.7632561688e-02
 60        -1.7510183102e-02
 61        -2.4759045511e-02
 62         1.7780241841e-03
 63         2.2417054966e-04
 64        -9.5641640579e-03
 65        -1.3609221728e-04
 66         7.0140559585e-05
 67        -2.7689320406e-04
 68        -5.5715699905e-04
 69         1.8775751586e-03
 70         2.1327219287e-03
 71        -6.5653847752e-02
 72         1.9941909721e-03
 73         3.7911686818e-03
 74        -9.6856762783e-03
 75        -4.3302361014e-03
 76        -5.1832649715e-02
 77         2.2763068070e-03
 78         5.3855131894e-03
 79         6.8967612970e-03
 80        -3.6891944930e-03
 81        -6.5173542128e-02
 82        -4.7242813985e-03
 83         5.2062048277e-03
 84        -7.5248354045e-04
 85         7.9487615390e-03
 86        -1.4698118000e-02
 87        -1.1316491864e-03
 88         1.1228833980e-03
 89        -2.8673062105e-03
 90        -1.6934124820e-04
 91        -7.8670661133e-02
 92        -2.9325737851e-03
 93        -1.3480129531e-02
 94        -2.3747320483e-03
 95         7.7487890985e-04
 96        -9.4054214984e-02
 97        -1.3768714893e-02
 98        -6.6568006551e-03
 99         1.2254220210e-02
100        -4.7129081990e-03
 Sym= A
 Ene=        -7.1858724333e-01
 Spin= Alpha
 Occup=         2.0000000000e+00
  1         1.3608912438e-02
  2        -2.6666721873e-01
  3        -1.2059167998e-01
  4         2.9270971868e-02
  5         6.3161734250e-03
  6        -9.0824695728e-03
  7        -1.1002109489e-02
  8        -8.0967985041e-03
  9         6.0652964540e-03
 10         2.0251438091e-03
 11         5.1368403404e-05
 12        -9.6524034513e-04
 13        -3.4860093590e-03
 14         3.0627136897e-03
 15         5.8364702626e-03
 16        -7.2533091065e-02
 17        -9.4447902386e-02
 18        -1.3438812440e-01
 19        -7.6817126861e-02
 20         1.5208015189e-02
 21        -7.5307319638e-02
 22        -1.7379819344e-03
 23        -3.1148169437e-03
 24         3.2774036903e-03
 25        -3.2774287984e-04
 26        -1.2265628155e-03
 27        -1.7343969846e-02
 28         7.0672347985e-03
 29        -1.3348308289e-02
 30         2.2217340154e-01
 31         1.5702967924e-01
 32        -6.9956548401e-04
 33        -7.9661770238e-02
 34        -1.5180096437e-02
 35         2.6115501334e-02
 36        -2.8840058739e-02
 37        -2.0255085508e-03
 38        -3.3691539899e-03
 39        -3.7463440248e-04
 40         2.7462424424e-03
 41        -8.6916546085e-03
 42        -8.8228198162e-03
 43        -4.6831635935e-03
 44         1.9316104645e-01
 45         1.0411657863e-01
 46        -1.1187259418e-01
 47         5.5970208772e-02
 48         1.2546792908e-02
 49        -3.8313141942e-02
 50         1.2632970069e-02
 51         1.8250516241e-03