Generated by Psi4
        SP                           RHF                       CC-PVDZ
Number of atoms                            I               11
Charge                                     I                0
Multiplicity                               I                1
Number of electrons                        I               38
Number of alpha electrons                  I               19
Number of beta electrons                   I               19
Number of basis functions                  I              100
Number of independent functions            I              100
Atomic numbers                             I   N=          11
           6           6           6           6           8           1
           1           1           1           1           1
Nuclear charges                            R   N=          11
  6.00000000e+00  6.00000000e+00  6.00000000e+00  6.00000000e+00  8.00000000e+00
  1.00000000e+00  1.00000000e+00  1.00000000e+00  1.00000000e+00  1.00000000e+00
  1.00000000e+00
Current cartesian coordinates              R   N=          33
  1.98539787e+00  2.64977240e+00 -1.99885485e-01 -8.30131311e-01  2.39435758e+00
 -1.34012108e-01 -2.09905585e+00  1.92514235e-01  9.31551575e-02 -8.84934257e-01
 -2.31514428e+00  6.97049224e-02  1.38199018e+00 -2.72470087e+00  1.69786330e-01
  2.86489325e+00  1.08236737e+00 -1.23917408e+00  2.58991967e+00  4.46903700e+00
 -9.92326735e-01  2.73172412e+00  2.50595146e+00  1.74112136e+00 -2.22870093e+00
 -3.93495162e+00 -1.12710529e-01 -4.16629669e+00  2.00905356e-01  2.06254435e-01
 -1.95042842e+00  4.13387127e+00 -2.61282347e-01
Integer atomic weights                     I   N=          11
          12          12          12          12          16           1
           1           1           1           1           1
Real atomic weights                        R   N=          11
  1.20000000e+01  1.20000000e+01  1.20000000e+01  1.20000000e+01  1.59949146e+01
  1.00782503e+00  1.00782503e+00  1.00782503e+00  1.00782503e+00  1.00782503e+00
  1.00782503e+00
Number of primitive shells                 I              140
Number of contracted shells                I               48
Pure/Cartesian d shells                    I                0
Pure/Cartesian f shells                    I                0
Highest angular momentum                   I                2
Largest degree of contraction              I                8
Shell types                                I   N=          48
           0           0           0           1           1          -2
           0           0           0           1           1          -2
           0           0           0           1           1          -2
           0           0           0           1           1          -2
           0           0           0           1           1          -2
           0           0           1           0           0           1
           0           0           1           0           0           1
           0           0           1           0           0           1
Number of primitives per shell             I   N=          48
           8           8           1           3           1           1
           8           8           1           3           1           1
           8           8           1           3           1           1
           8           8           1           3           1           1
           8           8           1           3           1           1
           3           1           1           3           1           1
           3           1           1           3           1           1
           3           1           1           3           1           1
Shell to atom map                          I   N=          48
           1           1           1           1           1           1
           2           2           2           2           2           2
           3           3           3           3           3           3
           4           4           4           4           4           4
           5           5           5           5           5           5
           6           6           6           7           7           7
           8           8           8           9           9           9
          10          10          10          11          11          11
Primitive exponents                        R   N=         140
  6.66500000e+03  1.00000000e+03  2.28000000e+02  6.47100000e+01  2.10600000e+01
  7.49500000e+00  2.79700000e+00  5.21500000e-01  6.66500000e+03  1.00000000e+03
  2.28000000e+02  6.47100000e+01  2.10600000e+01  7.49500000e+00  2.79700000e+00
  5.21500000e-01  1.59600000e-01  9.43900000e+00  2.00200000e+00  5.45600000e-01
  1.51700000e-01  5.50000000e-01  6.66500000e+03  1.00000000e+03  2.28000000e+02
  6.47100000e+01  2.10600000e+01  7.49500000e+00  2.79700000e+00  5.21500000e-01
  6.66500000e+03  1.00000000e+03  2.28000000e+02  6.47100000e+01  2.10600000e+01
  7.49500000e+00  2.79700000e+00  5.21500000e-01  1.59600000e-01  9.43900000e+00
  2.00200000e+00  5.45600000e-01  1.51700000e-01  5.50000000e-01  6.66500000e+03
  1.00000000e+03  2.28000000e+02  6.47100000e+01  2.10600000e+01  7.49500000e+00
  2.79700000e+00  5.21500000e-01  6.66500000e+03  1.00000000e+03  2.28000000e+02
  6.47100000e+01  2.10600000e+01  7.49500000e+00  2.79700000e+00  5.21500000e-01
  1.59600000e-01  9.43900000e+00  2.00200000e+00  5.45600000e-01  1.51700000e-01
  5.50000000e-01  6.66500000e+03  1.00000000e+03  2.28000000e+02  6.47100000e+01
  2.10600000e+01  7.49500000e+00  2.79700000e+00  5.21500000e-01  6.66500000e+03
  1.00000000e+03  2.28000000e+02  6.47100000e+01  2.10600000e+01  7.49500000e+00
  2.79700000e+00  5.21500000e-01  1.59600000e-01  9.43900000e+00  2.00200000e+00
  5.45600000e-01  1.51700000e-01  5.50000000e-01  1.17200000e+04  1.75900000e+03
  4.00800000e+02  1.13700000e+02  3.70300000e+01  1.32700000e+01  5.02500000e+00
  1.01300000e+00  1.17200000e+04  1.75900000e+03  4.00800000e+02  1.13700000e+02
  3.70300000e+01  1.32700000e+01  5.02500000e+00  1.01300000e+00  3.02300000e-01
  1.77000000e+01  3.85400000e+00  1.04600000e+00  2.75300000e-01  1.18500000e+00
  1.30100000e+01  1.96200000e+00  4.44600000e-01  1.22000000e-01  7.27000000e-01
  1.30100000e+01  1.96200000e+00  4.44600000e-01  1.22000000e-01  7.27000000e-01
  1.30100000e+01  1.96200000e+00  4.44600000e-01  1.22000000e-01  7.27000000e-01
  1.30100000e+01  1.96200000e+00  4.44600000e-01  1.22000000e-01  7.27000000e-01
  1.30100000e+01  1.96200000e+00  4.44600000e-01  1.22000000e-01  7.27000000e-01
  1.30100000e+01  1.96200000e+00  4.44600000e-01  1.22000000e-01  7.27000000e-01
Contraction coefficients                   R   N=         140
  6.91583963e-04  5.32579615e-03  2.70607210e-02  1.01656846e-01  2.74574824e-01
  4.48294319e-01  2.84902611e-01  1.51948592e-02 -2.93269653e-04 -2.31803547e-03
 -1.14997860e-02 -4.68267270e-02 -1.28466169e-01 -3.01266272e-01 -2.55630702e-01
  1.09379336e+00  1.00000000e+00  5.69792516e-02  3.13207212e-01  7.60376742e-01
  1.00000000e+00  1.00000000e+00  6.91583963e-04  5.32579615e-03  2.70607210e-02
  1.01656846e-01  2.74574824e-01  4.48294319e-01  2.84902611e-01  1.51948592e-02
 -2.93269653e-04 -2.31803547e-03 -1.14997860e-02 -4.68267270e-02 -1.28466169e-01
 -3.01266272e-01 -2.55630702e-01  1.09379336e+00  1.00000000e+00  5.69792516e-02
  3.13207212e-01  7.60376742e-01  1.00000000e+00  1.00000000e+00  6.91583963e-04
  5.32579615e-03  2.70607210e-02  1.01656846e-01  2.74574824e-01  4.48294319e-01
  2.84902611e-01  1.51948592e-02 -2.93269653e-04 -2.31803547e-03 -1.14997860e-02
 -4.68267270e-02 -1.28466169e-01 -3.01266272e-01 -2.55630702e-01  1.09379336e+00
  1.00000000e+00  5.69792516e-02  3.13207212e-01  7.60376742e-01  1.00000000e+00
  1.00000000e+00  6.91583963e-04  5.32579615e-03  2.70607210e-02  1.01656846e-01
  2.74574824e-01  4.48294319e-01  2.84902611e-01  1.51948592e-02 -2.93269653e-04
 -2.31803547e-03 -1.14997860e-02 -4.68267270e-02 -1.28466169e-01 -3.01266272e-01
 -2.55630702e-01  1.09379336e+00  1.00000000e+00  5.69792516e-02  3.13207212e-01
  7.60376742e-01  1.00000000e+00  1.00000000e+00  7.09645947e-04  5.46727229e-03
  2.78231186e-02  1.04747740e-01  2.82920846e-01  4.48495239e-01  2.70816885e-01
  1.54502916e-02 -3.14443412e-04 -2.48213768e-03 -1.23163554e-02 -5.05389173e-02
 -1.39384903e-01 -3.25077495e-01 -2.29848308e-01  1.09537935e+00  1.00000000e+00
  6.26791663e-02  3.33536566e-01  7.41239642e-01  1.00000000e+00  1.00000000e+00
  3.34987264e-02  2.34800801e-01  8.13682958e-01  1.00000000e+00  1.00000000e+00
  3.34987264e-02  2.34800801e-01  8.13682958e-01  1.00000000e+00  1.00000000e+00
  3.34987264e-02  2.34800801e-01  8.13682958e-01  1.00000000e+00  1.00000000e+00
  3.34987264e-02  2.34800801e-01  8.13682958e-01  1.00000000e+00  1.00000000e+00
  3.34987264e-02  2.34800801e-01  8.13682958e-01  1.00000000e+00  1.00000000e+00
  3.34987264e-02  2.34800801e-01  8.13682958e-01  1.00000000e+00  1.00000000e+00
Coordinates of each shell                  R   N=         144
  1.98539787e+00  2.64977240e+00 -1.99885485e-01  1.98539787e+00  2.64977240e+00
 -1.99885485e-01  1.98539787e+00  2.64977240e+00 -1.99885485e-01  1.98539787e+00
  2.64977240e+00 -1.99885485e-01  1.98539787e+00  2.64977240e+00 -1.99885485e-01
  1.98539787e+00  2.64977240e+00 -1.99885485e-01 -8.30131311e-01  2.39435758e+00
 -1.34012108e-01 -8.30131311e-01  2.39435758e+00 -1.34012108e-01 -8.30131311e-01
  2.39435758e+00 -1.34012108e-01 -8.30131311e-01  2.39435758e+00 -1.34012108e-01
 -8.30131311e-01  2.39435758e+00 -1.34012108e-01 -8.30131311e-01  2.39435758e+00
 -1.34012108e-01 -2.09905585e+00  1.92514235e-01  9.31551575e-02 -2.09905585e+00
  1.92514235e-01  9.31551575e-02 -2.09905585e+00  1.92514235e-01  9.31551575e-02
 -2.09905585e+00  1.92514235e-01  9.31551575e-02 -2.09905585e+00  1.92514235e-01
  9.31551575e-02 -2.09905585e+00  1.92514235e-01  9.31551575e-02 -8.84934257e-01
 -2.31514428e+00  6.97049224e-02 -8.84934257e-01 -2.31514428e+00  6.97049224e-02
 -8.84934257e-01 -2.31514428e+00  6.97049224e-02 -8.84934257e-01 -2.31514428e+00
  6.97049224e-02 -8.84934257e-01 -2.31514428e+00  6.97049224e-02 -8.84934257e-01
 -2.31514428e+00  6.97049224e-02  1.38199018e+00 -2.72470087e+00  1.69786330e-01
  1.38199018e+00 -2.72470087e+00  1.69786330e-01  1.38199018e+00 -2.72470087e+00
  1.69786330e-01  1.38199018e+00 -2.72470087e+00  1.69786330e-01  1.38199018e+00
 -2.72470087e+00  1.69786330e-01  1.38199018e+00 -2.72470087e+00  1.69786330e-01
  2.86489325e+00  1.08236737e+00 -1.23917408e+00  2.86489325e+00  1.08236737e+00
 -1.23917408e+00  2.86489325e+00  1.08236737e+00 -1.23917408e+00  2.58991967e+00
  4.46903700e+00 -9.92326735e-01  2.58991967e+00  4.46903700e+00 -9.92326735e-01
  2.58991967e+00  4.46903700e+00 -9.92326735e-01  2.73172412e+00  2.50595146e+00
  1.74112136e+00  2.73172412e+00  2.50595146e+00  1.74112136e+00  2.73172412e+00
  2.50595146e+00  1.74112136e+00 -2.22870093e+00 -3.93495162e+00 -1.12710529e-01
 -2.22870093e+00 -3.93495162e+00 -1.12710529e-01 -2.22870093e+00 -3.93495162e+00
 -1.12710529e-01 -4.16629669e+00  2.00905356e-01  2.06254435e-01 -4.16629669e+00
  2.00905356e-01  2.06254435e-01 -4.16629669e+00  2.00905356e-01  2.06254435e-01
 -1.95042842e+00  4.13387127e+00 -2.61282347e-01 -1.95042842e+00  4.13387127e+00
 -2.61282347e-01 -1.95042842e+00  4.13387127e+00 -2.61282347e-01
Total Energy                               R     -2.312408904882610e+02
Alpha Orbital Energies                     R   N=         100
 -1.91347542e+01 -1.02725384e+01 -1.02228547e+01 -1.01974018e+01 -1.01900612e+01
 -1.03895397e+00 -8.10499380e-01 -7.17195021e-01 -6.28847070e-01 -5.33994155e-01
 -4.97035565e-01 -4.41012433e-01 -4.31622838e-01 -4.21981514e-01 -3.85379800e-01
 -3.78621091e-01 -3.75526282e-01 -2.74198707e-01 -2.49152993e-01 -6.51835252e-02
  5.29240587e-02  6.36506917e-02  8.95990867e-02  1.05087940e-01  1.29611699e-01
  1.46066033e-01  1.57753993e-01  2.16581512e-01  2.62140012e-01  3.23086783e-01
  3.40084571e-01  4.32384593e-01  4.38238150e-01  4.51564756e-01  4.75036347e-01
  4.85030234e-01  5.06926911e-01  5.26599257e-01  5.63531822e-01  6.00569231e-01
  6.15586126e-01  6.27515312e-01  6.38483108e-01  6.50186878e-01  6.67760350e-01
  6.85157761e-01  7.02780779e-01  7.68845098e-01  8.22631217e-01  8.52597320e-01
  9.12489084e-01  9.36586074e-01  9.61814576e-01  1.00826015e+00  1.02345599e+00
  1.04057325e+00  1.07974146e+00  1.14992462e+00  1.18581893e+00  1.19329800e+00
  1.29336639e+00  1.36289225e+00  1.39464453e+00  1.46848914e+00  1.47975157e+00
  1.49521790e+00  1.54777445e+00  1.56610215e+00  1.62097448e+00  1.62709152e+00
  1.65451879e+00  1.66165105e+00  1.67065359e+00  1.69257487e+00  1.73292076e+00
  1.75157346e+00  1.78547201e+00  1.80419024e+00  1.85013473e+00  1.92452422e+00
  1.96605191e+00  1.97363538e+00  2.01676283e+00  2.06085047e+00  2.10508880e+00
  2.23846141e+00  2.31672690e+00  2.33908224e+00  2.40130224e+00  2.41538115e+00
  2.42362304e+00  2.48909389e+00  2.57665557e+00  2.64907655e+00  2.69669071e+00
  2.79098774e+00  2.97930723e+00  3.06596811e+00  3.41957095e+00  3.47861268e+00
Alpha MO coefficients                      R   N=       10000
 -6.14660945e-05 -1.31280995e-04  3.26562059e-05  6.31936147e-05  3.84334071e-05
  1.46868846e-05 -1.93188287e-05 -7.64073696e-05  1.80216409e-04  6.26412552e-05
  3.45590114e-05  4.62043595e-05  6.80111189e-05 -1.01188245e-04 -2.15286709e-04
 -3.83116340e-04  5.59127436e-03 -2.04048459e-05 -1.61324709e-05 -4.29478041e-05
 -1.02504758e-03 -2.36094187e-03  3.66736528e-04 -3.64281661e-05  1.35529579e-05
 -1.16096353e-05 -5.19550602e-05 -4.84312564e-05  2.16828883e-04  3.33563393e-04
 -4.21933242e-03  2.52253624e-05  2.83301592e-04 -1.56348237e-05 -4.63582975e-03
 -3.58285525e-03  1.97316300e-04  1.41315489e-04  2.62716508e-05  7.53189681e-05
 -3.69147336e-04  5.03777455e-04  4.47231715e-04  5.85834939e-04  5.43710879e-03
 -1.02319226e-04 -1.78607869e-04 -2.07511748e-05  6.63293597e-03  6.00491205e-04
  2.45147195e-04 -3.14799751e-05 -1.89763711e-05  6.34945357e-05 -1.15918092e-03
  5.17011736e-04  1.00416895e+00  9.46929679e-03 -1.51241949e-02 -1.83370542e-03
  3.58902239e-04 -9.81811619e-05  3.50794502e-03 -8.46283268e-04  1.75625191e-04
 -1.89700742e-05  5.36154353e-06 -1.95866328e-06  6.65462392e-05  8.31821874e-06
 -1.05580242e-04 -8.77219198e-05  4.64523548e-05  1.98846949e-05  8.04486708e-06
  1.20022145e-04  3.42169224e-04 -7.08412822e-05 -7.50332678e-05  3.74634648e-05
 -8.70682127e-05 -2.50385041e-04  6.36392627e-05  5.56808320e-05  5.26934460e-05
 -1.60912297e-04  9.20134298e-04 -7.66366353e-04  1.07467873e-04 -2.27325858e-05
 -2.70085491e-04 -1.33693615e-03  1.89378218e-04  2.57878540e-04  5.72125972e-06
 -1.83534426e-04  2.46699774e-04  4.73668325e-05  8.56878609e-05 -2.10519166e-05
 -3.59099608e-04 -4.71204971e-04  8.79887594e-04  2.93632069e-04  6.48887801e-05
 -3.03843413e-06 -6.14506895e-04  1.38797979e-04  5.96730008e-05 -3.55903566e-06
 -4.50472637e-05  1.76505106e-05 -1.24612090e-04 -4.96962227e-05 -4.27598958e-04
 -6.30771845e-04  6.71991133e-03 -2.71183262e-04 -2.56800839e-05  3.47099342e-05
 -2.25584350e-03 -3.93172710e-03  4.47336473e-04 -4.20722276e-04 -1.42309927e-04
 -7.64514419e-05  3.16343536e-04  3.72749935e-04  1.63988550e-03 -2.44719449e-04
 -2.16870479e-03 -3.48244587e-04  7.59069415e-04  1.93781113e-05 -2.67907790e-03
 -6.11424681e-03  3.41504272e-04  1.05399410e-03 -2.21768596e-05  1.77967898e-05
  1.14252376e-03  8.51117583e-04  1.00593811e+00  1.52779125e-02 -1.07663362e-02
  7.19792823e-04 -4.98476600e-04 -2.70481498e-05  5.42804903e-03 -2.07167916e-03
  1.20709216e-04 -1.64333492e-03  2.48325773e-04  1.13402585e-04  8.06022688e-04
  1.52515987e-05  3.68441649e-04  9.13685378e-04 -5.92954477e-03  7.36979524e-04
 -2.13434177e-04  1.97666886e-05  3.38888209e-03 -2.17626140e-04  1.81655889e-04
  5.65151259e-04 -6.97859544e-05 -2.70241609e-06 -7.16692004e-04  2.58864540e-04
 -9.95134310e-05 -9.28646213e-06  5.81722002e-05  2.33576172e-05 -1.53016122e-05
 -4.59642316e-05  3.33242644e-04 -5.73379714e-05 -3.46745319e-05  3.15583510e-06
 -5.55686344e-05 -3.50028361e-05  9.68513053e-05  3.98995354e-05 -3.74916241e-05
 -1.68642951e-03  2.48448624e-03 -1.44331730e-03 -1.46087493e-03 -1.70719473e-04
 -5.05515467e-04 -4.81657992e-04  5.63055740e-05  3.14296382e-04 -2.48272077e-05
 -3.45479610e-05  6.25682672e-04  2.32985479e-04  1.06440705e-04 -2.38698936e-05
  3.15621558e-03 -4.29263282e-04  4.42960487e-03  7.26671923e-04  6.38100488e-05
  6.24224937e-05 -2.41224246e-03 -9.43274767e-04 -4.19498542e-04  7.98935121e-04
  8.40842127e-05  1.54136594e-05 -1.00379067e-03 -1.15189787e-05  1.00631729e+00
  1.61300525e-02 -2.01008098e-02 -5.30944402e-04  2.15518889e-04  1.10183787e-05
 -2.26617495e-03  3.79867918e-03 -2.48684085e-04 -1.06703344e-03  5.69601965e-05
 -1.95019199e-04 -5.46828276e-04 -3.39338506e-04  1.30429912e-02 -1.26905696e-03
  4.84136937e-03 -7.48446441e-04 -1.09015863e-03  1.28286996e-04  2.73360622e-03
  2.47139870e-03 -2.58069696e-04  8.78521784e-04  1.10817346e-04  2.23610129e-04
  5.31934443e-04 -9.67963047e-04 -2.68013364e-04 -5.28632493e-04  1.01930943e-03
 -2.91373115e-05 -2.09589579e-04  2.87441857e-05 -3.23870988e-04  1.02087592e-03
 -2.93303429e-05 -3.30810397e-04 -6.03522183e-05 -8.99974752e-06  1.76979599e-04
 -4.31230282e-05 -3.39517632e-05 -7.28030064e-05 -1.58973700e-04  1.21899608e-04
  7.94140978e-06  1.78687148e-05 -9.65102643e-05 -3.04007261e-04  1.50774165e-05
  1.11259636e-05 -2.14737601e-05  4.22461433e-06 -1.19909588e-06  2.04098276e-05
 -4.35559304e-04  2.84588464e-04 -6.31805499e-05  1.74045280e-05  7.23346935e-05
 -3.19247050e-04  2.43432601e-04  1.08728840e-04  5.27427077e-05  7.00296552e-05
 -4.79404893e-04  1.18439106e-03 -1.54886760e-04  9.61121565e-06  1.97057571e-05
 -5.48128269e-05  3.73461227e-04  4.93799207e-05 -6.35932904e-05 -1.11575644e-05
  1.33726769e-04  9.43909473e-04  1.40836913e-04 -2.45161203e-04  1.53968062e-06
 -2.40926810e-03  1.13374577e-03 -1.22624766e-03  1.79572706e-03 -1.23420742e-04
  1.26218545e-03  4.39260102e-04 -6.98310844e-05 -1.00419659e-04 -1.25959662e-04
  9.41556786e-05  7.71882433e-04 -3.46487800e-05 -2.23220367e-04  3.07617124e-04
  3.80976209e-05  2.44304176e-05 -5.62151337e-05  1.61621440e-04  1.45453202e-02
  1.77615787e-03 -6.55637824e-03 -5.98076568e-04 -1.20923403e-03  1.27137717e-04
  5.85388893e-04  3.95627601e-03 -1.77050633e-04 -9.23149927e-04 -1.29870499e-04
 -2.14434029e-04 -5.61390497e-04  9.66855509e-04 -1.00648608e+00 -1.65581886e-02
  2.13822049e-02  3.17673780e-04 -2.72618797e-04  9.08151849e-05  5.48434474e-03
  3.02050802e-04 -5.96137491e-04  1.08487312e-03  1.56199609e-04  9.48054624e-05
 -4.12333151e-04 -4.31644827e-04  1.95736288e-03  7.93636037e-04 -5.76488010e-03
 -2.61286872e-04  7.28018633e-04  3.01064325e-05 -4.93393810e-04 -3.51039135e-03
  4.53979278e-05 -7.01419237e-04 -1.07082112e-04  7.46457752e-06 -5.97578437e-04
 -1.20706105e-03 -4.11500394e-05 -7.12634452e-05  8.33645024e-04 -2.24500836e-05
  6.81129478e-05  3.35371056e-05  1.14263286e-04  6.26379265e-04 -4.98874533e-05
  1.29075325e-04 -3.97997083e-05 -1.51652196e-05 -7.72991199e-05 -2.20981900e-04
  1.38200814e-04 -3.46219029e-04 -2.55492521e-05 -6.91289344e-05  5.64791029e-05
 -4.66662248e-05 -2.98473551e-04 -3.84055801e-05  5.82463401e-05  2.37279348e-05
  2.18087814e-05 -1.53544582e-04 -4.81428902e-05 -7.41243839e-05  1.35494436e-04
  2.63683412e-04 -9.98464188e-04 -8.15246596e-05  2.02026452e-04 -3.13182680e-05
  2.47195759e-03 -7.85389080e-04  2.15836819e-03 -1.30309684e-04 -8.29515471e-05
 -1.10336142e-04 -9.34842189e-04 -2.75215209e-04  3.80113791e-05 -1.82291157e-05
  1.00701546e+00  1.74911587e-02 -1.93132393e-02  4.44043799e-04  8.22007797e-05
  1.54214617e-04  2.88586116e-03  3.00318611e-04 -4.97759261e-04  2.32746505e-04
 -6.88720563e-07 -1.05009310e-04 -5.99234279e-04 -4.20404108e-05 -3.36859730e-03
 -2.74205311e-04  1.69262611e-03 -4.93447140e-04  5.46589907e-05  6.94279066e-06
  4.26582392e-03  2.34805327e-03 -2.29872563e-04  6.25572721e-04  1.02990768e-04
 -2.06437552e-06 -1.34452592e-03 -4.71828997e-04  6.27884334e-04 -6.16861361e-04
  3.58583656e-03 -2.22106843e-04  6.15437547e-05  2.09658959e-07  1.09206990e-03
  2.58903754e-03 -2.87066544e-04 -3.61888756e-04  2.15207033e-05 -7.72166649e-05
 -4.81691838e-04 -2.12162332e-04 -1.18823124e-04 -4.94200111e-04  4.92402881e-04
 -5.60344866e-05 -2.77128376e-04 -2.65650393e-05 -1.38660942e-04  5.08452802e-04
  9.43461431e-05 -3.02360431e-05 -2.34466566e-05 -1.70105411e-05  3.48848316e-05
  4.11301184e-05 -9.21171029e-05 -1.81019510e-04  2.60376180e-04  1.87673058e-05
 -1.19823237e-04 -1.47363344e-05 -1.73607487e-04  2.56129497e-04  4.46660107e-05
 -5.19091516e-05  2.12578955e-06  3.45751350e-06  1.28558104e-09 -1.72370144e-06
 -1.16782357e-03  1.97916445e-03  6.52851556e-04 -1.46472466e-03 -9.72796561e-04
 -1.43309884e-03  1.84558615e-03  5.30515250e-04  1.80601676e-03 -7.70111042e-04
 -1.10612646e-03  2.36620557e-03  5.18807131e-04 -1.54636425e-04  1.83417174e-03
  2.13695863e-05  3.96884865e-04  8.06363952e-06  6.61768356e-05 -1.17957709e-05
  4.27166530e-05  4.39550231e-04  7.62755172e-05 -1.97123376e-04  2.02219254e-05
 -4.17515054e-04  1.65209352e-04 -3.85880436e-04 -1.43152174e-04  2.08014126e-05
 -4.93224913e-04  7.36899639e-03  5.53469287e-03 -3.24671835e-03 -3.54824406e-03
 -5.19657038e-05 -2.97791716e-03 -1.89410733e-03  8.50995450e-04 -6.81369861e-04
 -1.60925839e-04 -1.80581416e-04  1.26260964e-04  8.92912852e-04  5.42729830e-04
  1.68769555e-02 -1.25083851e-02  1.56821797e-04 -1.06981706e-02  8.87883666e-04
 -2.16676382e-03  9.66641001e-03 -9.46767952e-04 -4.74105640e-04 -1.69934045e-04
 -3.77575525e-04 -1.56448246e-03  7.50854307e-04 -3.68256551e-03  3.65236932e-02
  3.23629062e-02  2.11208882e-02 -1.99201046e-02 -1.56929652e-04  2.00116502e-02
  1.50808155e-03 -1.16798253e-03 -3.79891804e-03 -1.37718546e-04 -3.06958861e-04
 -5.49573766e-04 -9.08707777e-03 -1.46892790e-02  2.24557415e-01  9.42411277e-02
  1.84158122e-01 -2.48716439e-02  8.10420402e-03  1.24411359e-02 -2.64611804e-03
  1.05116847e-03 -1.36317858e-02  1.96667773e-03 -1.31085562e-03  3.12640606e-02
 -1.37684216e-02 -9.17054168e-03  4.02093956e-01  3.60613833e-01 -1.55002232e-01
  3.12752998e-02 -7.34634274e-03 -3.17439942e-02  7.29538891e-03 -2.07248462e-03
 -5.29692080e-03  8.55460446e-04 -6.50704538e-04  1.20930836e-02 -5.03272469e-03
  6.25643664e-03  3.46207761e-03 -6.68061785e-04 -4.58069791e-04  6.50746526e-04
  1.04966550e-03 -2.80088658e-04  2.84718665e-05 -1.59099005e-05 -6.14020538e-05
  2.36577066e-03  8.60580295e-04 -3.06653768e-04 -2.93461573e-04 -5.10669030e-04
  4.02951316e-02 -3.36526695e-03  1.00908858e-02  6.12445596e-03  9.03027176e-04
  7.13505101e-03  6.04705617e-03  9.59368432e-04 -1.92336991e-03 -6.12961874e-05
  1.85541106e-03 -3.17509626e-03 -1.88523307e-04 -8.45730624e-04  1.06945849e-04
  1.11500459e-02 -1.80457746e-01 -7.39835740e-02  6.64522609e-02  1.29620145e-02
 -4.39708022e-03  2.61951647e-03 -8.62691526e-03  1.64837455e-03  5.72264990e-03
  6.21194623e-04 -6.19696306e-05 -9.97134809e-03 -3.26651220e-03  1.99655223e-02
 -2.90277111e-01 -2.02763988e-01 -2.46416893e-03  6.92562158e-02 -6.41341722e-03
 -3.24388976e-02  2.37164539e-02 -2.06251995e-03  1.00097190e-02  1.07165419e-03
  1.41792626e-03 -2.42673919e-03 -1.05643308e-02  1.71947411e-02 -2.54653111e-01
 -1.39744900e-01 -5.90848569e-02 -5.74381671e-02  1.01728093e-02 -2.33649131e-03
 -2.26264718e-02  2.68929890e-03  6.91331895e-03  1.14265480e-03  1.55338893e-03
  8.80564292e-03 -8.86041395e-03  2.54402094e-03 -6.42736720e-02 -5.17599022e-02
  7.12148830e-02 -8.07046863e-02  3.13758921e-03  2.44065795e-02 -2.28119150e-02
 -1.19805797e-05  2.70410049e-03  5.55170683e-04 -4.46977891e-05  1.35147700e-02
  3.02802331e-03 -3.50655901e-04  7.65407704e-02  7.34371225e-02 -1.19591388e-02
 -1.64639360e-02 -1.10113688e-04  1.34895686e-03 -7.03513751e-03  5.91328303e-04
  1.79276222e-04  4.27287130e-05  1.03622859e-04  1.67003039e-03  1.59951954e-03
 -6.69644558e-02 -2.82959316e-03  4.88962683e-03 -7.47131991e-03 -5.21263918e-03
 -6.13289384e-02 -1.24795676e-03  4.49058207e-03  8.44550736e-03 -3.58753615e-03
 -6.81264800e-02 -3.42205147e-03  4.49780101e-03  5.92804162e-05  9.14029100e-03
 -1.82665271e-02  4.68756685e-04  7.77977960e-05 -3.43352952e-03 -4.82141556e-05
 -8.34381585e-02 -2.31853825e-03 -1.42550117e-02 -1.69921040e-03  9.55553271e-04
 -1.00102833e-01 -1.33408537e-02 -7.01724073e-03  1.39804354e-02 -1.00952720e-03
  1.43530127e-02 -2.85747812e-01 -1.19922668e-01  1.86808107e-02 -9.81953835e-03
 -4.08024974e-03 -1.67161328e-02 -7.64161711e-03 -1.98736938e-05  1.48866543e-03
 -5.48633883e-06 -1.58492070e-04 -2.97468213e-03  2.28408634e-03  5.41266923e-03
 -5.04479624e-02 -8.67638944e-02 -1.37970408e-01 -9.15839895e-02  8.56804936e-03
 -9.18346440e-02 -6.79295273e-03  2.22980348e-03  3.89205468e-03 -6.58731009e-05
 -8.12254068e-04 -1.74936868e-02  3.76440197e-03 -1.38850782e-02  2.27210656e-01
  1.67471708e-01 -6.01264362e-03 -5.82018083e-02 -1.96448963e-03  3.60388397e-02
 -3.87969368e-02 -9.17005843e-04 -4.65138053e-03  2.23486491e-05  4.77118421e-05
 -9.86378768e-03 -5.61219385e-03 -3.15826464e-03  1.55446811e-01  6.53288485e-02
 -1.08996398e-01  7.63376116e-02 -2.43927709e-03 -3.80810585e-02  8.07481936e-03
 -1.59650492e-03 -1.64951560e-03 -4.91817556e-04  9.81327160e-05 -9.80972455e-03
 -5.63760213e-03 -2.50410591e-04 -8.41163717e-02 -8.38143996e-02 -2.01320190e-02
  8.15018945e-03  9.00048463e-04 -2.12014178e-02  2.33947029e-03 -2.86441590e-04
 -9.68465326e-04  1.10146993e-04  1.92560983e-04  1.09126825e-03 -2.00221316e-03
 -1.22091131e-01 -1.69109007e-02  6.99019094e-03 -1.27495539e-02 -8.33517376e-03
 -1.33962030e-01 -1.62020277e-02  5.41235547e-03  1.57192516e-02 -7.12547383e-03
 -1.30181010e-01 -1.61577063e-02  6.09074352e-03 -1.72318371e-03  1.62447874e-02
  7.29325570e-02  2.87887850e-03  3.54761982e-03  8.87583661e-03  7.59273477e-04
  1.15294660e-01  2.30670023e-02  1.46231612e-02 -1.25807056e-03 -8.32339481e-04
 -2.95724643e-02 -1.65145024e-02 -4.13108195e-03  8.45954546e-04  7.08960536e-07
  5.56110158e-03 -1.77598507e-01 -9.70542847e-02 -7.45952925e-02 -4.67487498e-03
 -2.91830918e-03 -3.85966308e-02 -6.37554554e-03  6.32008512e-03 -4.96799679e-03
 -7.41880514e-04 -2.19083053e-04  7.36794036e-03  8.46054114e-04 -5.29042341e-03
  2.10316638e-01  9.84856703e-02 -1.40819993e-01 -1.43264684e-02  6.00443918e-03
 -4.26144984e-02  4.70155011e-04 -6.55127364e-04  2.72605424e-03 -9.56766607e-04
 -6.20500429e-04 -5.30907662e-03  3.53017962e-03 -1.41372038e-03  1.27690697e-03
  1.28461773e-02  9.87661369e-03  2.47927380e-01 -1.02189904e-02  6.44332674e-03
  7.65182625e-02 -2.41896344e-03  6.44690904e-04 -3.72703424e-04 -2.43742541e-03
  1.65184307e-03  1.13250987e-02  2.51270600e-03 -2.34187838e-01 -1.52504272e-01
  1.55464639e-01 -2.64502573e-02  6.76904595e-03  4.74900119e-02 -1.89555085e-02
  1.79852051e-03 -1.14049476e-03  9.33965813e-04 -3.84303469e-04  5.88765804e-03
  1.70197702e-03  9.97456609e-04  1.22758324e-01  1.43188742e-01  5.23112663e-02
 -9.78498565e-03  3.21213669e-03  3.98449798e-02 -6.18127823e-03  2.57259050e-03
  2.55726729e-03 -2.95207488e-04  3.93947051e-05 -2.32233908e-03  6.52048226e-04
 -1.01591703e-01 -8.00116274e-03  3.56249861e-03 -1.00179423e-02 -5.90290506e-03
 -1.03652662e-01 -1.59851052e-02  1.67025134e-03  1.05869124e-02 -5.07169824e-03
 -1.06978508e-01 -2.04448089e-02  3.18032969e-03 -8.96870840e-04  1.12819964e-02
 -1.58981801e-01 -2.86713193e-02 -7.99409993e-03 -1.42275816e-02 -1.39437393e-03
 -4.92484776e-03 -3.70123703e-04 -2.63976635e-04  4.98262615e-03 -1.99958170e-04
  1.47525850e-01  2.52287787e-02  6.74221832e-03 -1.49942947e-02  1.31816194e-03
  1.61914206e-03 -4.56560804e-02 -3.60309628e-02 -1.17234839e-01  8.82171476e-02
 -6.05799895e-03 -3.35769714e-02  3.69132956e-02 -4.59533439e-03 -5.27163244e-03
  3.18598931e-04 -1.62249170e-03  9.58275337e-03 -6.13546262e-03 -2.41409174e-03
  1.43079878e-01  9.98114587e-02  2.07071212e-04  2.23149762e-01 -2.17706935e-02
  2.59671723e-02  6.91965291e-02 -6.99735250e-03  4.05320323e-03  1.12387711e-03
  9.87141731e-04  5.92620334e-04 -6.60005240e-03  2.87429847e-03 -1.53092758e-01
 -1.06037586e-01 -1.79930644e-02  1.43776372e-03 -5.88349536e-03 -2.06748765e-02
  3.07527661e-02 -4.56656178e-03 -4.02719244e-03  1.44299055e-04 -5.58490535e-04
 -1.34035947e-02  1.37859102e-03  5.69462962e-04  1.57969249e-01  1.20732302e-01
 -6.15767460e-02 -2.38449344e-01 -1.42390384e-02 -4.78777030e-02 -5.31129957e-02
 -3.76590905e-03  5.26337869e-03  3.13458561e-04 -7.16572095e-05 -2.21509535e-04
  1.28120611e-03  3.36406733e-04 -8.66375279e-02 -1.20707669e-01 -1.40658628e-01
 -1.10238766e-01 -8.47223096e-03 -8.31114428e-02 -6.08327356e-02 -4.76764657e-03
 -3.51962770e-03  1.18615735e-03  6.03112178e-04  8.90550493e-03  6.78813479e-03
 -1.08918761e-01 -3.49105451e-02  1.77745713e-03 -4.75312954e-03 -6.07122682e-03
  3.02874997e-03 -4.50078910e-03 -3.39068777e-03  2.17501793e-03  1.03073510e-05
 -6.35019231e-02 -1.95781772e-02 -7.30889115e-04  2.39726628e-03  5.90787603e-03
  2.29904119e-01  6.02261895e-02  1.17192263e-02  1.28571263e-02  1.70741766e-03
 -8.27165613e-02 -2.99367358e-02 -8.56491537e-03 -7.10325012e-04  3.75245661e-04
  2.17412560e-01  6.45384657e-02  1.08042036e-02 -1.23015365e-02  8.03365091e-04
  2.80042699e-03 -4.82252016e-02 -4.96774885e-02 -1.48023513e-01 -9.69722577e-02
  5.53108584e-03 -3.36047893e-02 -4.05578494e-02 -3.06958774e-03 -5.24962333e-03
 -8.82221118e-04  2.08599219e-03  7.60992338e-03  4.48636542e-03  8.29642569e-04
  8.73109269e-02  5.56614029e-02  1.39752397e-01 -1.12988469e-01  9.08998031e-04
  8.59697810e-02 -2.93443504e-02 -1.71394786e-03  1.73659955e-03  1.52626900e-03
  5.63197052e-04 -9.81945610e-03 -1.06484410e-02  5.59920312e-03 -7.26983203e-02