Generated by Psi4
        SP                           RHF                       CC-PVDZ
Number of atoms                            I               11
Charge                                     I                0
Multiplicity                               I                1
Number of electrons                        I               38
Number of alpha electrons                  I               19
Number of beta electrons                   I               19
Number of basis functions                  I              100
Number of independent functions            I              100
Atomic numbers                             I   N=          11
           6           6           6           6           8           1
           1           1           1           1           1
Nuclear charges                            R   N=          11
  6.00000000e+00  6.00000000e+00  6.00000000e+00  6.00000000e+00  8.00000000e+00
  1.00000000e+00  1.00000000e+00  1.00000000e+00  1.00000000e+00  1.00000000e+00
  1.00000000e+00
Current cartesian coordinates              R   N=          33
  1.96415494e+00  2.62494298e+00 -2.00451184e-01 -8.58038989e-01  2.40056007e+00
 -1.44056182e-01 -2.10295490e+00  1.86872792e-01  1.47638447e-01 -8.60964267e-01
 -2.30651278e+00  7.56251229e-02  1.40982793e+00 -2.70169334e+00  1.33159668e-01
  2.79318901e+00  1.01164017e+00 -1.20983766e+00  2.63171466e+00  4.43485138e+00
 -9.78444192e-01  2.68405659e+00  2.44671011e+00  1.75528942e+00 -2.21385573e+00
 -3.91596786e+00 -1.60457927e-01 -4.16684010e+00  1.67165518e-01  2.80106019e-01
 -1.98271208e+00  4.13382092e+00 -3.56367120e-01
Integer atomic weights                     I   N=          11
          12          12          12          12          16           1
           1           1           1           1           1
Real atomic weights                        R   N=          11
  1.20000000e+01  1.20000000e+01  1.20000000e+01  1.20000000e+01  1.59949146e+01
  1.00782503e+00  1.00782503e+00  1.00782503e+00  1.00782503e+00  1.00782503e+00
  1.00782503e+00
Number of primitive shells                 I              140
Number of contracted shells                I               48
Pure/Cartesian d shells                    I                0
Pure/Cartesian f shells                    I                0
Highest angular momentum                   I                2
Largest degree of contraction              I                8
Shell types                                I   N=          48
           0           0           0           1           1          -2
           0           0           0           1           1          -2
           0           0           0           1           1          -2
           0           0           0           1           1          -2
           0           0           0           1           1          -2
           0           0           1           0           0           1
           0           0           1           0           0           1
           0           0           1           0           0           1
Number of primitives per shell             I   N=          48
           8           8           1           3           1           1
           8           8           1           3           1           1
           8           8           1           3           1           1
           8           8           1           3           1           1
           8           8           1           3           1           1
           3           1           1           3           1           1
           3           1           1           3           1           1
           3           1           1           3           1           1
Shell to atom map                          I   N=          48
           1           1           1           1           1           1
           2           2           2           2           2           2
           3           3           3           3           3           3
           4           4           4           4           4           4
           5           5           5           5           5           5
           6           6           6           7           7           7
           8           8           8           9           9           9
          10          10          10          11          11          11
Primitive exponents                        R   N=         140
  6.66500000e+03  1.00000000e+03  2.28000000e+02  6.47100000e+01  2.10600000e+01
  7.49500000e+00  2.79700000e+00  5.21500000e-01  6.66500000e+03  1.00000000e+03
  2.28000000e+02  6.47100000e+01  2.10600000e+01  7.49500000e+00  2.79700000e+00
  5.21500000e-01  1.59600000e-01  9.43900000e+00  2.00200000e+00  5.45600000e-01
  1.51700000e-01  5.50000000e-01  6.66500000e+03  1.00000000e+03  2.28000000e+02
  6.47100000e+01  2.10600000e+01  7.49500000e+00  2.79700000e+00  5.21500000e-01
  6.66500000e+03  1.00000000e+03  2.28000000e+02  6.47100000e+01  2.10600000e+01
  7.49500000e+00  2.79700000e+00  5.21500000e-01  1.59600000e-01  9.43900000e+00
  2.00200000e+00  5.45600000e-01  1.51700000e-01  5.50000000e-01  6.66500000e+03
  1.00000000e+03  2.28000000e+02  6.47100000e+01  2.10600000e+01  7.49500000e+00
  2.79700000e+00  5.21500000e-01  6.66500000e+03  1.00000000e+03  2.28000000e+02
  6.47100000e+01  2.10600000e+01  7.49500000e+00  2.79700000e+00  5.21500000e-01
  1.59600000e-01  9.43900000e+00  2.00200000e+00  5.45600000e-01  1.51700000e-01
  5.50000000e-01  6.66500000e+03  1.00000000e+03  2.28000000e+02  6.47100000e+01
  2.10600000e+01  7.49500000e+00  2.79700000e+00  5.21500000e-01  6.66500000e+03
  1.00000000e+03  2.28000000e+02  6.47100000e+01  2.10600000e+01  7.49500000e+00
  2.79700000e+00  5.21500000e-01  1.59600000e-01  9.43900000e+00  2.00200000e+00
  5.45600000e-01  1.51700000e-01  5.50000000e-01  1.17200000e+04  1.75900000e+03
  4.00800000e+02  1.13700000e+02  3.70300000e+01  1.32700000e+01  5.02500000e+00
  1.01300000e+00  1.17200000e+04  1.75900000e+03  4.00800000e+02  1.13700000e+02
  3.70300000e+01  1.32700000e+01  5.02500000e+00  1.01300000e+00  3.02300000e-01
  1.77000000e+01  3.85400000e+00  1.04600000e+00  2.75300000e-01  1.18500000e+00
  1.30100000e+01  1.96200000e+00  4.44600000e-01  1.22000000e-01  7.27000000e-01
  1.30100000e+01  1.96200000e+00  4.44600000e-01  1.22000000e-01  7.27000000e-01
  1.30100000e+01  1.96200000e+00  4.44600000e-01  1.22000000e-01  7.27000000e-01
  1.30100000e+01  1.96200000e+00  4.44600000e-01  1.22000000e-01  7.27000000e-01
  1.30100000e+01  1.96200000e+00  4.44600000e-01  1.22000000e-01  7.27000000e-01
  1.30100000e+01  1.96200000e+00  4.44600000e-01  1.22000000e-01  7.27000000e-01
Contraction coefficients                   R   N=         140
  6.91583963e-04  5.32579615e-03  2.70607210e-02  1.01656846e-01  2.74574824e-01
  4.48294319e-01  2.84902611e-01  1.51948592e-02 -2.93269653e-04 -2.31803547e-03
 -1.14997860e-02 -4.68267270e-02 -1.28466169e-01 -3.01266272e-01 -2.55630702e-01
  1.09379336e+00  1.00000000e+00  5.69792516e-02  3.13207212e-01  7.60376742e-01
  1.00000000e+00  1.00000000e+00  6.91583963e-04  5.32579615e-03  2.70607210e-02
  1.01656846e-01  2.74574824e-01  4.48294319e-01  2.84902611e-01  1.51948592e-02
 -2.93269653e-04 -2.31803547e-03 -1.14997860e-02 -4.68267270e-02 -1.28466169e-01
 -3.01266272e-01 -2.55630702e-01  1.09379336e+00  1.00000000e+00  5.69792516e-02
  3.13207212e-01  7.60376742e-01  1.00000000e+00  1.00000000e+00  6.91583963e-04
  5.32579615e-03  2.70607210e-02  1.01656846e-01  2.74574824e-01  4.48294319e-01
  2.84902611e-01  1.51948592e-02 -2.93269653e-04 -2.31803547e-03 -1.14997860e-02
 -4.68267270e-02 -1.28466169e-01 -3.01266272e-01 -2.55630702e-01  1.09379336e+00
  1.00000000e+00  5.69792516e-02  3.13207212e-01  7.60376742e-01  1.00000000e+00
  1.00000000e+00  6.91583963e-04  5.32579615e-03  2.70607210e-02  1.01656846e-01
  2.74574824e-01  4.48294319e-01  2.84902611e-01  1.51948592e-02 -2.93269653e-04
 -2.31803547e-03 -1.14997860e-02 -4.68267270e-02 -1.28466169e-01 -3.01266272e-01
 -2.55630702e-01  1.09379336e+00  1.00000000e+00  5.69792516e-02  3.13207212e-01
  7.60376742e-01  1.00000000e+00  1.00000000e+00  7.09645947e-04  5.46727229e-03
  2.78231186e-02  1.04747740e-01  2.82920846e-01  4.48495239e-01  2.70816885e-01
  1.54502916e-02 -3.14443412e-04 -2.48213768e-03 -1.23163554e-02 -5.05389173e-02
 -1.39384903e-01 -3.25077495e-01 -2.29848308e-01  1.09537935e+00  1.00000000e+00
  6.26791663e-02  3.33536566e-01  7.41239642e-01  1.00000000e+00  1.00000000e+00
  3.34987264e-02  2.34800801e-01  8.13682958e-01  1.00000000e+00  1.00000000e+00
  3.34987264e-02  2.34800801e-01  8.13682958e-01  1.00000000e+00  1.00000000e+00
  3.34987264e-02  2.34800801e-01  8.13682958e-01  1.00000000e+00  1.00000000e+00
  3.34987264e-02  2.34800801e-01  8.13682958e-01  1.00000000e+00  1.00000000e+00
  3.34987264e-02  2.34800801e-01  8.13682958e-01  1.00000000e+00  1.00000000e+00
  3.34987264e-02  2.34800801e-01  8.13682958e-01  1.00000000e+00  1.00000000e+00
Coordinates of each shell                  R   N=         144
  1.96415494e+00  2.62494298e+00 -2.00451184e-01  1.96415494e+00  2.62494298e+00
 -2.00451184e-01  1.96415494e+00  2.62494298e+00 -2.00451184e-01  1.96415494e+00
  2.62494298e+00 -2.00451184e-01  1.96415494e+00  2.62494298e+00 -2.00451184e-01
  1.96415494e+00  2.62494298e+00 -2.00451184e-01 -8.58038989e-01  2.40056007e+00
 -1.44056182e-01 -8.58038989e-01  2.40056007e+00 -1.44056182e-01 -8.58038989e-01
  2.40056007e+00 -1.44056182e-01 -8.58038989e-01  2.40056007e+00 -1.44056182e-01
 -8.58038989e-01  2.40056007e+00 -1.44056182e-01 -8.58038989e-01  2.40056007e+00
 -1.44056182e-01 -2.10295490e+00  1.86872792e-01  1.47638447e-01 -2.10295490e+00
  1.86872792e-01  1.47638447e-01 -2.10295490e+00  1.86872792e-01  1.47638447e-01
 -2.10295490e+00  1.86872792e-01  1.47638447e-01 -2.10295490e+00  1.86872792e-01
  1.47638447e-01 -2.10295490e+00  1.86872792e-01  1.47638447e-01 -8.60964267e-01
 -2.30651278e+00  7.56251229e-02 -8.60964267e-01 -2.30651278e+00  7.56251229e-02
 -8.60964267e-01 -2.30651278e+00  7.56251229e-02 -8.60964267e-01 -2.30651278e+00
  7.56251229e-02 -8.60964267e-01 -2.30651278e+00  7.56251229e-02 -8.60964267e-01
 -2.30651278e+00  7.56251229e-02  1.40982793e+00 -2.70169334e+00  1.33159668e-01
  1.40982793e+00 -2.70169334e+00  1.33159668e-01  1.40982793e+00 -2.70169334e+00
  1.33159668e-01  1.40982793e+00 -2.70169334e+00  1.33159668e-01  1.40982793e+00
 -2.70169334e+00  1.33159668e-01  1.40982793e+00 -2.70169334e+00  1.33159668e-01
  2.79318901e+00  1.01164017e+00 -1.20983766e+00  2.79318901e+00  1.01164017e+00
 -1.20983766e+00  2.79318901e+00  1.01164017e+00 -1.20983766e+00  2.63171466e+00
  4.43485138e+00 -9.78444192e-01  2.63171466e+00  4.43485138e+00 -9.78444192e-01
  2.63171466e+00  4.43485138e+00 -9.78444192e-01  2.68405659e+00  2.44671011e+00
  1.75528942e+00  2.68405659e+00  2.44671011e+00  1.75528942e+00  2.68405659e+00
  2.44671011e+00  1.75528942e+00 -2.21385573e+00 -3.91596786e+00 -1.60457927e-01
 -2.21385573e+00 -3.91596786e+00 -1.60457927e-01 -2.21385573e+00 -3.91596786e+00
 -1.60457927e-01 -4.16684010e+00  1.67165518e-01  2.80106019e-01 -4.16684010e+00
  1.67165518e-01  2.80106019e-01 -4.16684010e+00  1.67165518e-01  2.80106019e-01
 -1.98271208e+00  4.13382092e+00 -3.56367120e-01 -1.98271208e+00  4.13382092e+00
 -3.56367120e-01 -1.98271208e+00  4.13382092e+00 -3.56367120e-01
Total Energy                               R     -2.312397636754941e+02
Alpha Orbital Energies                     R   N=         100
 -1.91355106e+01 -1.02731946e+01 -1.02238679e+01 -1.01974030e+01 -1.01898312e+01
 -1.03979787e+00 -8.10544335e-01 -7.16263832e-01 -6.28263718e-01 -5.34326220e-01
 -4.97207494e-01 -4.40131628e-01 -4.32698168e-01 -4.20928579e-01 -3.84884808e-01
 -3.79571445e-01 -3.75317391e-01 -2.73770424e-01 -2.49308304e-01 -6.51664289e-02
  5.03508532e-02  6.42455776e-02  8.98936220e-02  1.05228046e-01  1.29462528e-01
  1.45163953e-01  1.59793072e-01  2.16076767e-01  2.62575260e-01  3.22476060e-01
  3.38617652e-01  4.34155916e-01  4.36278193e-01  4.50313341e-01  4.71917706e-01
  4.84900460e-01  5.07108940e-01  5.26366892e-01  5.67060980e-01  5.97363585e-01
  6.16720386e-01  6.26626911e-01  6.37499490e-01  6.49165762e-01  6.71149617e-01
  6.82782226e-01  7.03356165e-01  7.70090175e-01  8.16478597e-01  8.49288660e-01
  9.12888423e-01  9.28562470e-01  9.57001091e-01  1.01643578e+00  1.02575595e+00
  1.04747983e+00  1.08154339e+00  1.14412990e+00  1.18288328e+00  1.19138773e+00
  1.28912058e+00  1.36263065e+00  1.39699048e+00  1.47383661e+00  1.48643270e+00
  1.49313104e+00  1.54758716e+00  1.56484641e+00  1.62044184e+00  1.62859034e+00
  1.65332114e+00  1.65643648e+00  1.67012423e+00  1.69145613e+00  1.73160240e+00
  1.75115716e+00  1.78531560e+00  1.80282592e+00  1.84881395e+00  1.92099237e+00
  1.96451192e+00  1.97198652e+00  2.01422504e+00  2.06229517e+00  2.10008365e+00
  2.23999118e+00  2.31407443e+00  2.34061770e+00  2.39795033e+00  2.41166963e+00
  2.41598950e+00  2.48706633e+00  2.56943217e+00  2.64815674e+00  2.69703869e+00
  2.79023513e+00  2.97694295e+00  3.06662518e+00  3.42037643e+00  3.47654655e+00
Alpha MO coefficients                      R   N=       10000
 -6.82757938e-05 -1.43277883e-04  5.66474322e-05  6.46417734e-05  4.39774124e-05
  1.03383809e-05 -2.64049254e-05 -1.40702553e-04  1.71305802e-04  7.23900260e-05
  3.26289292e-05  3.81322828e-05  7.41181821e-05 -9.95429316e-05 -2.04788657e-04
 -3.65407046e-04  5.34910915e-03 -2.22279095e-05 -1.73751622e-05 -5.44799483e-05
 -9.32141138e-04 -2.21996050e-03  4.54761688e-04 -3.08565058e-05  2.57970733e-05
 -1.81902648e-05 -5.14311061e-05 -5.20550214e-05  2.07438229e-04  3.18947413e-04
 -3.91481845e-03  2.77898958e-05  2.75268471e-04 -1.39628690e-05 -4.51363128e-03
 -3.53401875e-03  2.77323988e-04  1.31758673e-04  4.39728697e-05  8.31793251e-05
 -3.91265718e-04  4.97948833e-04  4.54417098e-04  5.96025676e-04  5.35566925e-03
 -9.93025203e-05 -1.75712730e-04 -3.04317135e-05  6.63994255e-03  6.12329509e-04
  1.51157685e-04 -1.16392807e-05  4.17810876e-06  8.14547385e-05 -1.15772374e-03
  5.02612615e-04  1.00417050e+00  9.47336259e-03 -1.51164714e-02 -1.83948812e-03
  3.49625020e-04 -6.38296034e-05  3.51267444e-03 -8.29651177e-04  1.06466522e-04
 -1.93839423e-05  2.52828280e-06 -3.15586745e-06  6.74939815e-05  1.04024149e-05
 -1.14392767e-04 -1.14877950e-04  3.55170363e-05 -9.51481397e-06  2.39262119e-05
  1.21560070e-04  3.55819427e-04 -7.35185706e-05 -7.02676967e-05  4.17884657e-05
 -1.02043700e-04 -2.53354924e-04  6.72619382e-05  6.28396517e-05  5.77956612e-05
 -1.30175517e-04  9.27982653e-04 -7.65745284e-04  1.19516722e-04 -5.35178856e-06
 -2.75498485e-04 -1.32921547e-03  1.86243914e-04  2.53250254e-04  6.54922184e-07
 -1.79300135e-04  2.33636893e-04  4.25594578e-05  8.28051827e-05 -2.66289163e-05
 -3.67750183e-04 -4.86443661e-04  9.06091859e-04  2.86523886e-04  7.03357356e-05
 -4.14741815e-07 -6.25935568e-04  5.52395703e-05  2.75617609e-05 -1.59733167e-05
 -6.18680140e-05  6.23331122e-06 -1.18115171e-04 -3.60883838e-05 -4.26603015e-04
 -6.23474258e-04  6.44018006e-03 -2.71068572e-04 -2.73338330e-05  4.64063757e-05
 -2.13435592e-03 -3.77826361e-03  5.65307672e-04 -3.96358241e-04 -1.79218573e-04
 -9.09373863e-05  2.95168988e-04  3.65823680e-04  1.62316622e-03 -2.49212401e-04
 -1.86126895e-03 -3.46320079e-04  7.53596226e-04  3.82688869e-05 -2.54318074e-03
 -5.99162056e-03  3.91408960e-04  1.03792839e-03 -5.80494438e-06 -6.98610906e-06
  1.12299821e-03  8.59543551e-04  1.00593787e+00  1.52756767e-02 -1.07501859e-02
  7.30309673e-04 -4.83180020e-04 -8.66365578e-05  5.44976662e-03 -2.06218306e-03
  4.37738287e-05 -1.63463555e-03  2.26253733e-04  1.77026384e-04  8.74234793e-04
  2.10891716e-05  3.66017663e-04  9.08804338e-04 -5.95754950e-03  7.47360346e-04
 -2.11054213e-04  5.77976649e-06  3.41011490e-03 -2.05358887e-04  1.04381098e-04
  5.68030112e-04 -3.35561165e-05 -1.57254396e-05 -7.25813995e-04  2.56779031e-04
 -1.11146234e-04 -6.06286741e-05  3.54777686e-05  1.05167027e-05 -1.46290336e-05
 -5.19885587e-05  3.58109821e-04 -5.36811853e-05 -2.63232202e-05  6.83919659e-06
 -6.26510538e-05 -1.56235364e-05  1.01898997e-04  5.00489437e-05 -4.22794191e-05
 -1.66817448e-03  2.48091700e-03 -1.43227691e-03 -1.45884031e-03 -2.21294977e-04
 -5.21847165e-04 -4.86497148e-04  4.60711104e-05  2.99146102e-04 -2.86192317e-05
 -2.57388771e-05  6.07143585e-04  2.27568220e-04  1.00632504e-04 -3.04986533e-05
  3.02350369e-03 -3.98128172e-04  4.40866440e-03  7.00274725e-04  4.60160964e-05
  6.05064412e-05 -2.43387859e-03 -8.52313304e-04 -3.63067216e-04  7.82542535e-04
  8.21304346e-05  3.17285616e-05 -9.78796775e-04 -3.61839974e-05  1.00632449e+00
  1.61127186e-02 -2.02098876e-02 -5.15363018e-04  1.95389082e-04 -1.42293136e-05
 -2.29266141e-03  3.91614897e-03 -4.12938309e-04 -1.03078080e-03  1.01361666e-04
 -2.97396893e-04 -5.70998833e-04 -4.14822819e-04  1.22745998e-02 -1.24211409e-03
  4.92239138e-03 -7.19982860e-04 -1.07220381e-03  1.53546004e-04  2.73332605e-03
  2.60505055e-03 -2.92322257e-04  8.65541150e-04  1.29485532e-04  2.80810496e-04
  5.11829698e-04 -9.68540078e-04 -2.70626290e-04 -5.46111964e-04  1.06818056e-03
 -1.97849716e-05 -2.12219624e-04  3.65360252e-05 -4.28146175e-04  1.00403232e-03
 -5.18918251e-05 -3.23702085e-04 -8.84731025e-05 -1.11026163e-05  1.69279331e-04
 -1.24799330e-05 -3.44724940e-05 -7.29302993e-05 -1.15826241e-04  1.20977953e-04
  1.33804085e-05  1.69828296e-05 -1.19981256e-04 -3.27580956e-04  2.50536357e-05
  1.16870283e-05 -2.45556256e-05  3.57155689e-06  3.18739689e-06  2.36300895e-05
 -4.37528273e-04  3.78147105e-04 -1.02210280e-04  9.24474561e-08  5.98242281e-05
 -2.87088594e-04  2.11855315e-04  1.35988575e-04  2.93628326e-05  6.99446462e-05
 -4.75929154e-04  1.16259287e-03 -1.82632983e-04  5.69784553e-06  2.70826600e-05
 -8.21373384e-05  3.32134135e-04  4.45446348e-05 -6.96633167e-05 -1.47769723e-05
  1.50441585e-04  9.48920060e-04  1.52069279e-04 -2.57858933e-04 -1.24976976e-06
 -2.43582395e-03  1.08858572e-03 -1.23853147e-03  1.79533790e-03 -2.16703422e-04
  1.25027645e-03  4.71227114e-04 -2.06373661e-04 -1.11954306e-04 -1.33256000e-04
  1.02151648e-04  8.52608465e-04  5.81324267e-05 -2.72431646e-04  3.00858007e-04
  2.85691574e-05  5.20920660e-05 -4.30988923e-05  1.28097019e-04  1.37252057e-02
  1.71495615e-03 -6.24613310e-03 -5.82217032e-04 -1.20006266e-03  1.62184161e-04
  6.49761849e-04  3.76857826e-03 -1.91361140e-04 -9.11060169e-04 -1.74293460e-04
 -2.93463568e-04 -5.95872600e-04  9.31096926e-04 -1.00649030e+00 -1.65460577e-02
  2.11419158e-02  3.35313572e-04 -2.53112553e-04  1.36881806e-04  5.31029755e-03
  2.96490100e-04 -8.36116499e-04  1.08269700e-03  1.80643840e-04  1.09585065e-04
 -4.34164197e-04 -4.52108734e-04  1.93955181e-03  7.82140705e-04 -5.70467783e-03
 -2.63929156e-04  7.16124938e-04  4.77680225e-05 -3.80025406e-04 -3.42612217e-03
  4.87236498e-05 -6.97324062e-04 -1.48751693e-04  5.19964640e-05 -5.69822492e-04
 -1.21668924e-03 -3.90360398e-05 -6.75639256e-05  7.83842354e-04 -2.06600784e-05
  6.54584620e-05  3.84433221e-05  1.22117944e-04  6.27657507e-04 -5.15890385e-05
  1.27988752e-04 -4.00981023e-05 -1.23742937e-05 -7.72519559e-05 -2.20574271e-04
  1.35997003e-04 -3.31961826e-04 -2.02248620e-05 -7.57889745e-05  5.41816697e-05
 -3.73247755e-05 -3.43905111e-04 -4.35511469e-05  4.94215430e-05  2.81676500e-05
  6.68548612e-05 -1.80214704e-04 -4.53387955e-05 -8.03241770e-05  1.34499142e-04
  2.93499142e-04 -9.62296587e-04 -6.42071654e-05  1.94194211e-04 -3.25039768e-05
  2.48701330e-03 -8.30489328e-04  2.17297365e-03 -1.01730076e-04 -8.29893130e-05
 -1.05698835e-04 -8.67460794e-04 -2.85823925e-04  3.33974969e-05 -3.63246199e-05
  1.00699629e+00  1.74467314e-02 -1.92384830e-02  4.22930015e-04  1.57461750e-05
  1.70301750e-04  2.88137311e-03  4.18843338e-04 -5.24041526e-04  1.95720156e-04
 -1.47552586e-05 -1.12972476e-04 -6.52077806e-04  3.03456138e-05 -3.20882973e-03
 -2.52843321e-04  1.64330269e-03 -4.76571182e-04  5.37464143e-05  1.99288791e-06
  4.14045142e-03  2.34407789e-03 -2.84537631e-04  6.27631616e-04  1.01126372e-04
 -1.43242227e-05 -1.31566822e-03 -4.03193510e-04  5.79886624e-04 -6.56394767e-04
  3.61646796e-03 -2.36386697e-04  3.49236108e-05 -2.41420512e-06  1.17741826e-03
  2.56141644e-03 -3.51356445e-04 -3.67963987e-04  2.46755595e-05 -1.00294369e-04
 -4.17944930e-04 -2.12258951e-04 -1.25469811e-04 -5.03473154e-04  3.91716557e-04
 -7.05775931e-05 -2.70705043e-04 -3.60849951e-05 -1.84588904e-04  4.85862284e-04
  1.20836999e-04 -3.71920852e-05 -2.83968777e-05 -2.60724148e-05  3.18089845e-05
  4.40708354e-05 -1.01976466e-04 -1.98480782e-04  3.25610541e-04  2.84912153e-05
 -1.15574411e-04 -2.08147758e-05 -2.29641979e-04  2.56281460e-04  6.12631913e-05
 -5.65988824e-05  5.97886074e-07  5.57566414e-06 -2.18861092e-07 -2.39473975e-06
 -1.14698878e-03  2.06067925e-03  6.19019771e-04 -1.48817161e-03 -9.42263487e-04
 -1.46904485e-03  1.76224460e-03  5.87564096e-04  1.79599335e-03 -7.69543787e-04
 -1.03743304e-03  2.36747116e-03  4.79375801e-04 -1.93224110e-04  1.81610379e-03
  2.20553771e-05  3.86518430e-04  1.02120734e-05  6.30882419e-05 -1.41397118e-05
  2.85052898e-05  4.80157782e-04  6.06137898e-05 -1.90577777e-04  2.56222867e-05
 -3.99781081e-04  1.33794177e-04 -3.89416073e-04 -1.60472197e-04  2.51757977e-05
 -5.02254804e-04  7.89980538e-03  5.12869383e-03 -3.29576403e-03 -3.83806707e-03
 -4.56311820e-05 -2.83160302e-03 -1.47274854e-03  8.32050743e-04 -7.14066906e-04
 -1.27136568e-04 -1.68618159e-04  9.77688794e-05  8.76680303e-04  4.96528027e-04
  1.68271061e-02 -1.20163994e-02  3.76299074e-04 -1.06447953e-02  1.05212802e-03
 -1.93561152e-03  9.31645354e-03 -1.15452900e-03 -5.00005957e-04 -1.93580253e-04
 -4.41751245e-04 -1.51661466e-03  7.15913796e-04 -3.67312731e-03  3.62556314e-02
  3.17222391e-02  2.12008632e-02 -1.95414439e-02 -8.50655862e-04  1.99039065e-02
  1.93998703e-03 -1.75260875e-03 -3.74653035e-03 -3.75544680e-04 -1.26042387e-04
 -2.73466481e-04 -9.06952542e-03 -1.47055386e-02  2.24235158e-01  9.45101679e-02
  1.84466481e-01 -2.36318541e-02  4.65446376e-03  1.21915140e-02 -2.63804355e-03
  9.44661603e-04 -1.38213438e-02  7.46571639e-04 -1.42565200e-03  3.13979246e-02
 -1.33468624e-02 -9.21304449e-03  4.02174033e-01  3.60977894e-01 -1.55181961e-01
  3.05266762e-02 -4.53510672e-03 -3.17704126e-02  7.46453054e-03 -1.61448881e-03
 -5.38258275e-03  4.14510772e-04 -7.27654905e-04  1.21243803e-02 -4.88288699e-03
  7.36577415e-03  3.86946019e-03 -6.91798873e-04 -3.89043273e-04  6.87049070e-04
  1.08874973e-03 -4.10813041e-04  3.07261351e-05 -4.40706377e-05 -7.21353192e-05
  2.67305069e-03  8.11492068e-04 -3.20172728e-04 -3.46098594e-04 -5.47768483e-04
  3.95601701e-02 -3.49889198e-03  1.01156181e-02  5.93838371e-03  1.01531723e-03
  7.12355399e-03  6.11171234e-03  9.74631058e-04 -1.91869135e-03 -7.72463525e-05
  1.84322867e-03 -3.04605457e-03 -1.81739348e-04 -8.29195277e-04  1.29000508e-04
  1.11017747e-02 -1.79653337e-01 -7.49829003e-02  6.68265379e-02  1.36921614e-02
 -4.71775731e-03  2.53722887e-03 -8.91488747e-03  2.30485627e-03  5.72619977e-03
  6.12572259e-04 -6.89053763e-05 -1.00187000e-02 -3.13033748e-03  1.98015634e-02
 -2.89200964e-01 -2.03812485e-01 -3.83917359e-03  7.11113932e-02 -8.24070726e-03
 -3.13347772e-02  2.52064024e-02 -3.38583776e-03  1.00289435e-02  1.26051764e-03
  1.76516953e-03 -2.16707093e-03 -1.00242029e-02  1.72611100e-02 -2.55103421e-01
 -1.38969904e-01 -5.87567844e-02 -5.68383774e-02  1.37148213e-02 -2.60005245e-03
 -2.08524392e-02  3.54435108e-03  6.88072396e-03  1.46505634e-03  1.96311942e-03
  8.88333002e-03 -8.58947137e-03  2.59825910e-03 -6.50906397e-02 -5.14214426e-02
  7.30467667e-02 -8.08626903e-02  1.66172587e-03  2.38781574e-02 -2.28070544e-02
 -8.27259125e-04  2.72136823e-03  4.45435256e-04 -2.25084575e-04  1.34657030e-02
  3.25652176e-03 -3.50037609e-04  7.74316539e-02  7.46252717e-02 -1.21809609e-02
 -1.68682703e-02  1.03383315e-04  1.30272341e-03 -7.30517244e-03  5.95026883e-04
  1.79696158e-04  1.26439224e-05  4.84272242e-05  1.69884650e-03  1.62901754e-03
 -6.74971601e-02 -2.32924068e-03  4.69239174e-03 -7.72547033e-03 -5.16307132e-03
 -5.93440137e-02 -8.12415612e-04  4.69914613e-03  8.15263378e-03 -3.45289920e-03
 -6.80173483e-02 -3.43052309e-03  4.32580194e-03 -5.10907557e-05  9.14392860e-03
 -1.92872675e-02  1.11087863e-04  1.06304762e-05 -3.57042866e-03 -1.29383818e-04
 -8.35524332e-02 -2.59102650e-03 -1.42069815e-02 -1.86655743e-03  1.14820613e-03
 -9.82745876e-02 -1.33794538e-02 -6.93187793e-03  1.36559280e-02 -1.59754968e-03
  1.42696458e-02 -2.84257466e-01 -1.22548793e-01  1.94025969e-02 -7.76725477e-03
 -4.47531857e-03 -1.56290737e-02 -7.50225299e-03  2.76009440e-04  1.53214948e-03
 -4.80649263e-05 -1.56998760e-04 -3.07464721e-03  2.28274632e-03  5.47226850e-03
 -5.38105475e-02 -8.76690747e-02 -1.36114896e-01 -8.90186101e-02  9.85152811e-03
 -8.93106285e-02 -5.96029693e-03  1.82530303e-03  3.86403313e-03 -2.89786292e-04
 -1.03173577e-03 -1.75596334e-02  4.12162344e-03 -1.37013055e-02  2.26058288e-01
  1.66994724e-01 -6.86721678e-03 -6.20204412e-02 -3.74774332e-03  3.49451954e-02
 -3.77771364e-02 -1.42542508e-03 -4.45862674e-03 -2.99652192e-05  3.63491367e-04
 -9.69469774e-03 -6.08641565e-03 -3.17937481e-03  1.59135409e-01  6.92037553e-02
 -1.11162223e-01  7.45845776e-02 -5.29858215e-04 -3.88298236e-02  8.25199904e-03
 -1.33625538e-03 -1.64533240e-03 -3.86689838e-04  2.27147400e-04 -9.54775134e-03
 -6.07641420e-03 -2.37112479e-04 -8.42428012e-02 -8.44783544e-02 -2.18366718e-02
  6.90173082e-03  1.28524475e-03 -2.18998056e-02  1.56593087e-03  5.07570700e-05
 -9.70460187e-04  8.42070515e-05  2.83741776e-04  1.26196010e-03 -2.00802992e-03
 -1.22384144e-01 -1.69284605e-02  6.67447499e-03 -1.29253152e-02 -8.19470240e-03
 -1.31399778e-01 -1.56195046e-02  5.85879219e-03  1.54036620e-02 -6.93771639e-03
 -1.28859245e-01 -1.63801922e-02  5.78798626e-03 -1.85140972e-03  1.61351066e-02
  7.59972171e-02  3.25174121e-03  3.77052982e-03  9.14214283e-03  1.09726469e-03
  1.15711409e-01  2.27929237e-02  1.46452197e-02 -1.18389303e-03 -9.99973832e-04
 -3.04220798e-02 -1.64037080e-02 -4.13387983e-03  9.50886386e-04 -1.56179827e-04
  5.65509848e-03 -1.80774325e-01 -1.00276997e-01 -7.39611105e-02 -2.77792719e-03
 -4.03075252e-03 -3.87329541e-02 -6.14706948e-03  6.33999626e-03 -4.94209532e-03
 -7.29423357e-04 -2.57618647e-04  7.35422111e-03  8.15673148e-04 -5.18830943e-03
  2.11313943e-01  1.01188129e-01 -1.42641768e-01 -1.50532985e-02  6.27200479e-03
 -4.41227651e-02  3.06299797e-04 -7.64994057e-04  2.79171871e-03 -1.34628217e-03
 -8.64259381e-04 -5.66377921e-03  3.96067231e-03 -1.44863810e-03  5.17541423e-03
  1.41498904e-02  6.23046119e-03  2.46652563e-01 -1.17828851e-02  4.67107433e-03
  7.59289601e-02 -2.90099008e-03  7.98004185e-04 -4.49964342e-04 -3.46710718e-03
  1.35784413e-03  1.11806216e-02  2.48220932e-03 -2.31218822e-01 -1.50735563e-01
  1.54567687e-01 -2.47986059e-02  5.30435508e-03  4.65480072e-02 -1.79609624e-02
  8.67523599e-04 -1.16745007e-03  8.83730167e-04 -5.64497043e-04  5.65711646e-03
  1.40936246e-03  1.01905250e-03  1.21376187e-01  1.41727901e-01  5.12440565e-02
 -1.03014300e-02  2.81496070e-03  3.92640171e-02 -6.56426246e-03  2.13965051e-03
  2.53662231e-03 -2.22800527e-04 -1.08512112e-05 -2.25150094e-03  6.06611509e-04
 -1.02165527e-01 -7.54083760e-03  3.38610460e-03 -1.03102440e-02 -5.80667119e-03
 -1.05013102e-01 -1.58825072e-02  2.12452305e-03  1.07494852e-02 -5.13133798e-03
 -1.07968936e-01 -2.07838732e-02  3.11442926e-03 -1.01784013e-03  1.13882798e-02
 -1.58024926e-01 -2.86140213e-02 -7.92217736e-03 -1.40305162e-02 -1.86125626e-03
 -2.87117441e-03 -3.67387945e-04 -1.17219195e-04  4.96478841e-03 -2.38375410e-04
  1.48164733e-01  2.52446488e-02  6.80199745e-03 -1.50177265e-02  2.04651079e-03
  1.52477239e-03 -4.24786112e-02 -3.46447627e-02 -1.12497936e-01  9.21096077e-02
 -8.89809128e-03 -3.13797425e-02  3.78739297e-02 -6.10577208e-03 -5.06932554e-03
  6.57560061e-04 -1.56272672e-03  9.47267441e-03 -6.28268008e-03 -2.55640101e-03
  1.43779083e-01  1.03987688e-01 -6.28466974e-04  2.23075588e-01 -3.03597963e-02
  2.68389641e-02  6.80803881e-02 -8.96414671e-03  3.87666972e-03  1.46781851e-03
  1.19865504e-03  9.79512123e-04 -6.27516229e-03  2.98456501e-03 -1.53537765e-01
 -1.08445082e-01 -1.66134336e-02 -7.03959227e-04 -7.65817086e-03 -2.21716588e-02
  2.95686753e-02 -6.28304414e-03 -3.77398138e-03  2.04997644e-04 -6.94060657e-04
 -1.33240190e-02  1.06852678e-03  7.45036058e-04  1.58993516e-01  1.22307044e-01
 -5.81869379e-02 -2.36047393e-01 -2.02541694e-02 -4.64904238e-02 -5.29464616e-02
 -4.07061242e-03  5.20853043e-03  6.18154084e-04 -8.01109802e-05 -1.41512597e-05
  9.40344128e-04  4.74134832e-04 -8.61278452e-02 -1.21767771e-01 -1.42345072e-01
 -1.11300569e-01 -9.00110342e-03 -8.34487810e-02 -6.15794736e-02 -5.11548635e-03
 -3.51393005e-03  1.19857330e-03  5.12693524e-04  8.95759973e-03  6.73965610e-03
 -1.08270466e-01 -3.55766328e-02  1.71864041e-03 -4.57201313e-03 -5.91567373e-03
  5.90408649e-03 -3.66506693e-03 -3.25905306e-03  1.98644353e-03  7.25894859e-05
 -6.22428463e-02 -1.89627024e-02 -7.03023159e-04  2.49352458e-03  5.73499463e-03
  2.27449731e-01  5.94638110e-02  1.17863822e-02  1.26515359e-02  2.18756852e-03
 -8.42390354e-02 -3.07079690e-02 -8.61423579e-03 -9.27957910e-04  4.38379117e-04
  2.18522100e-01  6.54607299e-02  1.08569207e-02 -1.23716419e-02  1.48177660e-03
  2.51865107e-03 -5.10359050e-02 -4.93452976e-02 -1.46878669e-01 -9.73023763e-02
  5.38588232e-03 -3.39511850e-02 -4.20194559e-02 -2.50534864e-03 -5.22666776e-03
 -8.15836544e-04  2.08988737e-03  7.37689375e-03  4.35265368e-03  8.16249469e-04
  8.53172077e-02  5.60606380e-02  1.36082716e-01 -1.14262311e-01  2.84433413e-03
  8.26950737e-02 -3.16392764e-02 -1.71395569e-03  1.56461547e-03  1.73860311e-03
  6.79774661e-04 -9.86058528e-03 -1.08327673e-02  5.68451540e-03 -7.26663564e-02