Generated by Psi4
        SP                           RHF                       CC-PVDZ
Number of atoms                            I               11
Charge                                     I                0
Multiplicity                               I                1
Number of electrons                        I               38
Number of alpha electrons                  I               19
Number of beta electrons                   I               19
Number of basis functions                  I              100
Number of independent functions            I              100
Atomic numbers                             I   N=          11
           6           6           6           6           8           1
           1           1           1           1           1
Nuclear charges                            R   N=          11
  6.00000000e+00  6.00000000e+00  6.00000000e+00  6.00000000e+00  8.00000000e+00
  1.00000000e+00  1.00000000e+00  1.00000000e+00  1.00000000e+00  1.00000000e+00
  1.00000000e+00
Current cartesian coordinates              R   N=          33
  1.64371310e+00  3.00555851e+00  3.02666201e-01 -7.91699261e-01  2.41059531e+00
 -1.68786963e-01 -2.04412735e+00 -8.62548326e-03  2.92210630e-01 -8.89943666e-01
 -2.28282040e+00  1.02438209e-01  1.57959550e+00 -2.67930754e+00 -4.08684368e-01
  2.35607195e+00 -1.02947959e+00 -6.99977298e-01  2.42925717e+00  4.82696172e+00
 -2.67186495e-01  2.90236411e+00  1.74790704e+00  1.35861971e+00 -1.91874857e+00
 -4.06556569e+00  2.64198369e-01 -4.08211819e+00 -1.59465657e-02  6.25085263e-01
 -1.96545534e+00  3.85331586e+00 -1.08771531e+00
Integer atomic weights                     I   N=          11
          12          12          12          12          16           1
           1           1           1           1           1
Real atomic weights                        R   N=          11
  1.20000000e+01  1.20000000e+01  1.20000000e+01  1.20000000e+01  1.59949146e+01
  1.00782503e+00  1.00782503e+00  1.00782503e+00  1.00782503e+00  1.00782503e+00
  1.00782503e+00
Number of primitive shells                 I              140
Number of contracted shells                I               48
Pure/Cartesian d shells                    I                0
Pure/Cartesian f shells                    I                0
Highest angular momentum                   I                2
Largest degree of contraction              I                8
Shell types                                I   N=          48
           0           0           0           1           1          -2
           0           0           0           1           1          -2
           0           0           0           1           1          -2
           0           0           0           1           1          -2
           0           0           0           1           1          -2
           0           0           1           0           0           1
           0           0           1           0           0           1
           0           0           1           0           0           1
Number of primitives per shell             I   N=          48
           8           8           1           3           1           1
           8           8           1           3           1           1
           8           8           1           3           1           1
           8           8           1           3           1           1
           8           8           1           3           1           1
           3           1           1           3           1           1
           3           1           1           3           1           1
           3           1           1           3           1           1
Shell to atom map                          I   N=          48
           1           1           1           1           1           1
           2           2           2           2           2           2
           3           3           3           3           3           3
           4           4           4           4           4           4
           5           5           5           5           5           5
           6           6           6           7           7           7
           8           8           8           9           9           9
          10          10          10          11          11          11
Primitive exponents                        R   N=         140
  6.66500000e+03  1.00000000e+03  2.28000000e+02  6.47100000e+01  2.10600000e+01
  7.49500000e+00  2.79700000e+00  5.21500000e-01  6.66500000e+03  1.00000000e+03
  2.28000000e+02  6.47100000e+01  2.10600000e+01  7.49500000e+00  2.79700000e+00
  5.21500000e-01  1.59600000e-01  9.43900000e+00  2.00200000e+00  5.45600000e-01
  1.51700000e-01  5.50000000e-01  6.66500000e+03  1.00000000e+03  2.28000000e+02
  6.47100000e+01  2.10600000e+01  7.49500000e+00  2.79700000e+00  5.21500000e-01
  6.66500000e+03  1.00000000e+03  2.28000000e+02  6.47100000e+01  2.10600000e+01
  7.49500000e+00  2.79700000e+00  5.21500000e-01  1.59600000e-01  9.43900000e+00
  2.00200000e+00  5.45600000e-01  1.51700000e-01  5.50000000e-01  6.66500000e+03
  1.00000000e+03  2.28000000e+02  6.47100000e+01  2.10600000e+01  7.49500000e+00
  2.79700000e+00  5.21500000e-01  6.66500000e+03  1.00000000e+03  2.28000000e+02
  6.47100000e+01  2.10600000e+01  7.49500000e+00  2.79700000e+00  5.21500000e-01
  1.59600000e-01  9.43900000e+00  2.00200000e+00  5.45600000e-01  1.51700000e-01
  5.50000000e-01  6.66500000e+03  1.00000000e+03  2.28000000e+02  6.47100000e+01
  2.10600000e+01  7.49500000e+00  2.79700000e+00  5.21500000e-01  6.66500000e+03
  1.00000000e+03  2.28000000e+02  6.47100000e+01  2.10600000e+01  7.49500000e+00
  2.79700000e+00  5.21500000e-01  1.59600000e-01  9.43900000e+00  2.00200000e+00
  5.45600000e-01  1.51700000e-01  5.50000000e-01  1.17200000e+04  1.75900000e+03
  4.00800000e+02  1.13700000e+02  3.70300000e+01  1.32700000e+01  5.02500000e+00
  1.01300000e+00  1.17200000e+04  1.75900000e+03  4.00800000e+02  1.13700000e+02
  3.70300000e+01  1.32700000e+01  5.02500000e+00  1.01300000e+00  3.02300000e-01
  1.77000000e+01  3.85400000e+00  1.04600000e+00  2.75300000e-01  1.18500000e+00
  1.30100000e+01  1.96200000e+00  4.44600000e-01  1.22000000e-01  7.27000000e-01
  1.30100000e+01  1.96200000e+00  4.44600000e-01  1.22000000e-01  7.27000000e-01
  1.30100000e+01  1.96200000e+00  4.44600000e-01  1.22000000e-01  7.27000000e-01
  1.30100000e+01  1.96200000e+00  4.44600000e-01  1.22000000e-01  7.27000000e-01
  1.30100000e+01  1.96200000e+00  4.44600000e-01  1.22000000e-01  7.27000000e-01
  1.30100000e+01  1.96200000e+00  4.44600000e-01  1.22000000e-01  7.27000000e-01
Contraction coefficients                   R   N=         140
  6.91583963e-04  5.32579615e-03  2.70607210e-02  1.01656846e-01  2.74574824e-01
  4.48294319e-01  2.84902611e-01  1.51948592e-02 -2.93269653e-04 -2.31803547e-03
 -1.14997860e-02 -4.68267270e-02 -1.28466169e-01 -3.01266272e-01 -2.55630702e-01
  1.09379336e+00  1.00000000e+00  5.69792516e-02  3.13207212e-01  7.60376742e-01
  1.00000000e+00  1.00000000e+00  6.91583963e-04  5.32579615e-03  2.70607210e-02
  1.01656846e-01  2.74574824e-01  4.48294319e-01  2.84902611e-01  1.51948592e-02
 -2.93269653e-04 -2.31803547e-03 -1.14997860e-02 -4.68267270e-02 -1.28466169e-01
 -3.01266272e-01 -2.55630702e-01  1.09379336e+00  1.00000000e+00  5.69792516e-02
  3.13207212e-01  7.60376742e-01  1.00000000e+00  1.00000000e+00  6.91583963e-04
  5.32579615e-03  2.70607210e-02  1.01656846e-01  2.74574824e-01  4.48294319e-01
  2.84902611e-01  1.51948592e-02 -2.93269653e-04 -2.31803547e-03 -1.14997860e-02
 -4.68267270e-02 -1.28466169e-01 -3.01266272e-01 -2.55630702e-01  1.09379336e+00
  1.00000000e+00  5.69792516e-02  3.13207212e-01  7.60376742e-01  1.00000000e+00
  1.00000000e+00  6.91583963e-04  5.32579615e-03  2.70607210e-02  1.01656846e-01
  2.74574824e-01  4.48294319e-01  2.84902611e-01  1.51948592e-02 -2.93269653e-04
 -2.31803547e-03 -1.14997860e-02 -4.68267270e-02 -1.28466169e-01 -3.01266272e-01
 -2.55630702e-01  1.09379336e+00  1.00000000e+00  5.69792516e-02  3.13207212e-01
  7.60376742e-01  1.00000000e+00  1.00000000e+00  7.09645947e-04  5.46727229e-03
  2.78231186e-02  1.04747740e-01  2.82920846e-01  4.48495239e-01  2.70816885e-01
  1.54502916e-02 -3.14443412e-04 -2.48213768e-03 -1.23163554e-02 -5.05389173e-02
 -1.39384903e-01 -3.25077495e-01 -2.29848308e-01  1.09537935e+00  1.00000000e+00
  6.26791663e-02  3.33536566e-01  7.41239642e-01  1.00000000e+00  1.00000000e+00
  3.34987264e-02  2.34800801e-01  8.13682958e-01  1.00000000e+00  1.00000000e+00
  3.34987264e-02  2.34800801e-01  8.13682958e-01  1.00000000e+00  1.00000000e+00
  3.34987264e-02  2.34800801e-01  8.13682958e-01  1.00000000e+00  1.00000000e+00
  3.34987264e-02  2.34800801e-01  8.13682958e-01  1.00000000e+00  1.00000000e+00
  3.34987264e-02  2.34800801e-01  8.13682958e-01  1.00000000e+00  1.00000000e+00
  3.34987264e-02  2.34800801e-01  8.13682958e-01  1.00000000e+00  1.00000000e+00
Coordinates of each shell                  R   N=         144
  1.64371310e+00  3.00555851e+00  3.02666201e-01  1.64371310e+00  3.00555851e+00
  3.02666201e-01  1.64371310e+00  3.00555851e+00  3.02666201e-01  1.64371310e+00
  3.00555851e+00  3.02666201e-01  1.64371310e+00  3.00555851e+00  3.02666201e-01
  1.64371310e+00  3.00555851e+00  3.02666201e-01 -7.91699261e-01  2.41059531e+00
 -1.68786963e-01 -7.91699261e-01  2.41059531e+00 -1.68786963e-01 -7.91699261e-01
  2.41059531e+00 -1.68786963e-01 -7.91699261e-01  2.41059531e+00 -1.68786963e-01
 -7.91699261e-01  2.41059531e+00 -1.68786963e-01 -7.91699261e-01  2.41059531e+00
 -1.68786963e-01 -2.04412735e+00 -8.62548326e-03  2.92210630e-01 -2.04412735e+00
 -8.62548326e-03  2.92210630e-01 -2.04412735e+00 -8.62548326e-03  2.92210630e-01
 -2.04412735e+00 -8.62548326e-03  2.92210630e-01 -2.04412735e+00 -8.62548326e-03
  2.92210630e-01 -2.04412735e+00 -8.62548326e-03  2.92210630e-01 -8.89943666e-01
 -2.28282040e+00  1.02438209e-01 -8.89943666e-01 -2.28282040e+00  1.02438209e-01
 -8.89943666e-01 -2.28282040e+00  1.02438209e-01 -8.89943666e-01 -2.28282040e+00
  1.02438209e-01 -8.89943666e-01 -2.28282040e+00  1.02438209e-01 -8.89943666e-01
 -2.28282040e+00  1.02438209e-01  1.57959550e+00 -2.67930754e+00 -4.08684368e-01
  1.57959550e+00 -2.67930754e+00 -4.08684368e-01  1.57959550e+00 -2.67930754e+00
 -4.08684368e-01  1.57959550e+00 -2.67930754e+00 -4.08684368e-01  1.57959550e+00
 -2.67930754e+00 -4.08684368e-01  1.57959550e+00 -2.67930754e+00 -4.08684368e-01
  2.35607195e+00 -1.02947959e+00 -6.99977298e-01  2.35607195e+00 -1.02947959e+00
 -6.99977298e-01  2.35607195e+00 -1.02947959e+00 -6.99977298e-01  2.42925717e+00
  4.82696172e+00 -2.67186495e-01  2.42925717e+00  4.82696172e+00 -2.67186495e-01
  2.42925717e+00  4.82696172e+00 -2.67186495e-01  2.90236411e+00  1.74790704e+00
  1.35861971e+00  2.90236411e+00  1.74790704e+00  1.35861971e+00  2.90236411e+00
  1.74790704e+00  1.35861971e+00 -1.91874857e+00 -4.06556569e+00  2.64198369e-01
 -1.91874857e+00 -4.06556569e+00  2.64198369e-01 -1.91874857e+00 -4.06556569e+00
  2.64198369e-01 -4.08211819e+00 -1.59465657e-02  6.25085263e-01 -4.08211819e+00
 -1.59465657e-02  6.25085263e-01 -4.08211819e+00 -1.59465657e-02  6.25085263e-01
 -1.96545534e+00  3.85331586e+00 -1.08771531e+00 -1.96545534e+00  3.85331586e+00
 -1.08771531e+00 -1.96545534e+00  3.85331586e+00 -1.08771531e+00
Total Energy                               R     -2.312256761222457e+02
Alpha Orbital Energies                     R   N=         100
 -1.91745726e+01 -1.02507689e+01 -1.02061185e+01 -1.01905261e+01 -1.01826765e+01
 -1.06519731e+00 -8.01766774e-01 -7.31209082e-01 -6.29042598e-01 -5.79012601e-01
 -4.99203302e-01 -4.78325540e-01 -4.47615993e-01 -4.09568782e-01 -3.94420762e-01
 -3.76523992e-01 -3.47588910e-01 -3.00029233e-01 -2.18029948e-01 -2.59564102e-02
  5.63004814e-02  7.24585109e-02  8.06329429e-02  1.01047751e-01  1.25796347e-01
  1.41684156e-01  1.64407927e-01  2.21166227e-01  3.00684563e-01  3.21561701e-01
  3.49383449e-01  4.33923609e-01  4.45217918e-01  4.74946226e-01  4.78759385e-01
  4.94655412e-01  5.11432044e-01  5.35026510e-01  5.54666561e-01  5.65814585e-01
  5.81663394e-01  6.12604057e-01  6.27505986e-01  6.57513445e-01  6.74718153e-01
  7.19621364e-01  7.68714165e-01  7.94650126e-01  8.80255003e-01  9.05436157e-01
  9.40990380e-01  9.54529168e-01  9.63179164e-01  1.00128402e+00  1.03878351e+00
  1.05126255e+00  1.09439466e+00  1.10406979e+00  1.16302055e+00  1.19055569e+00
  1.21962436e+00  1.31990504e+00  1.36538900e+00  1.43477664e+00  1.45373448e+00
  1.48301669e+00  1.50493328e+00  1.52875717e+00  1.55536999e+00  1.58803180e+00
  1.60416703e+00  1.64609269e+00  1.68430425e+00  1.71690247e+00  1.73217176e+00
  1.75342183e+00  1.75893892e+00  1.82247476e+00  1.89546477e+00  1.92234688e+00
  1.97960295e+00  1.98727964e+00  2.03547013e+00  2.07825362e+00  2.09981439e+00
  2.17309347e+00  2.21763463e+00  2.26566119e+00  2.38750593e+00  2.40114201e+00
  2.42272178e+00  2.57397826e+00  2.73548647e+00  2.77965854e+00  2.87773817e+00
  2.95523426e+00  3.02281649e+00  3.17777229e+00  3.43534432e+00  3.69569287e+00
Alpha MO coefficients                      R   N=       10000
 -7.96143618e-05 -1.36901616e-04  1.23426056e-03 -1.03726755e-04  7.51824888e-05
  2.31366778e-05 -2.52145407e-04 -1.35525380e-03  1.57411286e-04 -7.08013142e-05
  1.31534055e-05  4.21238659e-05 -4.98879639e-05  7.62276725e-05  2.13261114e-04
  3.67141840e-04 -5.61266866e-03 -4.91190175e-06  5.52337187e-06  6.53078524e-05
  2.15972556e-04  2.97144408e-03 -9.01629194e-04  6.85118518e-05 -1.26332144e-04
  1.03418192e-04 -7.13638865e-06  2.02405610e-05 -1.92791455e-04 -2.81213967e-04
  4.82668681e-03  5.39657255e-05 -2.69620315e-04  6.70655513e-06  4.66140280e-03
  3.11941508e-03 -1.06869753e-03 -1.59110220e-04 -1.40786000e-04  6.61177546e-05
  3.84924695e-04 -3.96675943e-04 -1.96782578e-04 -3.58203828e-04 -5.71250226e-03
 -3.28014297e-04  2.19043867e-04  9.97801974e-05 -5.85254535e-03 -1.49317637e-03
  1.20317967e-03  4.04512219e-04  4.51005880e-06  6.96687329e-05  7.10097860e-04
 -4.00013102e-04 -1.00408205e+00 -9.35520914e-03  1.40569016e-02  8.94545652e-04
 -1.44823216e-03 -6.24582490e-05 -3.23013814e-03  1.42163751e-03  6.08051720e-04
  2.00389791e-05  6.52798677e-07  8.22952324e-05  1.48257813e-04 -2.61604087e-04
 -2.64985198e-04 -3.40563864e-04 -2.24691245e-04 -9.75202870e-04  5.62851178e-05
  5.46628854e-05  2.99370755e-04  3.75241757e-05  6.26540713e-05  7.76932806e-06
 -2.33860482e-04 -1.95429757e-04  3.16006546e-06 -2.68890422e-05 -1.45288997e-05
  4.04675075e-04 -9.04256370e-04  6.34219156e-04  1.45785248e-04 -1.25936946e-04
  1.70006973e-04  1.25242618e-03 -2.24000654e-04 -2.06899240e-04  6.27890265e-05
  8.82274174e-05 -6.15408210e-04 -3.49849676e-05 -1.08443901e-04  2.84907433e-05
 -2.79593685e-04 -3.43155228e-04  1.10307413e-03  1.46327889e-04  7.97418660e-05
  7.28779051e-05 -1.26926653e-03  4.99022959e-04 -6.36785744e-04 -7.49175559e-05
 -1.66375513e-05 -2.91487099e-05  5.40106300e-05 -3.87097540e-05 -4.94047287e-04
 -7.06844560e-04  4.89015477e-03 -1.18188331e-04  1.36603282e-05  2.50917813e-06
 -2.39490788e-03 -4.15294365e-03  7.62949102e-04 -3.52816969e-04 -9.71457831e-05
 -1.04007587e-04  8.90544380e-06  1.86394526e-04  4.54346407e-03 -9.95990640e-04
  8.65461985e-05 -5.73643265e-04  1.34693207e-03  9.59582499e-05 -1.96820832e-03
 -6.46688981e-03  7.68977157e-04  1.07442041e-03  2.39254091e-04 -5.55278890e-05
  5.73505749e-04  9.04754020e-04  1.00591320e+00  1.52944482e-02 -1.25308899e-02
  5.70445643e-04 -4.79555853e-04 -1.83197920e-04  5.04750069e-03 -2.35106579e-03
 -1.00849201e-03 -1.63396057e-03 -5.07059544e-04  3.82187926e-05 -3.15606076e-04
 -5.25655908e-06  7.19939959e-04  1.29990611e-03 -4.93225246e-03  2.65211014e-04
 -2.07546504e-04 -3.51235799e-05  3.26026687e-03 -2.62688004e-04 -6.97084123e-04
  6.96175958e-04  4.31041735e-04 -1.86857229e-05 -7.65055286e-04  1.96386796e-04
  5.20771826e-04 -4.37691215e-04 -6.25116756e-04 -2.69167890e-05  1.19416944e-04
 -5.52488899e-05  1.66195925e-04 -2.57877089e-05 -5.48986552e-05  3.06983545e-05
  6.62045658e-06  9.39727409e-04  1.04921397e-05  6.34801278e-05 -2.93372439e-05
 -2.17558736e-03  2.33272244e-03 -1.53637405e-03 -1.59927516e-03  2.59758329e-04
 -1.44962707e-04 -2.66446105e-04  3.00037706e-04  2.93132910e-04 -7.46515185e-05
 -5.41768077e-05  5.50008360e-04  1.72389406e-04  1.31005042e-04 -3.15567399e-05
  2.18120736e-02 -1.12730076e-03  4.78445960e-03  1.32668328e-03  3.37668703e-04
  1.63885489e-04 -2.07353702e-03 -1.81494375e-03  3.84317147e-04  7.60543660e-04
 -5.42200542e-04 -2.85090569e-05 -1.06733335e-03 -4.00135678e-04  1.00619457e+00
  1.62698006e-02 -1.92281438e-02 -1.29459464e-04  2.05954360e-04 -2.50125150e-04
 -1.70547475e-03  3.20728796e-03 -1.74946963e-03 -7.56097759e-04  6.97068469e-04
 -6.50485231e-04  2.24244837e-04 -2.65532733e-05  5.66221000e-03 -4.45374934e-04
  1.11774756e-03 -4.67166243e-04 -6.33669484e-04  1.45664627e-04  7.75619746e-04
  3.88045293e-03  2.74564712e-04  8.00547309e-04  3.85645840e-05  5.83715011e-04
  1.09740834e-03 -9.59148341e-04 -3.56139038e-04 -7.02146586e-04  4.11468151e-03
 -1.04997165e-04 -1.60972556e-04  1.28486590e-04 -6.13039480e-04  2.78769011e-03
 -2.64794981e-04 -4.28880329e-04 -3.16187895e-04  6.18908638e-05  4.08108798e-04
 -3.12038694e-04  8.92493164e-05  1.30766431e-04 -1.22772972e-03  1.63463898e-04
 -4.04147042e-05 -2.63438216e-05  1.34853602e-04 -6.88163345e-04  8.60585154e-05
  8.31656523e-05  2.48836702e-05  1.88220316e-05 -1.48823713e-05  1.64561961e-05
  2.89415863e-04  6.08272057e-04 -2.78277169e-04 -8.04225581e-05 -1.93945821e-05
 -5.12263902e-05  8.99913160e-04  1.44896450e-04 -1.13691433e-04  7.67760416e-05
 -2.63093130e-04 -2.16212166e-04  3.82075521e-05  2.44341908e-04 -1.12670073e-04
  1.01324881e-04  7.99994920e-04  1.80033444e-04 -5.52814501e-05  2.20477923e-06
 -2.93654628e-04  4.14817632e-04 -6.91110315e-05 -3.86282848e-04 -5.82323664e-05
 -2.29250808e-03  1.19955696e-03 -1.15463521e-03  1.51029720e-03 -9.40390494e-04
  1.00619135e+00  1.63642576e-02 -1.52402754e-02  2.84656282e-04 -4.96911781e-05
  3.15595072e-05  2.19532664e-03  7.28716609e-04  7.37558083e-04 -1.04135106e-03
  7.31602063e-04 -1.18622527e-03  5.07163181e-05  3.30380915e-04 -2.30302826e-02
 -1.44071570e-03  9.58359843e-04 -1.33590946e-03 -3.30594011e-04 -2.74338100e-04
  2.91101648e-03  2.50122689e-03 -4.60605805e-05  1.00262545e-03 -5.85721796e-04
  1.83978584e-04 -9.97073821e-04 -7.74691772e-04 -1.08099952e-03 -5.19917872e-04
  3.53316205e-03 -8.43862376e-05  5.38661485e-05 -6.70401823e-05  1.94390049e-03
  2.47672811e-03 -5.06062121e-04 -3.74362150e-04  7.58134186e-05 -2.46020024e-04
 -3.38056906e-04  3.09397216e-05  1.10140022e-05 -2.05574519e-04 -6.39208246e-04
  1.22341716e-07 -1.34113572e-04 -5.13895179e-05 -1.31560516e-03 -1.65530233e-04
  3.01700516e-04  6.00074130e-05  9.84250156e-05 -9.01244933e-05 -4.47998795e-05
  1.05453184e-04  1.03863609e-05  3.41166713e-05  4.11105753e-04  1.20075635e-04
  6.73654500e-05 -3.76389823e-05 -6.62379499e-04 -1.69378705e-04  1.02012619e-04
 -3.14930106e-05 -3.34516465e-05 -2.74239312e-05  7.84315869e-05  5.58313173e-05
  1.67508758e-04  1.27785611e-03 -1.20696215e-04  4.25610996e-04  8.73376711e-05
 -2.31610921e-03  1.89646407e-03  7.49151674e-04  2.02018243e-03 -7.01835448e-04
 -2.13518660e-03  1.49271798e-03  1.22037477e-03 -1.48642813e-03  1.22037278e-03
 -8.19597284e-05 -3.85290626e-05  4.05105401e-05  1.99274153e-05 -2.00411126e-05
  1.10126544e-04  5.80574108e-04  1.22108693e-05 -1.31726022e-04  4.42971063e-05
  7.85284415e-05  2.49986710e-04  1.67410378e-05 -3.16160037e-04  1.06928534e-04
  3.61844277e-04 -4.51757664e-04  2.80924058e-03  7.31055098e-05  1.05128946e-04
 -8.58958378e-05 -2.09672581e-03 -4.27737576e-04 -4.50493539e-05 -2.55253218e-04
  5.21972261e-04 -3.03669137e-04  2.73786432e-04 -4.80374411e-04 -6.05511010e-03
 -6.99519903e-04  3.03347032e-03  2.16089276e-04  7.08902364e-04 -1.79373241e-04
 -2.09985210e-03 -3.87056556e-03 -4.07415121e-05  9.06627296e-04  4.94954382e-04
  3.60901106e-04  5.61561211e-04 -1.31204706e-03  1.00664054e+00  1.67331154e-02
 -2.18699815e-02 -2.23179774e-04 -1.47757123e-04 -1.13002096e-04 -5.14650804e-03
 -2.64232172e-04  1.58069932e-03 -1.07385552e-03 -3.87723717e-04 -8.51152023e-06
  2.82062498e-04 -1.95506038e-04 -5.77951800e-03 -1.58175377e-03  6.72534552e-03
  6.33370956e-04 -1.22694793e-03 -9.21587532e-05  3.19919772e-04  4.20581513e-03
 -3.41740854e-04  8.38951129e-04  1.60910919e-04 -2.08048653e-04  7.00192716e-04
  1.01957416e-03  3.51544399e-05  5.00035648e-05 -9.70861501e-04  2.87147026e-05
 -5.87409119e-05 -2.89084528e-06 -1.04431273e-04 -7.08381170e-04  6.87236800e-05
 -5.73819765e-05 -4.13484816e-05 -1.09657799e-05  9.59838680e-05  8.22691662e-05
  2.72537487e-04  3.75552377e-05 -1.38885131e-04 -1.62370975e-04  2.35932056e-05
  1.12024806e-04  5.11174580e-04  1.41015255e-04 -1.45936437e-04  5.06287383e-05
 -7.03272084e-04  5.07274008e-04  1.89981474e-04 -1.22096670e-04  1.20185584e-04
  1.45565203e-04  1.21812010e-03  2.86230058e-04 -2.50948710e-05 -1.68686498e-05
 -2.37405787e-03  8.33333576e-04 -2.11343857e-03 -5.46758898e-05  2.71771226e-04
 -3.33722556e-04  7.03465126e-04  2.04900647e-04  2.86902317e-04  7.35486171e-05
  1.43484622e-04  8.41572917e-03 -4.38686987e-03 -1.89101921e-03 -5.08656595e-03
 -6.69192218e-04  2.64079644e-03  5.17974704e-03 -1.92096322e-03 -2.54027016e-04
 -5.56645318e-04  6.97626661e-04 -8.05764455e-04  9.68671704e-04 -9.14662890e-05
  1.31163913e-02  1.95498034e-03  1.53847787e-03 -8.63587008e-03  9.60317933e-04
  5.97952552e-03  3.24267344e-03  1.63252913e-04 -1.37619614e-03 -1.51260172e-04
 -4.24274019e-04 -1.32683020e-03  4.02766597e-04 -1.32006019e-03  3.51008890e-02
 -4.11794181e-03  2.11664160e-02 -1.80998477e-02 -4.29303730e-03  5.41938431e-03
  1.49924940e-02 -2.07933600e-03 -2.23907340e-03 -1.09509816e-03  1.53545115e-03
  2.11088056e-03 -8.04502471e-03 -1.27047800e-02  1.54241461e-01  8.50098381e-02
  1.26146974e-01 -5.62294543e-03 -2.71411170e-02  5.12006768e-03  2.39616554e-02
 -1.21451523e-03 -1.10951009e-02 -1.07706868e-02  8.87630536e-04  2.83542671e-02
 -4.80513101e-03 -6.67914666e-03  4.24023621e-01  3.72934067e-01 -7.33220669e-02
  9.00680045e-02  9.37664315e-03 -3.11333808e-02 -1.63270964e-03  6.74148322e-03
 -6.35003885e-03 -3.35529432e-03 -3.45446214e-04  3.98673977e-03 -1.80849520e-03
  1.70883032e-01  4.93630557e-03 -1.87764968e-02 -2.97186385e-02  6.82151274e-03
  2.09405280e-05 -3.93157874e-03  5.56309242e-05  1.07010338e-04 -1.60049595e-04
  7.49343512e-03  4.59145731e-03 -1.14013166e-03 -6.43985187e-04 -9.09759763e-04
  3.44117321e-02  5.38117959e-03  8.27515635e-03  4.50906671e-03 -1.51165590e-03
  5.09716845e-03  1.98545498e-03  4.44716218e-04 -2.27622951e-03  6.84866929e-06
  1.62744403e-03 -1.14854926e-03 -3.05634335e-04 -4.47935983e-04 -8.84165919e-05
  1.47820087e-02 -1.92378857e-01 -1.04410363e-01  8.30270064e-02  2.92137601e-02
  1.38751357e-02  8.68803248e-03 -2.84926546e-03  8.28301687e-03  4.82315003e-03
 -2.30631228e-03 -3.32493613e-03 -7.81840003e-03 -6.00926081e-03  1.94045504e-02
 -2.78423996e-01 -1.78296475e-01 -3.78405619e-02  4.03169226e-02 -1.90001005e-02
 -1.88004270e-02  2.07310050e-02 -1.37879861e-02  1.04600938e-02 -8.48176781e-04
  1.29482464e-03 -1.54091848e-03 -1.09901461e-02  1.81045794e-02 -2.40813192e-01
 -1.42201866e-01 -5.45044773e-02 -1.63541949e-02  1.53759281e-02 -1.91008413e-02
 -1.20088632e-02  9.57201326e-03  8.65400720e-03  1.72717893e-03  2.61355593e-03
  9.46994764e-03 -5.37553251e-03  5.42845948e-03 -1.23416192e-01 -6.65076167e-02
  6.05215585e-02 -8.51251603e-02 -1.00328880e-02  2.32471361e-02 -1.26760662e-02
 -6.67522914e-03  3.35160385e-03 -1.65291098e-03 -5.19264602e-04  1.20950363e-02
  4.05680136e-03  1.08891053e-03  8.79231417e-02  8.12101653e-02  2.64512489e-02
  2.15501742e-03 -7.22100668e-03  1.61792322e-02 -7.81263525e-03 -3.29040640e-03
  7.87129430e-04  3.98064105e-04 -6.90560588e-04 -1.04367488e-03  2.89426778e-03
  3.33340043e-02  3.71484711e-03 -1.94157432e-03 -9.10763761e-03  2.61012444e-04
 -5.99257413e-02 -5.63726064e-04  5.86538962e-03  8.84221027e-03 -2.16238561e-03
 -6.94953286e-02 -4.68593060e-03  8.17473840e-03 -5.56587505e-03  5.84593205e-03
 -3.28550000e-02  1.04081008e-03 -4.87751222e-04 -5.79535511e-03  2.14768870e-04
 -8.10605380e-02 -8.48444321e-03 -1.30192825e-02 -9.59659186e-04  2.03860574e-03
 -9.56874438e-02 -1.22526459e-02 -8.51228684e-03  1.08241329e-02 -6.37134293e-03
  1.62674995e-02 -2.26800485e-01 -1.26483669e-01  5.39076526e-02  9.05133813e-03
  1.37255336e-02  2.58725270e-03  1.07208630e-03  2.81177672e-03  3.08219675e-03
 -2.57429552e-03 -2.24098485e-03 -5.43674032e-03  7.22478327e-05  8.81769053e-03
 -1.33481544e-01 -1.00668517e-01 -1.09449759e-01 -7.68351323e-02 -6.63628647e-03
 -4.78412262e-02 -1.27719941e-02 -6.54393440e-03  2.35196342e-03 -4.15639510e-03
 -2.58669318e-03 -1.44945837e-02  3.89674077e-04 -1.33064479e-02  1.98852672e-01
  1.29860376e-01  9.83575840e-03 -1.19393837e-01 -4.58449901e-03  1.85843964e-02
 -3.36062379e-02 -1.92036936e-04 -3.39294366e-03  1.76327716e-04  1.98431614e-03
 -6.86243974e-03 -1.20641105e-02 -9.97709042e-03  2.51991330e-01  1.40462683e-01
 -7.29230227e-02  5.89736985e-02  1.12818872e-02 -2.24882235e-02  9.96050160e-03
  2.61517710e-03 -5.32060776e-03 -2.96660031e-04  1.32759667e-03 -5.35492463e-03
 -1.09433003e-02 -1.97273826e-03 -8.81006515e-02 -7.80996124e-02 -1.09377244e-01
 -4.49601443e-02  2.55659712e-02 -5.03123804e-02 -3.31126567e-03  1.02002837e-02
 -1.52491400e-03 -1.43869675e-03  1.32793921e-03  5.98091219e-03 -5.03706020e-03
 -1.08374126e-01 -2.04879827e-02  4.91286388e-03  1.15824903e-02 -3.23509778e-03
 -9.60875766e-02 -9.71360012e-03  6.06271587e-03  1.26176295e-02 -3.50633659e-03
 -9.55902238e-02 -1.23508199e-02  9.11170412e-03 -6.70934512e-03  7.86171856e-03
  1.09165430e-01  9.73618703e-03  5.27614496e-03  1.40003714e-02 -7.97835537e-04
  8.99555665e-02  1.37336009e-02  1.22780295e-02 -3.03293669e-03 -2.20683543e-03
 -5.75144304e-02 -1.17760513e-02 -6.74807533e-03  3.45339466e-03 -3.58114236e-03
  1.05205159e-02 -1.90220334e-01 -1.23444801e-01 -2.29052338e-02 -3.04665743e-02
  5.50537405e-05 -2.15409759e-02  4.50714443e-03 -8.44636837e-03 -1.56330610e-03
 -3.03442498e-04  4.81995260e-04  5.43954153e-04  2.32020603e-03 -2.70758772e-03
  8.49756516e-02  4.14261769e-02 -1.47714271e-01 -9.51579321e-02 -8.86421160e-03
 -4.93809683e-02 -4.03656846e-02 -1.01812528e-03 -9.46985835e-04 -4.66910735e-03
 -2.62482807e-03 -9.56562152e-03  1.46564558e-03 -5.97897000e-03  1.58255210e-01
  9.28446131e-02 -1.71123535e-02  1.19342582e-01 -1.35702748e-02  5.37054353e-03
  4.40394271e-02 -5.27897118e-03 -8.04157656e-04 -1.11321208e-03 -4.09483392e-03
 -2.16160802e-03  7.44898513e-03  3.16846577e-03 -2.07945323e-01 -1.26513808e-01
 -4.72539179e-02  1.43796475e-01  4.02989330e-03 -1.92203523e-02  3.46002729e-02
  7.88416744e-04  1.92494408e-03  2.20977310e-03 -2.90928398e-03 -8.73995545e-03
  9.45344126e-03  5.48226481e-04  5.42736955e-02  5.32167915e-02  2.35086997e-01
  1.40032993e-01 -6.14928398e-02  1.02669698e-01  4.30654945e-02 -2.56265417e-02
  1.28215839e-03  2.81628508e-03 -1.65033475e-03 -1.18869332e-02  3.76720002e-03
  1.88471983e-01  3.80278898e-02 -8.19898439e-03 -2.33253280e-02  2.99445647e-03
 -1.23673041e-01 -2.66648676e-02  5.10170909e-03  1.27198733e-02 -4.32062075e-03
 -9.32275375e-02 -6.33879039e-03  6.51271830e-03 -9.43197774e-03  5.90982556e-03
 -1.64216241e-01 -3.09973959e-02 -9.46054605e-03 -1.41542276e-02  1.26115794e-03
  9.33193696e-02  2.01008620e-02  1.04865496e-02  2.67328568e-03 -2.08047733e-03
  5.69831158e-02  1.12414047e-02  5.06271215e-04 -6.40482028e-03  2.37617187e-03
  6.72373845e-03 -1.37990099e-01 -8.41660148e-02 -1.40436971e-01  2.24477851e-02
 -4.27345206e-02 -5.58139891e-02  1.30173210e-02 -1.44667175e-02 -3.08873949e-03
  3.43570114e-03 -3.19475994e-05  1.08958301e-02  2.91099879e-03 -4.30156305e-03
  2.11741899e-01  1.21811148e-01 -1.04722013e-01  5.17494930e-02 -4.08075417e-02
 -4.40632378e-02  7.74307471e-03 -1.19338275e-02  4.19956849e-03 -2.58641026e-03
 -6.23895715e-04 -2.12421739e-03 -2.39474623e-04  1.93526107e-03 -7.81399946e-02
 -2.18862305e-02 -4.82035666e-03  1.85117830e-01 -2.04263189e-02  1.28331778e-03
  4.20421008e-02 -9.02120202e-03 -1.38516586e-03 -1.34056575e-03 -4.81408769e-03
 -3.71372302e-03  6.11014243e-03  2.63027549e-03 -1.36168357e-02 -1.64779211e-02
  1.57936832e-01 -1.75880798e-01 -3.52543619e-02  4.74525802e-02 -6.28587546e-02
 -1.04348586e-02 -2.26635511e-03 -2.60875420e-03  1.14890989e-03  1.01806353e-02
 -9.98049861e-03  1.26177254e-03  3.84540098e-02  5.95757261e-02 -1.97605893e-01
 -1.76344041e-01  4.62142995e-02 -7.64649709e-02 -7.15000968e-02  1.53426380e-02
  1.00107144e-03 -1.35513546e-03  9.59224674e-04  1.07215759e-02 -1.67478562e-03
 -1.88468475e-01 -4.77735624e-02  6.02796798e-03  1.26501710e-02 -5.51367853e-03
 -9.51368198e-02 -2.30469379e-02  2.78924336e-04  1.02000235e-02 -4.06942333e-03
 -1.68084422e-01 -3.62808842e-02  7.28768656e-03 -7.04398383e-03  1.01250410e-02
  3.06478042e-02  3.94324588e-03  3.57670644e-03  3.93010773e-04 -7.59609578e-04
 -4.30444489e-02 -1.00216958e-02 -5.35001272e-03  3.87823561e-03  4.74404622e-04
  1.86918977e-01  3.97091448e-02  9.32246309e-03 -1.30048134e-02  8.47859042e-03
 -7.29957361e-04  3.57114593e-02  4.10040129e-02  6.43673979e-02  1.43118126e-01
 -2.85656136e-02  1.16578420e-02  5.79899321e-02 -1.19087270e-02  2.16246870e-03
 -1.37131951e-03 -2.32169649e-03 -4.78373368e-04 -3.95059946e-03 -3.84095809e-04
 -2.96828272e-02 -1.49684886e-02 -9.06122912e-02  1.50284163e-01 -4.97852256e-02
 -5.33543986e-02  4.60597718e-02 -1.17583228e-02  9.47267089e-04 -1.73764347e-03
 -8.41004021e-04  6.92108245e-03  8.41159252e-03 -4.13284730e-03  3.03094798e-02