[Molden Format]
[Atoms] (AU)
C    1    6           1.6423350238         3.0055195245         0.3021504367
C    2    6          -0.7916974780         2.4107441381        -0.1703269584
C    3    6          -2.0438713938        -0.0088511585         0.2924816340
C    4    6          -0.8894601726        -2.2808548574         0.1029140412
O    5    8           1.5804607228        -2.6811402358        -0.4078009793
H    6    1           2.3550734267        -1.0316382686        -0.7042303546
H    7    1           2.4276830540         4.8274263462        -0.2651573838
H    8    1           2.9022691944         1.7510335478         1.3599337628
H    9    1          -1.9197131748        -4.0628159302         0.2669706148
H   10    1          -4.0832571387        -0.0145299367         0.6220719801
H   11    1          -1.9668330422         3.8547791694        -1.0849992841
[GTO]
  1 0
 s    8  1.00
     6665.0000000000         0.0006920000
     1000.0000000000         0.0053290000
      228.0000000000         0.0270770000
       64.7100000000         0.1017180000
       21.0600000000         0.2747400000
        7.4950000000         0.4485640000
        2.7970000000         0.2850740000
        0.5215000000         0.0152040000
 s    8  1.00
     6665.0000000000        -0.0001460000
     1000.0000000000        -0.0011540000
      228.0000000000        -0.0057250000
       64.7100000000        -0.0233120000
       21.0600000000        -0.0639550000
        7.4950000000        -0.1499810000
        2.7970000000        -0.1272620000
        0.5215000000         0.5445290000
 s    1  1.00
        0.1596000000         1.0000000000
 p    3  1.00
        9.4390000000         0.0381090000
        2.0020000000         0.2094800000
        0.5456000000         0.5085570000
 p    1  1.00
        0.1517000000         1.0000000000
 d    1  1.00
        0.5500000000         1.0000000000

  2 0
 s    8  1.00
     6665.0000000000         0.0006920000
     1000.0000000000         0.0053290000
      228.0000000000         0.0270770000
       64.7100000000         0.1017180000
       21.0600000000         0.2747400000
        7.4950000000         0.4485640000
        2.7970000000         0.2850740000
        0.5215000000         0.0152040000
 s    8  1.00
     6665.0000000000        -0.0001460000
     1000.0000000000        -0.0011540000
      228.0000000000        -0.0057250000
       64.7100000000        -0.0233120000
       21.0600000000        -0.0639550000
        7.4950000000        -0.1499810000
        2.7970000000        -0.1272620000
        0.5215000000         0.5445290000
 s    1  1.00
        0.1596000000         1.0000000000
 p    3  1.00
        9.4390000000         0.0381090000
        2.0020000000         0.2094800000
        0.5456000000         0.5085570000
 p    1  1.00
        0.1517000000         1.0000000000
 d    1  1.00
        0.5500000000         1.0000000000

  3 0
 s    8  1.00
     6665.0000000000         0.0006920000
     1000.0000000000         0.0053290000
      228.0000000000         0.0270770000
       64.7100000000         0.1017180000
       21.0600000000         0.2747400000
        7.4950000000         0.4485640000
        2.7970000000         0.2850740000
        0.5215000000         0.0152040000
 s    8  1.00
     6665.0000000000        -0.0001460000
     1000.0000000000        -0.0011540000
      228.0000000000        -0.0057250000
       64.7100000000        -0.0233120000
       21.0600000000        -0.0639550000
        7.4950000000        -0.1499810000
        2.7970000000        -0.1272620000
        0.5215000000         0.5445290000
 s    1  1.00
        0.1596000000         1.0000000000
 p    3  1.00
        9.4390000000         0.0381090000
        2.0020000000         0.2094800000
        0.5456000000         0.5085570000
 p    1  1.00
        0.1517000000         1.0000000000
 d    1  1.00
        0.5500000000         1.0000000000

  4 0
 s    8  1.00
     6665.0000000000         0.0006920000
     1000.0000000000         0.0053290000
      228.0000000000         0.0270770000
       64.7100000000         0.1017180000
       21.0600000000         0.2747400000
        7.4950000000         0.4485640000
        2.7970000000         0.2850740000
        0.5215000000         0.0152040000
 s    8  1.00
     6665.0000000000        -0.0001460000
     1000.0000000000        -0.0011540000
      228.0000000000        -0.0057250000
       64.7100000000        -0.0233120000
       21.0600000000        -0.0639550000
        7.4950000000        -0.1499810000
        2.7970000000        -0.1272620000
        0.5215000000         0.5445290000
 s    1  1.00
        0.1596000000         1.0000000000
 p    3  1.00
        9.4390000000         0.0381090000
        2.0020000000         0.2094800000
        0.5456000000         0.5085570000
 p    1  1.00
        0.1517000000         1.0000000000
 d    1  1.00
        0.5500000000         1.0000000000

  5 0
 s    8  1.00
    11720.0000000000         0.0007100000
     1759.0000000000         0.0054700000
      400.8000000000         0.0278370000
      113.7000000000         0.1048000000
       37.0300000000         0.2830620000
       13.2700000000         0.4487190000
        5.0250000000         0.2709520000
        1.0130000000         0.0154580000
 s    8  1.00
    11720.0000000000        -0.0001600000
     1759.0000000000        -0.0012630000
      400.8000000000        -0.0062670000
      113.7000000000        -0.0257160000
       37.0300000000        -0.0709240000
       13.2700000000        -0.1654110000
        5.0250000000        -0.1169550000
        1.0130000000         0.5573680000
 s    1  1.00
        0.3023000000         1.0000000000
 p    3  1.00
       17.7000000000         0.0430180000
        3.8540000000         0.2289130000
        1.0460000000         0.5087280000
 p    1  1.00
        0.2753000000         1.0000000000
 d    1  1.00
        1.1850000000         1.0000000000

  6 0
 s    3  1.00
       13.0100000000         0.0196850000
        1.9620000000         0.1379770000
        0.4446000000         0.4781480000
 s    1  1.00
        0.1220000000         1.0000000000
 p    1  1.00
        0.7270000000         1.0000000000

  7 0
 s    3  1.00
       13.0100000000         0.0196850000
        1.9620000000         0.1379770000
        0.4446000000         0.4781480000
 s    1  1.00
        0.1220000000         1.0000000000
 p    1  1.00
        0.7270000000         1.0000000000

  8 0
 s    3  1.00
       13.0100000000         0.0196850000
        1.9620000000         0.1379770000
        0.4446000000         0.4781480000
 s    1  1.00
        0.1220000000         1.0000000000
 p    1  1.00
        0.7270000000         1.0000000000

  9 0
 s    3  1.00
       13.0100000000         0.0196850000
        1.9620000000         0.1379770000
        0.4446000000         0.4781480000
 s    1  1.00
        0.1220000000         1.0000000000
 p    1  1.00
        0.7270000000         1.0000000000

  10 0
 s    3  1.00
       13.0100000000         0.0196850000
        1.9620000000         0.1379770000
        0.4446000000         0.4781480000
 s    1  1.00
        0.1220000000         1.0000000000
 p    1  1.00
        0.7270000000         1.0000000000

  11 0
 s    3  1.00
       13.0100000000         0.0196850000
        1.9620000000         0.1379770000
        0.4446000000         0.4781480000
 s    1  1.00
        0.1220000000         1.0000000000
 p    1  1.00
        0.7270000000         1.0000000000

[5D7F]
[9G]

[MO]
 Sym= A
 Ene=        -1.9174595522e+01
 Spin= Alpha
 Occup=         2.0000000000e+00
  1        -7.9051989135e-05
  2        -1.3599887026e-04
  3         1.2247637062e-03
  4        -1.0309625167e-04
  5         7.4995999617e-05
  6         2.3226773370e-05
  7        -2.4711268651e-04
  8        -1.3498603053e-03
  9         1.5851367763e-04
 10        -7.0803813647e-05
 11         1.2618938384e-05
 12         4.2397100009e-05
 13        -5.0135657628e-05
 14         7.5858640261e-05
 15         2.1204277047e-04
 16         3.6499715669e-04
 17        -5.5978878243e-03
 18        -5.3056087607e-06
 19         5.7926476169e-06
 20         6.5263069445e-05
 21         2.2324261061e-04
 22         2.9644726450e-03
 23        -9.0148402565e-04
 24         6.7490766374e-05
 25        -1.2651841896e-04
 26         1.0347079757e-04
 27        -6.7907097477e-06
 28         2.1376839695e-05
 29        -1.9276312315e-04
 30        -2.8140313007e-04
 31         4.7937765073e-03
 32         5.2664173355e-05
 33        -2.6811153141e-04
 34         6.4938781175e-06
 35         4.6565403939e-03
 36         3.1304700371e-03
 37        -1.0686993458e-03
 38        -1.5907993023e-04
 39        -1.4172166835e-04
 40         6.5695881637e-05
 41         3.8810830909e-04
 42        -3.9712543176e-04
 43        -1.9776361367e-04
 44        -3.6043361758e-04
 45        -5.6923695701e-03
 46        -3.2908184375e-04
 47         2.1934407922e-04
 48         9.9470934981e-05
 49        -5.8656592755e-03
 50        -1.4716642758e-03
 51         1.2058973184e-03
 52         4.0376912840e-04
 53         4.8543258104e-06
 54         7.0144981119e-05
 55         7.0839063828e-04
 56        -4.0127906316e-04
 57        -1.0040818846e+00
 58        -9.3545737091e-03
 59         1.4055491496e-02
 60         8.9479324383e-04
 61        -1.4499053472e-03
 62        -5.8514751929e-05
 63        -3.2324341178e-03
 64         1.4233449962e-03
 65         6.0614182266e-04
 66         1.9605800888e-05
 67         1.1084226991e-06
 68         8.3150971280e-05
 69         1.4899718519e-04
 70        -2.6146784893e-04
 71        -2.6371973986e-04
 72        -3.3412925237e-04
 73        -2.2559113354e-04
 74        -9.7531971537e-04
 75         5.9336639501e-05
 76         5.4355429197e-05
 77         2.9794323639e-04
 78         3.7348663194e-05
 79         6.2495582308e-05
 80         7.4965045306e-06
 81        -2.3267233803e-04
 82        -1.9810486162e-04
 83         3.2365448779e-06
 84        -2.5840744594e-05
 85        -1.3533030306e-05
 86         4.0362639663e-04
 87        -9.0017082848e-04
 88         6.3473785077e-04
 89         1.4462714932e-04
 90        -1.2621858454e-04
 91         1.6934634512e-04
 92         1.2521952307e-03
 93        -2.2472224765e-04
 94        -2.0725428143e-04
 95         6.3111769565e-05
 96         8.9158693692e-05
 97        -6.1287351126e-04
 98        -3.4908659655e-05
 99        -1.0842878493e-04
100         2.8834622397e-05
 Sym= A
 Ene=        -1.0250619985e+01
 Spin= Alpha
 Occup=         2.0000000000e+00
  1        -2.8000107075e-04
  2        -3.4358324806e-04
  3         1.1090739056e-03
  4         1.4560843176e-04
  5         7.9989020430e-05
  6         7.2718822621e-05
  7        -1.2731573768e-03
  8         4.9402220299e-04
  9        -6.3742225377e-04
 10        -7.5448878191e-05
 11        -1.6462191752e-05
 12        -2.9410871418e-05
 13         5.4450508649e-05
 14        -3.8127829347e-05
 15        -4.9327069894e-04
 16        -7.0607688194e-04
 17         4.8793208383e-03
 18        -1.1855409959e-04
 19         1.3123102598e-05
 20         2.4092724586e-06
 21        -2.3966494153e-03
 22        -4.1513355205e-03
 23         7.6347666636e-04
 24        -3.5242474529e-04
 25        -9.7758242716e-05
 26        -1.0468084847e-04
 27         7.4895168069e-06
 28         1.8594486007e-04
 29         4.5899657346e-03
 30        -1.0030074051e-03
 31         1.1992086737e-04
 32        -5.7549089348e-04
 33         1.3512807889e-03
 34         9.6451280160e-05
 35        -1.9629353211e-03
 36        -6.4754919272e-03
 37         7.7185546555e-04
 38         1.0747076554e-03
 39         2.4010093145e-04
 40        -5.4607213681e-05
 41         5.7255458473e-04
 42         9.0353819110e-04
 43         1.0059151311e+00
 44         1.5299497116e-02
 45        -1.2558343898e-02
 46         5.6552424181e-04
 47        -4.7331165089e-04
 48        -1.7960377617e-04
 49         5.0572266139e-03
 50        -2.3668492257e-03
 51        -1.0122908475e-03
 52        -1.6334561787e-03
 53        -5.0742486382e-04
 54         3.7391164807e-05
 55        -3.1478892250e-04
 56        -1.2529483877e-05
 57         7.2120286351e-04
 58         1.3018674464e-03
 59        -4.9351898147e-03
 60         2.6458248075e-04
 61        -2.0768238798e-04
 62        -3.4799650897e-05
 63         3.2593997933e-03
 64        -2.6588580738e-04
 65        -6.9421334487e-04
 66         6.9626446921e-04
 67         4.3073067106e-04
 68        -1.7727447523e-05
 69        -7.6533331143e-04
 70         1.9852880298e-04
 71         5.2246642013e-04
 72        -4.3660990142e-04
 73        -6.2453188081e-04
 74        -2.7028248719e-05
 75         1.1891010523e-04
 76        -5.4619743967e-05
 77         1.6876976619e-04
 78        -2.5838166475e-05
 79        -5.4842992206e-05
 80         3.0730363049e-05
 81         6.2552888252e-06
 82         9.3835003198e-04
 83         1.0587544203e-05
 84         6.3615228017e-05
 85        -2.9346515141e-05
 86        -2.1694922274e-03
 87         2.3298355750e-03
 88        -1.5366151743e-03
 89        -1.5955118846e-03
 90         2.6225629332e-04
 91        -1.4408779320e-04
 92        -2.6783296009e-04
 93         3.0057323292e-04
 94         2.9285936722e-04
 95        -7.4344624426e-05
 96        -5.4582639949e-05
 97         5.5041336421e-04
 98         1.7196485590e-04
 99         1.3095644823e-04
100        -3.1880042695e-05
 Sym= A
 Ene=        -1.0206058152e+01
 Spin= Alpha
 Occup=         2.0000000000e+00
  1         2.1864245858e-02
  2        -1.1309084037e-03
  3         4.7897577255e-03
  4         1.3290577281e-03
  5         3.3838180293e-04
  6         1.6531460182e-04
  7        -2.0781900446e-03
  8        -1.8134195352e-03
  9         3.8450568141e-04
 10         7.6089180389e-04
 11        -5.4516695225e-04
 12        -2.8963510898e-05
 13        -1.0660915606e-03
 14        -4.0090829365e-04
 15         1.0061953865e+00
 16         1.6274837742e-02
 17        -1.9227924032e-02
 18        -1.2700188456e-04
 19         2.0934464860e-04
 20        -2.4582780469e-04
 21        -1.7094792243e-03
 22         3.2021381596e-03
 23        -1.7579592029e-03
 24        -7.6053055176e-04
 25         6.9660860305e-04
 26        -6.4820576676e-04
 27         2.2582181248e-04
 28        -2.9790572167e-05
 29         5.6713991158e-03
 30        -4.4189117282e-04
 31         1.0899224687e-03
 32        -4.6576210407e-04
 33        -6.3138846952e-04
 34         1.4555645367e-04
 35         7.6023585539e-04
 36         3.8872624291e-03
 37         2.7875903406e-04
 38         8.0004253380e-04
 39         4.0350886397e-05
 40         5.8571880639e-04
 41         1.0971053024e-03
 42        -9.5766595824e-04
 43        -3.5771375346e-04
 44        -7.0329234940e-04
 45         4.1396931270e-03
 46        -1.0539425327e-04
 47        -1.6116436240e-04
 48         1.2898375373e-04
 49        -6.1733689364e-04
 50         2.8007710538e-03
 51        -2.6667805171e-04
 52        -4.2993461024e-04
 53        -3.1720872806e-04
 54         6.1638548351e-05
 55         4.0757648252e-04
 56        -3.1137541861e-04
 57         9.0041202622e-05
 58         1.3222810351e-04
 59        -1.2305069668e-03
 60         1.6363728063e-04
 61        -3.9989656423e-05
 62        -2.6434080406e-05
 63         1.3434198016e-04
 64        -6.9330314332e-04
 65         8.8280206350e-05
 66         8.3524635147e-05
 67         2.4717527901e-05
 68         1.9194199993e-05
 69        -1.4675527738e-05
 70         1.7352778329e-05
 71         2.9170977746e-04
 72         6.0966527272e-04
 73        -2.7763633022e-04
 74        -8.0846237678e-05
 75        -1.8494227394e-05
 76        -5.0321008161e-05
 77         9.0061490852e-04
 78         1.4458682706e-04
 79        -1.1465826419e-04
 80         7.6867244898e-05
 81        -2.6062769572e-04
 82        -2.1447477836e-04
 83         3.8314039191e-05
 84         2.4545474442e-04
 85        -1.1389819453e-04
 86         9.9827965050e-05
 87         8.0255541996e-04
 88         1.8005648346e-04
 89        -5.6395449364e-05
 90         2.0990468830e-06
 91        -2.9449841246e-04
 92         4.0797815373e-04
 93        -6.9605234006e-05
 94        -3.8529435774e-04
 95        -5.8045350844e-05
 96        -2.2948627659e-03
 97         1.1976163897e-03
 98        -1.1565855413e-03
 99         1.5137676561e-03
100        -9.3509407629e-04
 Sym= A
 Ene=        -1.0190426712e+01
 Spin= Alpha
 Occup=         2.0000000000e+00
  1         1.0061927431e+00
  2         1.6370776989e-02
  3        -1.5231021979e-02
  4         2.8208657790e-04
  5        -4.7360548525e-05
  6         3.3345360359e-05
  7         2.1903008347e-03
  8         7.2345516682e-04
  9         7.3751374849e-04
 10        -1.0427343366e-03
 11         7.3887671809e-04
 12        -1.1822797473e-03
 13         5.7831796096e-05
 14         3.3326526233e-04
 15        -2.3088783187e-02
 16        -1.4473139452e-03
 17         9.5071936900e-04
 18        -1.3411888196e-03
 19        -3.3288175738e-04
 20        -2.7572318685e-04
 21         2.9014466821e-03
 22         2.5053176359e-03
 23        -4.9238285398e-05
 24         1.0041952391e-03
 25        -5.8587772937e-04
 26         1.8473954434e-04
 27        -9.9732138236e-04
 28        -7.7570638927e-04
 29        -1.0910182912e-03
 30        -5.2079597245e-04
 31         3.5370434762e-03
 32        -8.4398471366e-05
 33         5.4202394803e-05
 34        -6.7137638727e-05
 35         1.9490920977e-03
 36         2.4763280947e-03
 37        -5.0688649784e-04
 38        -3.7480302210e-04
 39         7.5457981798e-05
 40        -2.4668520314e-04
 41        -3.3765950103e-04
 42         3.2079747605e-05
 43         1.1097246100e-05
 44        -2.0571294778e-04
 45        -6.4414303359e-04
 46         3.3820511117e-07
 47        -1.3421195600e-04
 48        -5.1877256379e-05
 49        -1.3172214596e-03
 50        -1.6379887516e-04
 51         3.0249609318e-04
 52         5.9784455361e-05
 53         9.8613957236e-05
 54        -9.0128026964e-05
 55        -4.5530284990e-05
 56         1.0559522108e-04
 57         1.0343584529e-05
 58         3.4019090221e-05
 59         4.1083014993e-04
 60         1.1980389851e-04
 61         6.7112753483e-05
 62        -3.8179756419e-05
 63        -6.6374297797e-04
 64        -1.6929467035e-04
 65         1.0305198917e-04
 66        -3.1088492932e-05
 67        -3.3682259546e-05
 68        -2.7687439592e-05
 69         7.8588645503e-05
 70         5.5139896957e-05
 71         1.6650877466e-04
 72         1.2805012127e-03
 73        -1.2063685488e-04
 74         4.2388593905e-04
 75         8.8327693390e-05
 76        -2.3157476145e-03
 77         1.8977467924e-03
 78         7.4710678782e-04
 79         2.0216027233e-03
 80        -6.9950675301e-04
 81        -2.1376852921e-03
 82         1.4925307291e-03
 83         1.2200196844e-03
 84        -1.4861209929e-03
 85         1.2232566159e-03
 86        -8.1609876938e-05
 87        -3.6894619104e-05
 88         4.0142762425e-05
 89         2.0158022836e-05
 90        -1.9865717652e-05
 91         1.0962849731e-04
 92         5.8142868527e-04
 93         1.1683052890e-05
 94        -1.3171756167e-04
 95         4.4490010746e-05
 96         7.8742892513e-05
 97         2.4644263676e-04
 98         1.7962659050e-05
 99        -3.1669361812e-04
100         1.0633204673e-04
 Sym= A
 Ene=        -1.0182688212e+01
 Spin= Alpha
 Occup=         2.0000000000e+00
  1         3.7020157502e-04
  2        -4.5253597853e-04
  3         2.8301156857e-03
  4         7.2975629782e-05
  5         1.0512986901e-04
  6        -8.6064232372e-05
  7        -2.1066978075e-03
  8        -4.3243344201e-04
  9        -4.6758072840e-05
 10        -2.5464573963e-04
 11         5.2355248054e-04
 12        -3.0541483927e-04
 13         2.7445842793e-04
 14        -4.8011115524e-04
 15        -6.0606873287e-03
 16        -6.9576431340e-04
 17         3.0120401877e-03
 18         2.1490874861e-04
 19         7.0562530470e-04
 20        -1.7909326877e-04
 21        -2.1116631456e-03
 22        -3.8700831294e-03
 23        -4.5493727019e-05
 24         9.0588750790e-04
 25         4.9562712085e-04
 26         3.6280047842e-04
 27         5.6005261795e-04
 28        -1.3123248647e-03
 29         1.0066413918e+00
 30         1.6736229476e-02
 31        -2.1879172576e-02
 32        -2.1926705238e-04
 33        -1.5225397003e-04
 34        -1.1841272074e-04
 35        -5.1460536592e-03
 36        -2.6037027107e-04
 37         1.5874275377e-03
 38        -1.0759692003e-03
 39        -3.8331318111e-04
 40        -7.6585378541e-06
 41         2.8066073549e-04
 42        -2.0326497514e-04
 43        -5.8361403018e-03
 44        -1.5903147716e-03
 45         6.7392078637e-03
 46         6.3665567724e-04
 47        -1.2319086292e-03
 48        -9.2698823713e-05
 49         3.1451006062e-04
 50         4.2064002230e-03
 51        -3.4477053252e-04
 52         8.4024476586e-04
 53         1.6128765247e-04
 54        -2.0837708574e-04
 55         6.9975598820e-04
 56         1.0186479974e-03
 57         3.5020183177e-05
 58         4.9831924957e-05
 59        -9.6664366661e-04
 60         2.8151645774e-05
 61        -5.8490491803e-05
 62        -2.7720370553e-06
 63        -1.0528075388e-04
 64        -7.0875625817e-04
 65         7.0559094671e-05
 66        -5.7440580141e-05
 67        -4.1457136117e-05
 68        -1.0406951223e-05
 69         9.6810553224e-05
 70         8.2080497984e-05
 71         2.7219350876e-04
 72         3.6636583089e-05
 73        -1.3785713374e-04
 74        -1.6276463799e-04
 75         2.4017229073e-05
 76         1.1154520983e-04
 77         5.1351648667e-04
 78         1.4125644636e-04
 79        -1.4577127616e-04
 80         5.0846264954e-05
 81        -7.0528211196e-04
 82         5.0762274559e-04
 83         1.9168275096e-04
 84        -1.2160080274e-04
 85         1.2085008449e-04
 86         1.4546143799e-04
 87         1.2168622272e-03
 88         2.8554116050e-04
 89        -2.3513910666e-05
 90        -1.7227492547e-05
 91        -2.3690757643e-03
 92         8.3137915816e-04
 93        -2.1134426214e-03
 94        -5.5424053800e-05
 95         2.6698476799e-04
 96        -3.3314862561e-04
 97         6.9876830929e-04
 98         2.0576409381e-04
 99         2.8760437703e-04
100         7.3442794108e-05
 Sym= A
 Ene=        -1.0650920405e+00
 Spin= Alpha
 Occup=         2.0000000000e+00
  1         1.4078823953e-04
  2         8.4054372664e-03
  3        -4.3533363274e-03
  4        -1.8930934488e-03
  5        -5.0783479415e-03
  6        -6.7070741406e-04
  7         2.6116446968e-03
  8         5.1686501922e-03
  9        -1.9211848223e-03
 10        -2.5617135780e-04
 11        -5.6028637070e-04
 12         7.0042486420e-04
 13        -8.1027460627e-04
 14         9.7327805367e-04
 15        -8.9617180778e-05
 16         1.3120202571e-02
 17         1.9344706757e-03
 18         1.5357439538e-03
 19        -8.6358150315e-03
 20         9.6907254735e-04
 21         5.9283592117e-03
 22         3.2405757159e-03
 23         1.4585151963e-04
 24        -1.3783406411e-03
 25        -1.5615837901e-04
 26        -4.2737461126e-04
 27        -1.3241182008e-03
 28         4.1796730823e-04
 29        -1.3236688888e-03
 30         3.5102367811e-02
 31        -4.1792001971e-03
 32         2.1170350688e-02
 33        -1.8083739739e-02
 34        -4.2996850813e-03
 35         5.4355318091e-03
 36         1.4999888115e-02
 37        -2.0622715931e-03
 38        -2.2323924251e-03
 39        -1.1049231862e-03
 40         1.5399362065e-03
 41         2.1601566623e-03
 42        -8.0532931405e-03
 43        -1.2702117681e-02
 44         1.5414034222e-01
 45         8.5062832387e-02
 46         1.2600585786e-01
 47        -5.7525943814e-03
 48        -2.7111495184e-02
 49         5.0685054763e-03
 50         2.3924057729e-02
 51        -1.2448723290e-03
 52        -1.1086617368e-02
 53        -1.0768914580e-02
 54         9.1576626683e-04
 55         2.8342796954e-02
 56        -4.8971621955e-03
 57        -6.6770337107e-03
 58         4.2402549069e-01
 59         3.7299117275e-01
 60        -7.3218545119e-02
 61         9.0240399131e-02
 62         9.0990957246e-03
 63        -3.1109272424e-02
 64        -1.5799943148e-03
 65         6.7455709441e-03
 66        -6.3483470738e-03
 67        -3.3507496047e-03
 68        -3.6535060727e-04
 69         3.9639240095e-03
 70        -1.8333740018e-03
 71         1.7104218846e-01
 72         4.9296173690e-03
 73        -1.8757089760e-02
 74        -2.9738785810e-02
 75         6.9207240223e-03
 76         1.8087191213e-05
 77        -3.9266780001e-03
 78         5.6614767011e-05
 79         1.0907157490e-04
 80        -1.6102157266e-04
 81         7.4652087688e-03
 82         4.6100004460e-03
 83        -1.1407221561e-03
 84        -6.4799315630e-04
 85        -9.1696077064e-04
 86         3.4392858851e-02
 87         5.3486936241e-03
 88         8.2783169451e-03
 89         4.5045050752e-03
 90        -1.5161614632e-03
 91         5.0748463266e-03
 92         1.9977727888e-03
 93         4.3098723409e-04
 94        -2.2807595833e-03
 95         7.1747386370e-06
 96         1.6275748289e-03
 97        -1.1655857323e-03
 98        -3.0338929775e-04
 99        -4.4775735270e-04
100        -8.6915476912e-05
 Sym= A
 Ene=        -8.0192872613e-01
 Spin= Alpha
 Occup=         2.0000000000e+00
  1         1.4795943378e-02
  2        -1.9231553865e-01
  3        -1.0421702806e-01
  4         8.3068666648e-02
  5         2.9193191573e-02
  6         1.3898643501e-02
  7         8.6670868955e-03
  8        -2.8843302450e-03
  9         8.2742379369e-03
 10         4.8193600052e-03
 11        -2.3029496640e-03
 12        -3.3311055118e-03
 13        -7.8166993995e-03
 14        -6.0043426523e-03
 15         1.9424597667e-02
 16        -2.7822567085e-01
 17        -1.7828038434e-01
 18        -3.7936845574e-02
 19         4.0239234473e-02
 20        -1.9131769393e-02
 21        -1.8836913794e-02
 22         2.0813589184e-02
 23        -1.3793810232e-02
 24         1.0451558735e-02
 25        -8.5908364374e-04
 26         1.3046471395e-03
 27        -1.5354233293e-03
 28        -1.0992039899e-02
 29         1.8124894695e-02
 30        -2.4090310302e-01
 31        -1.4215384254e-01
 32        -5.4599242090e-02
 33        -1.6044573478e-02
 34         1.5459249532e-02
 35        -1.9023939836e-02
 36        -1.1916902790e-02
 37         9.5413014451e-03
 38         8.6539820567e-03
 39         1.7391927305e-03
 40         2.6162740669e-03
 41         9.4826707985e-03
 42        -5.3466045238e-03
 43         5.4608174044e-03
 44        -1.2377962249e-01
 45        -6.6623329309e-02
 46         6.0624007840e-02
 47        -8.5334324984e-02
 48        -1.0035803839e-02
 49         2.3210814490e-02
 50        -1.2710024423e-02
 51        -6.6571942516e-03
 52         3.3565962534e-03
 53        -1.6562274168e-03
 54        -5.1331342780e-04
 55         1.2097041187e-02
 56         4.0633892119e-03
 57         1.0943782617e-03
 58         8.7969234179e-02
 59         8.1215764401e-02
 60         2.6452589815e-02
 61         2.2073536361e-03
 62        -7.2900068902e-03
 63         1.6191427630e-02
 64        -7.8287591738e-03
 65        -3.2943970036e-03
 66         7.8978338705e-04
 67         3.9597483570e-04
 68        -6.9389201962e-04
 69        -1.0467435740e-03
 70         2.8977563813e-03
 71         3.3437411401e-02
 72         3.7185248189e-03
 73        -1.9402747103e-03
 74        -9.1081856112e-03
 75         2.8140467846e-04
 76        -5.9903361874e-02
 77        -5.6246380821e-04
 78         5.8654441663e-03
 79         8.8467694755e-03
 80        -2.1515199510e-03
 81        -6.9403178235e-02
 82        -4.6839823921e-03
 83         8.1777665237e-03
 84        -5.5512150497e-03
 85         5.8468456161e-03
 86        -3.2976113943e-02
 87         1.0195259683e-03
 88        -4.9856879213e-04
 89        -5.8193739062e-03
 90         2.1972543331e-04
 91        -8.0998125880e-02
 92        -8.4416671742e-03
 93        -1.3027916740e-02
 94        -9.4432778210e-04
 95         2.0243542708e-03
 96        -9.5593327456e-02
 97        -1.2277553165e-02
 98        -8.5164955728e-03
 99         1.0824168511e-02
100        -6.3425106502e-03
 Sym= A
 Ene=        -7.3135339641e-01
 Spin= Alpha
 Occup=         2.0000000000e+00
  1         1.6313286581e-02
  2        -2.2695388061e-01
  3        -1.2660471636e-01
  4         5.4126244664e-02
  5         8.9598752740e-03
  6         1.3776890625e-02
  7         2.7040821719e-03
  8         1.1194820438e-03
  9         2.8242225944e-03
 10         3.0869993201e-03
 11        -2.5806945232e-03
 12        -2.2450011146e-03
 13        -5.4575479443e-03
 14         6.1203921458e-05
 15         8.8434245307e-03
 16        -1.3390709267e-01
 17        -1.0070953587e-01
 18        -1.0952347407e-01
 19        -7.6919186975e-02
 20        -6.7316247053e-03
 21        -4.7751295353e-02
 22        -1.2816766996e-02
 23        -6.5359423428e-03
 24         2.3472259758e-03
 25        -4.1668805325e-03
 26        -2.6011985914e-03
 27        -1.4511658992e-02
 28         3.5949079683e-04
 29        -1.3319760180e-02
 30         1.9890112634e-01
 31         1.2976725767e-01
 32         9.9904630247e-03
 33        -1.1966104490e-01
 34        -4.6381681972e-03
 35         1.8482325800e-02
 36        -3.3652200427e-02
 37        -1.5316464635e-04
 38        -3.3863611320e-03
 39         1.7801666215e-04
 40         1.9872041659e-03
 41        -6.8619661074e-03
 42        -1.2086869017e-02
 43        -1.0014923883e-02
 44         2.5181359575e-01
 45         1.4030147744e-01
 46        -7.3208545300e-02
 47         5.9298902670e-02
 48         1.1378121209e-02
 49        -2.2429963132e-02
 50         1.0083193967e-02
 51         2.5884697831e-03