[Molden Format]
[Atoms] (AU)
C    1    6           1.9936305274         2.6567364229        -0.2077347356
C    2    6          -0.8219053648         2.3908238190        -0.1284703433
C    3    6          -2.0984694087         0.1927342820         0.0799935092
C    4    6          -0.8911274501        -2.3181670441         0.0702554481
O    5    8           1.3723264097        -2.7287446080         0.1800886927
H    6    1           2.8794586783         1.1011945866        -1.2421087580
H    7    1           2.5801686544         4.4868176706        -0.9948668372
H    8    1           2.7456981373         2.5224609315         1.7409030349
H    9    1          -2.2357603739        -3.9387770831        -0.0985664667
H   10    1          -4.1635994974         0.2086423744         0.1846572757
H   11    1          -1.9406947383         4.1335473555        -0.2340088073
[GTO]
  1 0
 s    8  1.00
     6665.0000000000         0.0006920000
     1000.0000000000         0.0053290000
      228.0000000000         0.0270770000
       64.7100000000         0.1017180000
       21.0600000000         0.2747400000
        7.4950000000         0.4485640000
        2.7970000000         0.2850740000
        0.5215000000         0.0152040000
 s    8  1.00
     6665.0000000000        -0.0001460000
     1000.0000000000        -0.0011540000
      228.0000000000        -0.0057250000
       64.7100000000        -0.0233120000
       21.0600000000        -0.0639550000
        7.4950000000        -0.1499810000
        2.7970000000        -0.1272620000
        0.5215000000         0.5445290000
 s    1  1.00
        0.1596000000         1.0000000000
 p    3  1.00
        9.4390000000         0.0381090000
        2.0020000000         0.2094800000
        0.5456000000         0.5085570000
 p    1  1.00
        0.1517000000         1.0000000000
 d    1  1.00
        0.5500000000         1.0000000000

  2 0
 s    8  1.00
     6665.0000000000         0.0006920000
     1000.0000000000         0.0053290000
      228.0000000000         0.0270770000
       64.7100000000         0.1017180000
       21.0600000000         0.2747400000
        7.4950000000         0.4485640000
        2.7970000000         0.2850740000
        0.5215000000         0.0152040000
 s    8  1.00
     6665.0000000000        -0.0001460000
     1000.0000000000        -0.0011540000
      228.0000000000        -0.0057250000
       64.7100000000        -0.0233120000
       21.0600000000        -0.0639550000
        7.4950000000        -0.1499810000
        2.7970000000        -0.1272620000
        0.5215000000         0.5445290000
 s    1  1.00
        0.1596000000         1.0000000000
 p    3  1.00
        9.4390000000         0.0381090000
        2.0020000000         0.2094800000
        0.5456000000         0.5085570000
 p    1  1.00
        0.1517000000         1.0000000000
 d    1  1.00
        0.5500000000         1.0000000000

  3 0
 s    8  1.00
     6665.0000000000         0.0006920000
     1000.0000000000         0.0053290000
      228.0000000000         0.0270770000
       64.7100000000         0.1017180000
       21.0600000000         0.2747400000
        7.4950000000         0.4485640000
        2.7970000000         0.2850740000
        0.5215000000         0.0152040000
 s    8  1.00
     6665.0000000000        -0.0001460000
     1000.0000000000        -0.0011540000
      228.0000000000        -0.0057250000
       64.7100000000        -0.0233120000
       21.0600000000        -0.0639550000
        7.4950000000        -0.1499810000
        2.7970000000        -0.1272620000
        0.5215000000         0.5445290000
 s    1  1.00
        0.1596000000         1.0000000000
 p    3  1.00
        9.4390000000         0.0381090000
        2.0020000000         0.2094800000
        0.5456000000         0.5085570000
 p    1  1.00
        0.1517000000         1.0000000000
 d    1  1.00
        0.5500000000         1.0000000000

  4 0
 s    8  1.00
     6665.0000000000         0.0006920000
     1000.0000000000         0.0053290000
      228.0000000000         0.0270770000
       64.7100000000         0.1017180000
       21.0600000000         0.2747400000
        7.4950000000         0.4485640000
        2.7970000000         0.2850740000
        0.5215000000         0.0152040000
 s    8  1.00
     6665.0000000000        -0.0001460000
     1000.0000000000        -0.0011540000
      228.0000000000        -0.0057250000
       64.7100000000        -0.0233120000
       21.0600000000        -0.0639550000
        7.4950000000        -0.1499810000
        2.7970000000        -0.1272620000
        0.5215000000         0.5445290000
 s    1  1.00
        0.1596000000         1.0000000000
 p    3  1.00
        9.4390000000         0.0381090000
        2.0020000000         0.2094800000
        0.5456000000         0.5085570000
 p    1  1.00
        0.1517000000         1.0000000000
 d    1  1.00
        0.5500000000         1.0000000000

  5 0
 s    8  1.00
    11720.0000000000         0.0007100000
     1759.0000000000         0.0054700000
      400.8000000000         0.0278370000
      113.7000000000         0.1048000000
       37.0300000000         0.2830620000
       13.2700000000         0.4487190000
        5.0250000000         0.2709520000
        1.0130000000         0.0154580000
 s    8  1.00
    11720.0000000000        -0.0001600000
     1759.0000000000        -0.0012630000
      400.8000000000        -0.0062670000
      113.7000000000        -0.0257160000
       37.0300000000        -0.0709240000
       13.2700000000        -0.1654110000
        5.0250000000        -0.1169550000
        1.0130000000         0.5573680000
 s    1  1.00
        0.3023000000         1.0000000000
 p    3  1.00
       17.7000000000         0.0430180000
        3.8540000000         0.2289130000
        1.0460000000         0.5087280000
 p    1  1.00
        0.2753000000         1.0000000000
 d    1  1.00
        1.1850000000         1.0000000000

  6 0
 s    3  1.00
       13.0100000000         0.0196850000
        1.9620000000         0.1379770000
        0.4446000000         0.4781480000
 s    1  1.00
        0.1220000000         1.0000000000
 p    1  1.00
        0.7270000000         1.0000000000

  7 0
 s    3  1.00
       13.0100000000         0.0196850000
        1.9620000000         0.1379770000
        0.4446000000         0.4781480000
 s    1  1.00
        0.1220000000         1.0000000000
 p    1  1.00
        0.7270000000         1.0000000000

  8 0
 s    3  1.00
       13.0100000000         0.0196850000
        1.9620000000         0.1379770000
        0.4446000000         0.4781480000
 s    1  1.00
        0.1220000000         1.0000000000
 p    1  1.00
        0.7270000000         1.0000000000

  9 0
 s    3  1.00
       13.0100000000         0.0196850000
        1.9620000000         0.1379770000
        0.4446000000         0.4781480000
 s    1  1.00
        0.1220000000         1.0000000000
 p    1  1.00
        0.7270000000         1.0000000000

  10 0
 s    3  1.00
       13.0100000000         0.0196850000
        1.9620000000         0.1379770000
        0.4446000000         0.4781480000
 s    1  1.00
        0.1220000000         1.0000000000
 p    1  1.00
        0.7270000000         1.0000000000

  11 0
 s    3  1.00
       13.0100000000         0.0196850000
        1.9620000000         0.1379770000
        0.4446000000         0.4781480000
 s    1  1.00
        0.1220000000         1.0000000000
 p    1  1.00
        0.7270000000         1.0000000000

[5D7F]
[9G]

[MO]
 Sym= A
 Ene=        -1.9134636715e+01
 Spin= Alpha
 Occup=         2.0000000000e+00
  1        -5.9260792366e-05
  2        -1.2721921093e-04
  3         3.1815755514e-05
  4         6.2695528572e-05
  5         3.6134202632e-05
  6         1.4357487997e-05
  7        -2.0172319428e-05
  8        -5.2346502544e-05
  9         1.8279340127e-04
 10         6.0870437587e-05
 11         3.3551448506e-05
 12         4.8804121610e-05
 13         6.7095646940e-05
 14        -1.0229336905e-04
 15        -2.1818890971e-04
 16        -3.8824963030e-04
 17         5.6495271722e-03
 18        -1.9549498171e-05
 19        -1.4758356795e-05
 20        -3.9729757794e-05
 21        -1.0554630892e-03
 22        -2.4024801267e-03
 23         3.3874804885e-04
 24        -3.7276148087e-05
 25         9.4689204900e-06
 26        -9.4804604468e-06
 27        -5.2046057663e-05
 28        -4.7160554990e-05
 29         2.1810862912e-04
 30         3.3529431480e-04
 31        -4.3023290355e-03
 32         2.4121173172e-05
 33         2.8512078680e-04
 34        -1.6148443891e-05
 35        -4.6718862106e-03
 36        -3.5919785067e-03
 37         1.7337082210e-04
 38         1.4259210712e-04
 39         2.1122148649e-05
 40         7.2499911593e-05
 41        -3.6392127246e-04
 42         5.0678455877e-04
 43         4.4710971943e-04
 44         5.8368101278e-04
 45         5.4635163033e-03
 46        -1.1010330283e-04
 47        -1.7683109827e-04
 48        -1.8777995497e-05
 49         6.6339001746e-03
 50         6.1047099323e-04
 51         2.6798387648e-04
 52        -3.1710372819e-05
 53        -2.5805454479e-05
 54         5.8173994316e-05
 55        -1.1666855723e-03
 56         5.2164725617e-04
 57         1.0041725830e+00
 58         9.4775014590e-03
 59        -1.5134916032e-02
 60        -1.8373518488e-03
 61         3.6059250129e-04
 62        -1.0613452324e-04
 63         3.5032346417e-03
 64        -8.4850419703e-04
 65         1.9119956873e-04
 66        -2.0256592123e-05
 67         6.2034802745e-06
 68        -1.6888280726e-06
 69         6.8813908264e-05
 70         7.2758473315e-06
 71        -1.0258192459e-04
 72        -7.7616331667e-05
 73         4.7984838320e-05
 74         2.5028965111e-05
 75         5.2103488764e-06
 76         1.1800950394e-04
 77         3.3377307919e-04
 78        -7.0085370831e-05
 79        -7.6828930428e-05
 80         3.5537478779e-05
 81        -8.2145833033e-05
 82        -2.4918564029e-04
 83         6.2938050971e-05
 84         5.3059249421e-05
 85         5.1606318399e-05
 86        -1.6337506921e-04
 87         9.2267119959e-04
 88        -7.6661197687e-04
 89         1.0657703518e-04
 90        -2.6576873654e-05
 91        -2.6740510478e-04
 92        -1.3446704138e-03
 93         1.9088679779e-04
 94         2.5990696578e-04
 95         6.8682755053e-06
 96        -1.8329150179e-04
 97         2.5208492845e-04
 98         4.9240721835e-05
 99         8.6425425025e-05
100        -1.9511645047e-05
 Sym= A
 Ene=        -1.0272313893e+01
 Spin= Alpha
 Occup=         2.0000000000e+00
  1        -3.5547903136e-04
  2        -4.6417644924e-04
  3         8.7342611842e-04
  4         2.9538176595e-04
  5         6.3175821231e-05
  6        -4.3142762444e-06
  7        -6.0705132067e-04
  8         1.6823031836e-04
  9         7.0471196795e-05
 10         6.0980547411e-07
 11        -3.7389553270e-05
 12         2.0573645479e-05
 13        -1.2596056604e-04
 14        -5.4919754444e-05
 15        -4.2883215152e-04
 16        -6.3349910219e-04
 17         6.7967049358e-03
 18        -2.7099793678e-04
 19        -2.4615270439e-05
 20         3.0820590826e-05
 21        -2.2861027595e-03
 22        -3.9752227505e-03
 23         4.1414056445e-04
 24        -4.2650858206e-04
 25        -1.3104300062e-04
 26        -7.1583408545e-05
 27         3.2067252147e-04
 28         3.7329152532e-04
 29         1.6408090546e-03
 30        -2.4185008863e-04
 31        -2.2571123128e-03
 32        -3.4767058806e-04
 33         7.5874005938e-04
 34         1.3964963904e-05
 35        -2.7223671035e-03
 36        -6.1367319086e-03
 37         3.2271846662e-04
 38         1.0575268952e-03
 39        -2.6701710221e-05
 40         2.4966983481e-05
 41         1.1468542984e-03
 42         8.4658457562e-04
 43         1.0059433095e+00
 44         1.5290855912e-02
 45        -1.0741972391e-02
 46         7.3099292048e-04
 47        -5.0191548068e-04
 48        -1.1930075760e-05
 49         5.4327446924e-03
 50        -2.0660988318e-03
 51         1.4396235165e-04
 52        -1.6481634120e-03
 53         2.5362922378e-04
 54         9.6229675873e-05
 55         8.0244406324e-04
 56         1.5520345736e-05
 57         3.6488201497e-04
 58         9.1209615642e-04
 59        -5.9525122261e-03
 60         7.3879402071e-04
 61        -2.1461946695e-04
 62         2.3457862210e-05
 63         3.3949261196e-03
 64        -2.2134888942e-04
 65         1.9798663101e-04
 66         5.6269044468e-04
 67        -7.7473507513e-05
 68         4.4489882120e-07
 69        -7.1156130100e-04
 70         2.5825782244e-04
 71        -9.5027919493e-05
 72         4.3707784231e-06
 73         6.2879474059e-05
 74         2.6509819407e-05
 75        -1.5539265266e-05
 76        -4.6085972330e-05
 77         3.2087815053e-04
 78        -5.7595486171e-05
 79        -3.6860912770e-05
 80         1.7711524309e-06
 81        -5.6152384312e-05
 82        -4.1721676416e-05
 83         9.4822095252e-05
 84         3.6569400020e-05
 85        -3.3738621033e-05
 86        -1.6875740179e-03
 87         2.4858051996e-03
 88        -1.4458008312e-03
 89        -1.4619770711e-03
 90        -1.5840441252e-04
 91        -5.0063742438e-04
 92        -4.8358525618e-04
 93         6.0633248889e-05
 94         3.1763116597e-04
 95        -2.3651512630e-05
 96        -3.6322505328e-05
 97         6.3171849088e-04
 98         2.3396030522e-04
 99         1.0787370782e-04
100        -2.1972200585e-05
 Sym= A
 Ene=        -1.0222690492e+01
 Spin= Alpha
 Occup=         2.0000000000e+00
  1         3.1998870725e-03
  2        -4.3298981259e-04
  3         4.4124435172e-03
  4         7.2803777740e-04
  5         6.9434412723e-05
  6         6.0811354032e-05
  7        -2.3859485969e-03
  8        -9.7404760371e-04
  9        -4.3841168858e-04
 10         7.9421520267e-04
 11         9.9035803754e-05
 12         1.3986542198e-05
 13        -1.0125673285e-03
 14        -4.4459611262e-06
 15         1.0063113743e+00
 16         1.6119382450e-02
 17        -2.0043813532e-02
 18        -5.3418246564e-04
 19         2.1550535434e-04
 20         1.5057693271e-05
 21        -2.2381939842e-03
 22         3.7683027575e-03
 23        -1.8383890330e-04
 24        -1.0725141755e-03
 25         4.6660876147e-05
 26        -1.6975028186e-04
 27        -5.4174672805e-04
 28        -3.1282071719e-04
 29         1.3026703555e-02
 30        -1.2815643355e-03
 31         4.8195157088e-03
 32        -7.5636848704e-04
 33        -1.0946835389e-03
 34         1.2005582246e-04
 35         2.7321469307e-03
 36         2.4376975732e-03
 37        -2.5628795586e-04
 38         8.8160001606e-04
 39         1.0431713385e-04
 40         2.0417019500e-04
 41         5.3592146458e-04
 42        -9.6999146710e-04
 43        -2.6766145887e-04
 44        -5.2631384213e-04
 45         1.0141647817e-03
 46        -3.1400912009e-05
 47        -2.0971156163e-04
 48         2.5611851164e-05
 49        -2.8987473257e-04
 50         1.0275124426e-03
 51        -1.8859971485e-05
 52        -3.3372773067e-04
 53        -5.1650495922e-05
 54        -8.6395286577e-06
 55         1.7916121779e-04
 56        -5.1618285738e-05
 57        -3.4319904390e-05
 58        -7.3763878776e-05
 59        -1.7509559244e-04
 60         1.2224241290e-04
 61         5.4694691717e-06
 62         1.8189870676e-05
 63        -8.7998173114e-05
 64        -2.9487250046e-04
 65         1.1219786432e-05
 66         1.0704026617e-05
 67        -2.0304959149e-05
 68         4.2880762720e-06
 69        -2.6320469679e-06
 70         1.9239197119e-05
 71        -4.3429925920e-04
 72         2.4743286994e-04
 73        -5.2368989786e-05
 74         2.5229051967e-05
 75         7.6002583363e-05
 76        -3.2563651642e-04
 77         2.4930717619e-04
 78         1.0241007194e-04
 79         5.8908580730e-05
 80         6.7047037361e-05
 81        -4.7535284852e-04
 82         1.1921308642e-03
 83        -1.5872210813e-04
 84         9.2688548971e-06
 85         2.3165163893e-05
 86        -4.7456402003e-05
 87         3.8584810975e-04
 88         5.0033056119e-05
 89        -6.1659269759e-05
 90        -1.0593983240e-05
 91         1.3029165675e-04
 92         9.4587043331e-04
 93         1.3945830155e-04
 94        -2.4270824537e-04
 95         3.5286862422e-06
 96        -2.3911680373e-03
 97         1.1453951259e-03
 98        -1.2210737946e-03
 99         1.7914067107e-03
100        -1.0161049386e-04
 Sym= A
 Ene=        -1.0197118780e+01
 Spin= Alpha
 Occup=         2.0000000000e+00
  1         1.3659269617e-03
  2         4.2962757208e-04
  3        -4.8550150818e-05
  4        -9.8838640550e-05
  5        -1.2253137596e-04
  6         9.1418512913e-05
  7         7.5336782571e-04
  8        -6.7402756311e-05
  9        -2.0305635579e-04
 10         3.0912067759e-04
 11         4.5467837235e-05
 12         1.4556485847e-05
 13        -5.9684035344e-05
 14         1.7255486984e-04
 15         1.4541281843e-02
 16         1.7858322951e-03
 17        -6.6269302152e-03
 18        -6.0284938052e-04
 19        -1.2118612164e-03
 20         1.1687464250e-04
 21         5.8434086753e-04
 22         4.0020480185e-03
 23        -1.7450702783e-04
 24        -9.2737516801e-04
 25        -1.1616845861e-04
 26        -1.9326477945e-04
 27        -5.5376665229e-04
 28         9.7731470068e-04
 29        -1.0064943758e+00
 30        -1.6575830480e-02
 31         2.1437714906e-02
 32         3.2445176749e-04
 33        -2.7964127708e-04
 34         7.7914832748e-05
 35         5.5197855117e-03
 36         3.0931638857e-04
 37        -5.2432489759e-04
 38         1.0893604456e-03
 39         1.4694964138e-04
 40         9.0324996998e-05
 41        -4.1609378050e-04
 42        -4.2744642865e-04
 43         1.9569732209e-03
 44         7.9498657800e-04
 45        -5.7746388270e-03
 46        -2.6015998161e-04
 47         7.2963399776e-04
 48         2.5180436134e-05
 49        -5.2200966313e-04
 50        -3.5208222813e-03
 51         4.4457705988e-05
 52        -7.0207189184e-04
 53        -9.4871038322e-05
 54        -5.1219761096e-06
 55        -6.0548889374e-04
 56        -1.2034351531e-03
 57        -4.1454735890e-05
 58        -7.1778157982e-05
 59         8.4804376564e-04
 60        -2.3112551588e-05
 61         6.9429007187e-05
 62         3.1990334849e-05
 63         1.1238509853e-04
 64         6.2404399237e-04
 65        -4.9447966797e-05
 66         1.2992072018e-04
 67        -3.9214931298e-05
 68        -1.5689030999e-05
 69        -7.6409350913e-05
 70        -2.2093862155e-04
 71         1.4385974291e-04
 72        -3.5487143773e-04
 73        -2.5822139933e-05
 74        -6.4092367423e-05
 75         5.7613763520e-05
 76        -4.5874648990e-05
 77        -2.7861188913e-04
 78        -3.7434425145e-05
 79         5.9753729412e-05
 80         2.2527643926e-05
 81         1.0144636988e-05
 82        -1.4844546286e-04
 83        -4.9968566678e-05
 84        -7.0752666191e-05
 85         1.3654659180e-04
 86         2.5726290841e-04
 87        -1.0026051223e-03
 88        -8.4076611247e-05
 89         2.0315811714e-04
 90        -3.0449316873e-05
 91         2.4865843251e-03
 92        -7.8263983001e-04
 93         2.1613658600e-03
 94        -1.3887044511e-04
 95        -7.9817427552e-05
 96        -1.1051536779e-04
 97        -9.4875338554e-04
 98        -2.7319677427e-04
 99         3.8133546548e-05
100        -1.3056680827e-05
 Sym= A
 Ene=        -1.0190555116e+01
 Spin= Alpha
 Occup=         2.0000000000e+00
  1         1.0070099381e+00
  2         1.7478214524e-02
  3        -1.9357539155e-02
  4         4.4614845783e-04
  5         7.0306996238e-05
  6         1.2610665901e-04
  7         2.9117713069e-03
  8         2.7823848862e-04
  9        -5.3333972450e-04
 10         2.1125345580e-04
 11        -1.4825129107e-05
 12        -7.7399359084e-05
 13        -6.1288652401e-04
 14        -7.5213221404e-05
 15        -3.4195160349e-03
 16        -2.8117358608e-04
 17         1.7499018826e-03
 18        -4.9155519225e-04
 19         5.5529418635e-05
 20         1.0521862874e-05
 21         4.3345355843e-03
 22         2.3313015932e-03
 23        -2.2340212812e-04
 24         6.2335192166e-04
 25         1.1001319113e-04
 26        -5.1587406999e-07
 27        -1.3433127849e-03
 28        -4.9218974065e-04
 29         7.4794252873e-04
 30        -5.9654174864e-04
 31         3.5428523922e-03
 32        -2.1498416981e-04
 33         6.9266193166e-05
 34         1.0826118194e-06
 35         1.0390370153e-03
 36         2.6025784875e-03
 37        -2.6426354568e-04
 38        -3.5772306267e-04
 39         1.8549704688e-05
 40        -6.8877868177e-05
 41        -5.0035756907e-04
 42        -2.1137078915e-04
 43        -1.1660603847e-04
 44        -4.9074963969e-04
 45         5.3692279208e-04
 46        -5.2375466182e-05
 47        -2.7681291737e-04
 48        -2.3483006993e-05
 49        -1.3006566976e-04
 50         5.2024688678e-04
 51         8.5338916190e-05
 52        -2.8272573074e-05
 53        -2.2703512256e-05
 54        -1.3759278094e-05
 55         3.4553906145e-05
 56         4.0991250547e-05
 57        -8.9132083053e-05
 58        -1.7558406188e-04
 59         2.4190290225e-04
 60         1.6145611580e-05
 61        -1.2038549123e-04
 62        -1.3566428576e-05
 63        -1.6038841980e-04
 64         2.5417812872e-04
 65         4.2561319899e-05
 66        -5.0941887349e-05
 67         2.2620827874e-06
 68         2.9286849718e-06
 69         2.0839530952e-07
 70        -1.5656409078e-06
 71        -1.2322180626e-03
 72         1.9785617060e-03
 73         6.7262019513e-04
 74        -1.4788983904e-03
 75        -9.8612875977e-04
 76        -1.4115400199e-03
 77         1.8536138640e-03
 78         5.1307202162e-04
 79         1.8064896394e-03
 80        -7.6219802871e-04
 81        -1.0533618760e-03
 82         2.3502885548e-03
 83         5.1438810642e-04
 84        -1.4283735026e-04
 85         1.8132159186e-03
 86         1.9961538268e-05
 87         3.9806947058e-04
 88         7.2245512040e-06
 89         6.6495449447e-05
 90        -1.1018251992e-05
 91         4.5961691477e-05
 92         4.2000889077e-04
 93         8.1531837997e-05
 94        -1.9892255451e-04
 95         1.7878446501e-05
 96        -4.2060391385e-04
 97         1.8557671502e-04
 98        -3.8320156717e-04
 99        -1.3638553376e-04
100         2.1507400324e-05
 Sym= A
 Ene=        -1.0396472242e+00
 Spin= Alpha
 Occup=         2.0000000000e+00
  1        -4.9501027110e-04
  2         7.1821897755e-03
  3         5.6064289056e-03
  4        -3.2102444724e-03
  5        -3.4682449737e-03
  6        -4.2489145896e-05
  7        -3.0073507657e-03
  8        -2.0250559443e-03
  9         8.7868929930e-04
 10        -6.7067214427e-04
 11        -1.7510171174e-04
 12        -1.8939308574e-04
 13         1.3514097054e-04
 14         8.9790663712e-04
 15         5.5806762055e-04
 16         1.6827631563e-02
 17        -1.2735816491e-02
 18         9.2102029193e-05
 19        -1.0685484178e-02
 20         8.3027903891e-04
 21        -2.1820070113e-03
 22         9.7741255184e-03
 23        -8.8359043259e-04
 24        -4.6781541209e-04
 25        -1.6103045840e-04
 26        -3.5762560093e-04
 27        -1.5776400930e-03
 28         7.5321442659e-04
 29        -3.6804615163e-03
 30         3.6487268689e-02
 31         3.2468339823e-02
 32         2.1081567576e-02
 33        -1.9999048624e-02
 34         3.3228051683e-05
 35         2.0100263231e-02
 36         1.4684384296e-03
 37        -1.0026839695e-03
 38        -3.8098587195e-03
 39        -7.2133511407e-05
 40        -3.5482640755e-04
 41        -6.2668688947e-04
 42        -9.0939568929e-03
 43        -1.4740369644e-02
 44         2.2480335203e-01
 45         9.4111171517e-02
 46         1.8457897987e-01
 47        -2.5094360926e-02
 48         8.9304856665e-03
 49         1.2388325534e-02
 50        -2.6925954177e-03
 51         1.0660698311e-03
 52        -1.3603037490e-02
 53         2.2600587207e-03
 54        -1.2732152808e-03
 55         3.1279598141e-02
 56        -1.3825495017e-02
 57        -9.2065190636e-03
 58         4.0198074262e-01
 59         3.5999616178e-01
 60        -1.5530512520e-01
 61         3.1408770465e-02
 62        -8.0154374995e-03
 63        -3.1648922887e-02
 64         7.2500913538e-03
 65        -2.1749258267e-03
 66        -5.3061620607e-03
 67         9.6318556693e-04
 68        -6.2626259734e-04
 69         1.2127680853e-02
 70        -5.0641392227e-03
 71         6.0098440493e-03
 72         3.3349482190e-03
 73        -6.6129575687e-04
 74        -4.6400188363e-04
 75         6.3634692219e-04
 76         1.0267226911e-03
 77        -2.1844168282e-04
 78         2.9357813803e-05
 79        -8.4922728603e-06
 80        -5.7915422929e-05
 81         2.2562608371e-03
 82         8.5631183488e-04
 83        -3.0000086909e-04
 84        -2.7750191648e-04
 85        -4.9802183233e-04
 86         4.0277196944e-02
 87        -3.4010840106e-03
 88         1.0094560312e-02
 89         6.1373099008e-03
 90         8.6894949242e-04
 91         7.1313323491e-03
 92         6.0680140502e-03
 93         9.5019832401e-04
 94        -1.9323687939e-03
 95        -5.4706598263e-05
 96         1.8403530824e-03
 97        -3.1993618053e-03
 98        -1.9402310689e-04
 99        -8.4492412514e-04
100         9.9938910744e-05
 Sym= A
 Ene=        -8.1028825975e-01
 Spin= Alpha
 Occup=         2.0000000000e+00
  1         1.1096899669e-02
  2        -1.8026295816e-01
  3        -7.4031410073e-02
  4         6.6191323212e-02
  5         1.3056883082e-02
  6        -4.4805841185e-03
  7         2.6919483317e-03
  8        -8.7083928392e-03
  9         1.4667624016e-03
 10         5.6857457667e-03
 11         6.9608033904e-04
 12        -3.1964637287e-05
 13        -9.9461228022e-03
 14        -3.3203322641e-03
 15         1.9949430360e-02
 16        -2.9042162956e-01
 17        -2.0247193816e-01
 18        -1.7921188978e-03
 19         6.8902657043e-02
 20        -5.6390059367e-03
 21        -3.2341356656e-02
 22         2.3373968631e-02
 23        -1.5987273480e-03
 24         1.0013713589e-02
 25         1.0751439753e-03
 26         1.3172890941e-03
 27        -2.4679116443e-03
 28        -1.0722462030e-02
 29         1.7248058002e-02
 30        -2.5484778494e-01
 31        -1.4006974009e-01
 32        -5.9090095104e-02
 33        -5.7442566899e-02
 34         9.1978893313e-03
 35        -2.4888606124e-03
 36        -2.2862623532e-02
 37         2.4187297068e-03
 38         6.9114531289e-03
 39         1.0549628627e-03
 40         1.4339468428e-03
 41         8.7740813304e-03
 42        -8.9213151514e-03
 43         2.5386215325e-03
 44        -6.4212537302e-02
 45        -5.1799260081e-02
 46         7.1015811679e-02
 47        -8.0826758807e-02
 48         3.5301416600e-03
 49         2.4598234954e-02
 50        -2.2778804506e-02
 51         2.4121707460e-04
 52         2.7059773826e-03
 53         5.8105273848e-04
 54         1.3792571416e-05
 55         1.3545947251e-02
 56         2.9794323742e-03
 57        -3.5233687399e-04
 58         7.6298856877e-02
 59         7.3034103330e-02
 60        -1.1923201653e-02
 61        -1.6515708567e-02
 62        -1.4111508734e-04
 63         1.3976662592e-03
 64        -7.0261998379e-03
 65         5.9172668595e-04
 66         1.7524522118e-04
 67         4.9585574314e-05
 68         1.1886833753e-04
 69         1.6713688839e-03
 70         1.6046954379e-03
 71        -6.7360077092e-02
 72        -2.9921502922e-03
 73         4.9656838659e-03
 74        -7.4406000221e-03
 75        -5.2253151776e-03
 76        -6.1377472539e-02
 77        -1.2411651031e-03
 78         4.4077547585e-03
 79         8.4927757920e-03
 80        -3.5756878501e-03
 81        -6.7540609211e-02
 82        -3.3946062880e-03
 83         4.4756611446e-03
 84         1.0486299713e-04
 85         9.0937292807e-03
 86        -1.8136885724e-02
 87         5.7072733871e-04
 88         8.3502116270e-05
 89        -3.4156282072e-03
 90        -3.1847995476e-05
 91        -8.3890483062e-02
 92        -2.3675517319e-03
 93        -1.4325670611e-02
 94        -1.6584455328e-03
 95         8.9017098980e-04
 96        -1.0035773004e-01
 97        -1.3250786645e-02
 98        -7.0137851011e-03
 99         1.4037330083e-02
100        -8.4894972534e-04
 Sym= A
 Ene=        -7.1731784733e-01
 Spin= Alpha
 Occup=         2.0000000000e+00
  1         1.4292821710e-02
  2        -2.8639004145e-01
  3        -1.1999686978e-01
  4         1.8817057648e-02
  5        -9.6073880285e-03
  6        -3.9477281714e-03
  7        -1.6980937054e-02
  8        -7.9658646857e-03
  9         9.3609410751e-05
 10         1.4897978627e-03
 11         5.5342345803e-05
 12        -1.7689447495e-04
 13        -2.9946196066e-03
 14         2.2883514865e-03
 15         5.4144891636e-03
 16        -5.0118448887e-02
 17        -8.6873502374e-02
 18        -1.3835790467e-01
 19        -9.2061646966e-02
 20         8.5442498069e-03
 21        -9.2414588554e-02
 22        -6.8359013276e-03
 23         2.5316137677e-03
 24         3.8959948767e-03
 25         9.9314102180e-05
 26        -7.3868884894e-04
 27        -1.7433548504e-02
 28         3.6937667985e-03
 29        -1.3950641680e-02
 30         2.2714406724e-01
 31         1.6728295697e-01
 32        -6.0645206241e-03
 33        -5.7361607835e-02
 34        -1.3723303735e-03
 35         3.6413940432e-02
 36        -3.9075777523e-02
 37        -7.9697379670e-04
 38        -4.6768431456e-03
 39         4.9504354791e-05
 40        -1.7537184367e-05
 41        -9.8798962611e-03
 42        -5.4907741517e-03
 43        -3.1535007366e-03
 44         1.5435610749e-01
 45         6.4214533980e-02
 46        -1.0848254932e-01
 47         7.6623476176e-02
 48        -2.9352006899e-03
 49        -3.7949456335e-02
 50         7.9557021686e-03
 51        -1.6129035347e-03