Generated by Psi4
        SP                           RHF                       CC-PVDZ
Number of atoms                            I               11
Charge                                     I                0
Multiplicity                               I                1
Number of electrons                        I               38
Number of alpha electrons                  I               19
Number of beta electrons                   I               19
Number of basis functions                  I              100
Number of independent functions            I              100
Atomic numbers                             I   N=          11
           6           6           6           6           8           1
           1           1           1           1           1
Nuclear charges                            R   N=          11
  6.00000000e+00  6.00000000e+00  6.00000000e+00  6.00000000e+00  8.00000000e+00
  1.00000000e+00  1.00000000e+00  1.00000000e+00  1.00000000e+00  1.00000000e+00
  1.00000000e+00
Current cartesian coordinates              R   N=          33
  2.02231706e+00  2.71144836e+00 -2.15725650e-01 -7.88426659e-01  2.38517190e+00
 -1.07987035e-01 -2.08753574e+00  1.89178822e-01  1.20439465e-02 -9.22569964e-01
 -2.34207752e+00  7.07452083e-02  1.33723661e+00 -2.76251248e+00  2.20859137e-01
  2.94663645e+00  1.18139103e+00 -1.27135382e+00  2.52720866e+00  4.56774489e+00
 -1.00860823e+00  2.81440665e+00  2.61868074e+00  1.71399530e+00 -2.30181940e+00
 -3.95036592e+00 -2.95503806e-02 -4.15621676e+00  2.44063291e-01  6.20935130e-02
 -1.90403967e+00  4.13117537e+00 -1.03135957e-01
Integer atomic weights                     I   N=          11
          12          12          12          12          16           1
           1           1           1           1           1
Real atomic weights                        R   N=          11
  1.20000000e+01  1.20000000e+01  1.20000000e+01  1.20000000e+01  1.59949146e+01
  1.00782503e+00  1.00782503e+00  1.00782503e+00  1.00782503e+00  1.00782503e+00
  1.00782503e+00
Number of primitive shells                 I              140
Number of contracted shells                I               48
Pure/Cartesian d shells                    I                0
Pure/Cartesian f shells                    I                0
Highest angular momentum                   I                2
Largest degree of contraction              I                8
Shell types                                I   N=          48
           0           0           0           1           1          -2
           0           0           0           1           1          -2
           0           0           0           1           1          -2
           0           0           0           1           1          -2
           0           0           0           1           1          -2
           0           0           1           0           0           1
           0           0           1           0           0           1
           0           0           1           0           0           1
Number of primitives per shell             I   N=          48
           8           8           1           3           1           1
           8           8           1           3           1           1
           8           8           1           3           1           1
           8           8           1           3           1           1
           8           8           1           3           1           1
           3           1           1           3           1           1
           3           1           1           3           1           1
           3           1           1           3           1           1
Shell to atom map                          I   N=          48
           1           1           1           1           1           1
           2           2           2           2           2           2
           3           3           3           3           3           3
           4           4           4           4           4           4
           5           5           5           5           5           5
           6           6           6           7           7           7
           8           8           8           9           9           9
          10          10          10          11          11          11
Primitive exponents                        R   N=         140
  6.66500000e+03  1.00000000e+03  2.28000000e+02  6.47100000e+01  2.10600000e+01
  7.49500000e+00  2.79700000e+00  5.21500000e-01  6.66500000e+03  1.00000000e+03
  2.28000000e+02  6.47100000e+01  2.10600000e+01  7.49500000e+00  2.79700000e+00
  5.21500000e-01  1.59600000e-01  9.43900000e+00  2.00200000e+00  5.45600000e-01
  1.51700000e-01  5.50000000e-01  6.66500000e+03  1.00000000e+03  2.28000000e+02
  6.47100000e+01  2.10600000e+01  7.49500000e+00  2.79700000e+00  5.21500000e-01
  6.66500000e+03  1.00000000e+03  2.28000000e+02  6.47100000e+01  2.10600000e+01
  7.49500000e+00  2.79700000e+00  5.21500000e-01  1.59600000e-01  9.43900000e+00
  2.00200000e+00  5.45600000e-01  1.51700000e-01  5.50000000e-01  6.66500000e+03
  1.00000000e+03  2.28000000e+02  6.47100000e+01  2.10600000e+01  7.49500000e+00
  2.79700000e+00  5.21500000e-01  6.66500000e+03  1.00000000e+03  2.28000000e+02
  6.47100000e+01  2.10600000e+01  7.49500000e+00  2.79700000e+00  5.21500000e-01
  1.59600000e-01  9.43900000e+00  2.00200000e+00  5.45600000e-01  1.51700000e-01
  5.50000000e-01  6.66500000e+03  1.00000000e+03  2.28000000e+02  6.47100000e+01
  2.10600000e+01  7.49500000e+00  2.79700000e+00  5.21500000e-01  6.66500000e+03
  1.00000000e+03  2.28000000e+02  6.47100000e+01  2.10600000e+01  7.49500000e+00
  2.79700000e+00  5.21500000e-01  1.59600000e-01  9.43900000e+00  2.00200000e+00
  5.45600000e-01  1.51700000e-01  5.50000000e-01  1.17200000e+04  1.75900000e+03
  4.00800000e+02  1.13700000e+02  3.70300000e+01  1.32700000e+01  5.02500000e+00
  1.01300000e+00  1.17200000e+04  1.75900000e+03  4.00800000e+02  1.13700000e+02
  3.70300000e+01  1.32700000e+01  5.02500000e+00  1.01300000e+00  3.02300000e-01
  1.77000000e+01  3.85400000e+00  1.04600000e+00  2.75300000e-01  1.18500000e+00
  1.30100000e+01  1.96200000e+00  4.44600000e-01  1.22000000e-01  7.27000000e-01
  1.30100000e+01  1.96200000e+00  4.44600000e-01  1.22000000e-01  7.27000000e-01
  1.30100000e+01  1.96200000e+00  4.44600000e-01  1.22000000e-01  7.27000000e-01
  1.30100000e+01  1.96200000e+00  4.44600000e-01  1.22000000e-01  7.27000000e-01
  1.30100000e+01  1.96200000e+00  4.44600000e-01  1.22000000e-01  7.27000000e-01
  1.30100000e+01  1.96200000e+00  4.44600000e-01  1.22000000e-01  7.27000000e-01
Contraction coefficients                   R   N=         140
  6.91583963e-04  5.32579615e-03  2.70607210e-02  1.01656846e-01  2.74574824e-01
  4.48294319e-01  2.84902611e-01  1.51948592e-02 -2.93269653e-04 -2.31803547e-03
 -1.14997860e-02 -4.68267270e-02 -1.28466169e-01 -3.01266272e-01 -2.55630702e-01
  1.09379336e+00  1.00000000e+00  5.69792516e-02  3.13207212e-01  7.60376742e-01
  1.00000000e+00  1.00000000e+00  6.91583963e-04  5.32579615e-03  2.70607210e-02
  1.01656846e-01  2.74574824e-01  4.48294319e-01  2.84902611e-01  1.51948592e-02
 -2.93269653e-04 -2.31803547e-03 -1.14997860e-02 -4.68267270e-02 -1.28466169e-01
 -3.01266272e-01 -2.55630702e-01  1.09379336e+00  1.00000000e+00  5.69792516e-02
  3.13207212e-01  7.60376742e-01  1.00000000e+00  1.00000000e+00  6.91583963e-04
  5.32579615e-03  2.70607210e-02  1.01656846e-01  2.74574824e-01  4.48294319e-01
  2.84902611e-01  1.51948592e-02 -2.93269653e-04 -2.31803547e-03 -1.14997860e-02
 -4.68267270e-02 -1.28466169e-01 -3.01266272e-01 -2.55630702e-01  1.09379336e+00
  1.00000000e+00  5.69792516e-02  3.13207212e-01  7.60376742e-01  1.00000000e+00
  1.00000000e+00  6.91583963e-04  5.32579615e-03  2.70607210e-02  1.01656846e-01
  2.74574824e-01  4.48294319e-01  2.84902611e-01  1.51948592e-02 -2.93269653e-04
 -2.31803547e-03 -1.14997860e-02 -4.68267270e-02 -1.28466169e-01 -3.01266272e-01
 -2.55630702e-01  1.09379336e+00  1.00000000e+00  5.69792516e-02  3.13207212e-01
  7.60376742e-01  1.00000000e+00  1.00000000e+00  7.09645947e-04  5.46727229e-03
  2.78231186e-02  1.04747740e-01  2.82920846e-01  4.48495239e-01  2.70816885e-01
  1.54502916e-02 -3.14443412e-04 -2.48213768e-03 -1.23163554e-02 -5.05389173e-02
 -1.39384903e-01 -3.25077495e-01 -2.29848308e-01  1.09537935e+00  1.00000000e+00
  6.26791663e-02  3.33536566e-01  7.41239642e-01  1.00000000e+00  1.00000000e+00
  3.34987264e-02  2.34800801e-01  8.13682958e-01  1.00000000e+00  1.00000000e+00
  3.34987264e-02  2.34800801e-01  8.13682958e-01  1.00000000e+00  1.00000000e+00
  3.34987264e-02  2.34800801e-01  8.13682958e-01  1.00000000e+00  1.00000000e+00
  3.34987264e-02  2.34800801e-01  8.13682958e-01  1.00000000e+00  1.00000000e+00
  3.34987264e-02  2.34800801e-01  8.13682958e-01  1.00000000e+00  1.00000000e+00
  3.34987264e-02  2.34800801e-01  8.13682958e-01  1.00000000e+00  1.00000000e+00
Coordinates of each shell                  R   N=         144
  2.02231706e+00  2.71144836e+00 -2.15725650e-01  2.02231706e+00  2.71144836e+00
 -2.15725650e-01  2.02231706e+00  2.71144836e+00 -2.15725650e-01  2.02231706e+00
  2.71144836e+00 -2.15725650e-01  2.02231706e+00  2.71144836e+00 -2.15725650e-01
  2.02231706e+00  2.71144836e+00 -2.15725650e-01 -7.88426659e-01  2.38517190e+00
 -1.07987035e-01 -7.88426659e-01  2.38517190e+00 -1.07987035e-01 -7.88426659e-01
  2.38517190e+00 -1.07987035e-01 -7.88426659e-01  2.38517190e+00 -1.07987035e-01
 -7.88426659e-01  2.38517190e+00 -1.07987035e-01 -7.88426659e-01  2.38517190e+00
 -1.07987035e-01 -2.08753574e+00  1.89178822e-01  1.20439465e-02 -2.08753574e+00
  1.89178822e-01  1.20439465e-02 -2.08753574e+00  1.89178822e-01  1.20439465e-02
 -2.08753574e+00  1.89178822e-01  1.20439465e-02 -2.08753574e+00  1.89178822e-01
  1.20439465e-02 -2.08753574e+00  1.89178822e-01  1.20439465e-02 -9.22569964e-01
 -2.34207752e+00  7.07452083e-02 -9.22569964e-01 -2.34207752e+00  7.07452083e-02
 -9.22569964e-01 -2.34207752e+00  7.07452083e-02 -9.22569964e-01 -2.34207752e+00
  7.07452083e-02 -9.22569964e-01 -2.34207752e+00  7.07452083e-02 -9.22569964e-01
 -2.34207752e+00  7.07452083e-02  1.33723661e+00 -2.76251248e+00  2.20859137e-01
  1.33723661e+00 -2.76251248e+00  2.20859137e-01  1.33723661e+00 -2.76251248e+00
  2.20859137e-01  1.33723661e+00 -2.76251248e+00  2.20859137e-01  1.33723661e+00
 -2.76251248e+00  2.20859137e-01  1.33723661e+00 -2.76251248e+00  2.20859137e-01
  2.94663645e+00  1.18139103e+00 -1.27135382e+00  2.94663645e+00  1.18139103e+00
 -1.27135382e+00  2.94663645e+00  1.18139103e+00 -1.27135382e+00  2.52720866e+00
  4.56774489e+00 -1.00860823e+00  2.52720866e+00  4.56774489e+00 -1.00860823e+00
  2.52720866e+00  4.56774489e+00 -1.00860823e+00  2.81440665e+00  2.61868074e+00
  1.71399530e+00  2.81440665e+00  2.61868074e+00  1.71399530e+00  2.81440665e+00
  2.61868074e+00  1.71399530e+00 -2.30181940e+00 -3.95036592e+00 -2.95503806e-02
 -2.30181940e+00 -3.95036592e+00 -2.95503806e-02 -2.30181940e+00 -3.95036592e+00
 -2.95503806e-02 -4.15621676e+00  2.44063291e-01  6.20935130e-02 -4.15621676e+00
  2.44063291e-01  6.20935130e-02 -4.15621676e+00  2.44063291e-01  6.20935130e-02
 -1.90403967e+00  4.13117537e+00 -1.03135957e-01 -1.90403967e+00  4.13117537e+00
 -1.03135957e-01 -1.90403967e+00  4.13117537e+00 -1.03135957e-01
Total Energy                               R     -2.312416097248590e+02
Alpha Orbital Energies                     R   N=         100
 -1.91347531e+01 -1.02728410e+01 -1.02227975e+01 -1.01974896e+01 -1.01924124e+01
 -1.03918563e+00 -8.08936765e-01 -7.18039958e-01 -6.29014246e-01 -5.32704144e-01
 -4.96104455e-01 -4.42033565e-01 -4.31474361e-01 -4.21191315e-01 -3.86361331e-01
 -3.79154109e-01 -3.74693194e-01 -2.73553955e-01 -2.49884465e-01 -6.56544630e-02
  5.59474506e-02  6.17008130e-02  8.81365099e-02  1.04370529e-01  1.29689544e-01
  1.45991442e-01  1.54797574e-01  2.16234438e-01  2.59958281e-01  3.23815527e-01
  3.40403054e-01  4.29701933e-01  4.38278039e-01  4.52563256e-01  4.77181509e-01
  4.84037132e-01  5.08092143e-01  5.26110862e-01  5.61547421e-01  6.04422378e-01
  6.13456220e-01  6.26406408e-01  6.35591871e-01  6.48671415e-01  6.62764871e-01
  6.85288219e-01  7.00825646e-01  7.65492253e-01  8.28018050e-01  8.55208089e-01
  9.11644214e-01  9.34766921e-01  9.78438061e-01  9.90400980e-01  1.02016078e+00
  1.03704564e+00  1.07789367e+00  1.15654854e+00  1.18138787e+00  1.19854182e+00
  1.29779900e+00  1.36421264e+00  1.38836799e+00  1.44535397e+00  1.47402232e+00
  1.49332160e+00  1.54717558e+00  1.56451389e+00  1.61836144e+00  1.62151834e+00
  1.64757251e+00  1.66447551e+00  1.67093443e+00  1.68897963e+00  1.72783516e+00
  1.75198095e+00  1.78842055e+00  1.80456255e+00  1.84693177e+00  1.91855848e+00
  1.95731145e+00  1.97705530e+00  2.01485765e+00  2.06518252e+00  2.11083603e+00
  2.22582533e+00  2.31025085e+00  2.33308373e+00  2.39642822e+00  2.41275733e+00
  2.42522657e+00  2.48957458e+00  2.57726327e+00  2.65086595e+00  2.69513128e+00
  2.78673916e+00  2.96439519e+00  3.06670870e+00  3.42110112e+00  3.48118646e+00
Alpha MO coefficients                      R   N=       10000
 -4.39111688e-05 -9.89671294e-05 -2.91586073e-05  6.50452798e-05  2.30607770e-05
  1.49762866e-05  1.61132788e-09  8.00729334e-05  1.86618604e-04  5.15080902e-05
  2.68929757e-05  5.93694963e-05  5.84400190e-05 -1.05163397e-04 -2.29374731e-04
 -4.07383365e-04  5.87566902e-03 -1.92137408e-05 -1.01390792e-05 -2.15987822e-05
 -1.10616474e-03 -2.59838994e-03  1.91764977e-04 -4.35525233e-05 -9.33967285e-06
  5.10601029e-07 -4.37429188e-05 -3.79408919e-05  2.24444910e-04  3.44848557e-04
 -4.60772508e-03  1.90580459e-05  2.92481084e-04 -1.71591470e-05 -4.81898949e-03
 -3.61567538e-03  4.73263267e-05  1.44946581e-04 -5.33951426e-06  5.71891638e-05
 -3.23147061e-04  5.13010227e-04  4.41480388e-04  5.75188571e-04  5.50194477e-03
 -1.12962466e-04 -1.70403813e-04 -7.19173213e-06  6.69934215e-03  6.61169867e-04
  3.62903499e-04 -4.14927099e-05 -5.48826774e-05  2.74940234e-05 -1.15143252e-03
  5.27704934e-04  1.00417276e+00  9.47614332e-03 -1.51719919e-02 -1.83085861e-03
  3.63042855e-04 -1.38125894e-04  3.50061987e-03 -8.67191110e-04  2.54840947e-04
 -2.13346536e-05  8.50726334e-06 -3.39332029e-08  6.68009898e-05  7.99812854e-06
 -8.17631193e-05 -2.73842268e-05  5.52598851e-05  4.04189680e-05 -5.87781801e-06
  1.05932097e-04  2.78788539e-04 -6.59579501e-05 -7.98530881e-05  2.76071504e-05
 -5.53661313e-05 -2.36564254e-04  5.60494103e-05  3.61750773e-05  4.31861087e-05
 -1.21715759e-04  9.72091342e-04 -7.62099085e-04  1.22079998e-04 -4.25291484e-05
 -2.69056646e-04 -1.36309787e-03  1.89154641e-04  2.61241119e-04  1.10420588e-05
 -1.73253725e-04  2.97931958e-04  5.79269265e-05  8.91291653e-05 -1.19683484e-05
 -3.30538589e-04 -4.25220004e-04  8.32394369e-04  2.96801915e-04  5.54882543e-05
 -1.02430762e-05 -5.77895694e-04  2.91770878e-04  1.13653728e-04  1.79394517e-05
 -1.25486314e-05  3.39225888e-05 -1.26314243e-04 -7.89983856e-05 -4.26725030e-04
 -6.30663336e-04  7.00776119e-03 -2.67781581e-04 -2.71873560e-05  1.21230495e-05
 -2.39141335e-03 -4.12536227e-03  2.32589420e-04 -4.43224730e-04 -7.46708214e-05
 -4.71822364e-05  3.37438793e-04  3.89307313e-04  1.63237874e-03 -2.35032347e-04
 -2.43425714e-03 -3.39376767e-04  7.48160045e-04 -1.26992976e-05 -2.81116637e-03
 -6.28744416e-03  2.25321457e-04  1.05759531e-03 -4.69557159e-05  6.44580517e-05
  1.17649360e-03  8.01135238e-04  1.00592526e+00  1.52493435e-02 -1.08207471e-02
  7.26822327e-04 -4.87178920e-04  5.40236170e-05  5.46716330e-03 -2.10843773e-03
  2.52739238e-04 -1.64166461e-03  2.65176174e-04  9.53301610e-06  8.21818890e-04
  3.03123081e-05  3.65525834e-04  9.12813683e-04 -5.96187396e-03  7.36477526e-04
 -2.22601288e-04  3.95394788e-05  3.38384862e-03 -2.39132187e-04  2.58730942e-04
  5.58046536e-04 -1.09954220e-04  1.63081797e-05 -7.04573377e-04  2.70795538e-04
 -7.48015918e-05  7.04914014e-05  7.82860915e-05  3.15797478e-05 -1.53207135e-05
 -4.21869441e-05  2.64491439e-04 -5.91299529e-05 -4.60934588e-05 -2.74874952e-06
 -4.89802839e-05 -6.17915669e-05  8.31271294e-05  2.05914702e-05 -2.39255771e-05
 -1.64076653e-03  2.49509623e-03 -1.46142451e-03 -1.44334855e-03 -9.55545287e-05
 -4.81680759e-04 -4.64968543e-04  6.78084287e-05  3.28027800e-04 -1.68297219e-05
 -3.27156225e-05  6.56420052e-04  2.40194051e-04  1.08126122e-04 -1.17411484e-05
  3.32268187e-03 -4.58208492e-04  4.36090387e-03  7.47041652e-04  9.53705266e-05
  5.78779614e-05 -2.31069653e-03 -1.10401321e-03 -4.92866817e-04  7.95289926e-04
  1.24920698e-04 -6.67728868e-06 -1.04092941e-03 -3.91537618e-06  1.00628409e+00
  1.60636929e-02 -1.97573940e-02 -5.48318629e-04  2.46141764e-04  3.76146276e-05
 -2.15868177e-03  3.55948764e-03  5.50687374e-05 -1.09188118e-03 -3.34365079e-06
 -3.79300156e-05 -5.18084777e-04 -2.27012765e-04  1.29168138e-02 -1.29485591e-03
  4.64155109e-03 -7.79232296e-04 -1.10080800e-03  7.73063709e-05  2.65961429e-03
  2.31016292e-03 -2.21730675e-04  8.90129087e-04  7.29085304e-05  1.14493467e-04
  5.75655589e-04 -9.77711800e-04 -2.60322993e-04 -5.09422058e-04  1.03093379e-03
 -4.11531868e-05 -2.06929515e-04  1.12982621e-05 -1.70675585e-04  1.03590498e-03
  1.88915074e-05 -3.42558290e-04 -7.75458913e-06 -9.25258709e-06  1.94234517e-04
 -1.01923345e-04 -3.31119611e-05 -7.29461301e-05 -2.50614739e-04  1.25140465e-04
 -2.71908521e-06  1.76029043e-05 -4.34344465e-05 -2.57397467e-04 -5.62126445e-07
  1.12500594e-05 -1.44092413e-05  4.19193541e-06 -1.21270265e-05  1.36548638e-05
 -4.31485725e-04  1.27798980e-04 -2.59973840e-05  3.62718372e-05  7.74396895e-05
 -3.52668784e-04  2.92977855e-04  7.34436963e-05  8.29668619e-05  6.45726165e-05
 -4.75805641e-04  1.20060453e-03 -1.28809144e-04  1.75574603e-05  1.77122581e-05
 -2.05508265e-05  4.16849731e-04  5.45494664e-05 -5.26328137e-05 -7.35884445e-06
  9.35375254e-05  9.19985388e-04  1.20349424e-04 -2.30689169e-04  1.52318529e-05
 -2.34182234e-03  1.21382422e-03 -1.20861370e-03  1.77730576e-03  1.24498297e-05
  1.64687715e-03  3.95171191e-04  9.17459099e-06 -8.37796888e-05 -1.12062566e-04
  7.95136977e-05  7.08412701e-04 -1.91595378e-04 -1.22921104e-04  3.14020391e-04
  7.59500432e-05 -2.35106239e-05 -8.56571038e-05  2.21976401e-04  1.44370954e-02
  1.79335530e-03 -6.80980018e-03 -6.05687118e-04 -1.20694077e-03  6.61748509e-05
  5.78753847e-04  4.19291856e-03 -1.36021804e-04 -9.30590541e-04 -4.57787761e-05
 -9.71066738e-05 -5.09855177e-04  1.03275104e-03 -1.00648151e+00 -1.65403530e-02
  2.15631551e-02  3.25638597e-04 -3.01996561e-04  3.23011104e-05  5.57969717e-03
  3.52344517e-04 -1.76888985e-04  1.08431280e-03  7.96329361e-05  6.78355931e-05
 -3.75670968e-04 -3.79462294e-04  1.95407493e-03  8.12895355e-04 -5.79584187e-03
 -2.54212517e-04  7.48777409e-04 -2.24382846e-07 -6.84015446e-04 -3.51000011e-03
  4.81572220e-05 -6.91048077e-04 -3.19431403e-05 -6.46765637e-05 -6.40881983e-04
 -1.18815897e-03 -4.49431602e-05 -7.78654775e-05  9.31874941e-04 -2.75996479e-05
  7.51613317e-05  2.21015018e-05  9.53429150e-05  5.97346519e-04 -4.73516269e-05
  1.32150686e-04 -3.31876648e-05 -1.65046739e-05 -7.30513027e-05 -2.17754387e-04
  1.65506103e-04 -3.90479005e-04 -2.57219503e-05 -4.08257895e-05  5.70921683e-05
 -4.96744035e-05 -2.05905464e-04 -3.52543350e-05  6.93837736e-05  1.38867999e-05
 -5.15458091e-05 -1.25890844e-04 -4.99832325e-05 -6.08519118e-05  1.39156017e-04
  2.46562200e-04 -1.00424541e-03 -7.37312253e-05  2.04817679e-04 -2.27766033e-05
  2.44372479e-03 -7.75223318e-04  2.13676266e-03 -1.71102464e-04 -4.44359740e-05
 -9.57379624e-05 -1.01559907e-03 -2.60248738e-04  2.64146421e-05  1.28544226e-05
  1.00698206e+00  1.74185073e-02 -1.94504693e-02  4.51994598e-04  1.30437905e-04
  1.45340932e-04  2.93994908e-03  1.94459130e-04 -5.53164366e-04  2.21790395e-04
  3.50964621e-05 -5.57251883e-05 -5.88578935e-04 -1.45919949e-04 -3.57101950e-03
 -3.04352636e-04  1.85470982e-03 -4.96222427e-04  5.84592528e-05  2.44494733e-05
  4.51096859e-03  2.33670282e-03 -1.64726763e-04  6.13193363e-04  1.26217269e-04
  2.23250696e-05 -1.33910354e-03 -5.75503968e-04  1.08225683e-03 -5.34187621e-04
  3.45634918e-03 -1.92281246e-04  9.00061957e-05  1.10084630e-05  9.09266547e-04
  2.65619834e-03 -1.65161903e-04 -3.44704465e-04  7.76106849e-06 -2.46358723e-05
 -5.61863648e-04 -2.05311077e-04 -1.03081373e-04 -4.60501684e-04  6.57394156e-04
 -3.29989285e-05 -2.73649210e-04 -8.65539019e-06 -1.11898518e-04  5.28678959e-04
  3.99770382e-05 -1.55199581e-05 -2.24313404e-05  3.68822418e-06  4.15854200e-05
  3.63424269e-05 -7.27138966e-05 -1.45116916e-04  1.63194097e-04  8.61799975e-06
 -1.15882621e-04 -1.01763148e-05 -1.08873553e-04  2.24725080e-04  4.09002375e-05
 -4.33998833e-05  1.53144128e-06  1.61598342e-06  1.45609626e-06 -7.14235229e-07
 -1.22875801e-03  1.91500572e-03  6.99231728e-04 -1.44463431e-03 -1.00282493e-03
 -1.34077051e-03  1.92320123e-03  4.36453979e-04  1.80355206e-03 -7.55554201e-04
 -1.10131679e-03  2.34576672e-03  5.57845303e-04 -9.66820963e-05  1.81737790e-03
  1.65559554e-05  3.87644986e-04  6.40966557e-06  6.93699459e-05 -7.57922319e-06
  5.48417432e-05  3.64196465e-04  9.64824080e-05 -2.05343855e-04  1.01378171e-05
 -4.34867093e-04  2.44146322e-04 -3.67843508e-04 -1.14502999e-04  2.01540565e-05
 -4.82976639e-04  6.35905788e-03  5.68707308e-03 -3.05342968e-03 -3.05287523e-03
 -2.97000142e-05 -3.04648914e-03 -2.58363693e-03  9.94762171e-04 -6.14524248e-04
 -1.99009441e-04 -2.23983072e-04  1.80293055e-04  9.19785803e-04  5.95698682e-04
  1.65350886e-02 -1.32229460e-02 -1.62633849e-04 -1.05500398e-02  5.64081944e-04
 -2.17649011e-03  1.00516303e-02 -5.83634625e-04 -4.50033972e-04 -1.16878051e-04
 -2.59632127e-04 -1.67736088e-03  7.32521326e-04 -3.62012684e-03  3.68004790e-02
  3.27905705e-02  2.08577923e-02 -2.06107373e-02  9.29133840e-04  2.01742943e-02
  1.41727856e-03 -1.50286789e-04 -3.79468307e-03  2.37922698e-04 -5.83674871e-04
 -1.07211225e-03 -9.04576584e-03 -1.46020329e-02  2.24977780e-01  9.44307600e-02
  1.84458625e-01 -2.57917823e-02  1.21923134e-02  1.19898811e-02 -3.11566381e-03
  1.08513936e-03 -1.34597019e-02  3.48748456e-03 -1.04267489e-03  3.10171060e-02
 -1.41071272e-02 -9.14049928e-03  4.02188491e-01  3.60076737e-01 -1.55118967e-01
  3.19532277e-02 -1.07173016e-02 -3.16053759e-02  7.23906284e-03 -2.59174635e-03
 -5.23118926e-03  1.39468889e-03 -5.03342922e-04  1.20958489e-02 -5.17129141e-03
  4.92387598e-03  2.91016183e-03 -6.39470627e-04 -4.87254687e-04  5.87257107e-04
  9.75826082e-04  5.55179378e-05  2.70403404e-05  1.31747435e-05 -4.08499630e-05
  1.82120934e-03  8.40555919e-04 -2.66360325e-04 -1.89899789e-04 -4.38884904e-04
  3.93390290e-02 -3.65531707e-03  1.01774738e-02  5.87234849e-03  6.69456597e-04
  7.18353626e-03  6.03433879e-03  9.51864136e-04 -1.95479353e-03 -1.50180700e-05
  1.79407299e-03 -3.28782005e-03 -2.28844500e-04 -8.33320062e-04  6.79483483e-05
  1.09944033e-02 -1.81535594e-01 -7.50701553e-02  6.55492828e-02  1.29765573e-02
 -4.87447294e-03  3.03254509e-03 -8.53007289e-03  1.06715646e-03  5.61909216e-03
  8.28260955e-04  3.07684459e-05 -9.79048060e-03 -3.60754772e-03  1.97749430e-02
 -2.91456801e-01 -2.01383289e-01 -7.68870189e-04  6.55587586e-02 -2.64984119e-03
 -3.25908167e-02  2.10243436e-02  8.28892488e-05  9.97523282e-03  8.37273636e-04
  8.58328652e-04 -2.72823303e-03 -1.13450500e-02  1.70274336e-02 -2.53984091e-01
 -1.41911740e-01 -5.80781162e-02 -5.73608111e-02  4.54152244e-03 -3.01843293e-03
 -2.40316298e-02  1.17533463e-03  6.93042039e-03  6.44059538e-04  8.78337781e-04
  8.73568309e-03 -9.15283012e-03  2.44712737e-03 -6.39331477e-02 -5.16042451e-02
  6.90818324e-02 -8.03679306e-02  5.28553004e-03  2.51187630e-02 -2.23872780e-02
  1.39644302e-03  2.63615680e-03  6.59433460e-04  3.18103586e-04  1.35584753e-02
  2.65817270e-03 -3.32752469e-04  7.51811891e-02  7.15594245e-02 -1.13773969e-02
 -1.62640461e-02 -2.21577574e-04  1.66644409e-03 -6.74831194e-03  5.70853336e-04
  1.83593389e-04  6.39449362e-05  1.78026924e-04  1.60692236e-03  1.59076111e-03
 -6.70337290e-02 -3.37071367e-03  5.11074069e-03 -7.24501451e-03 -5.29783355e-03
 -6.29997995e-02 -1.48885381e-03  4.07628360e-03  8.77166410e-03 -3.70695287e-03
 -6.79104789e-02 -3.63603637e-03  4.71935161e-03  2.79024574e-04  9.04564716e-03
 -1.80492306e-02  9.96007347e-04  2.35764104e-05 -3.38056938e-03  3.60412844e-05
 -8.43592513e-02 -2.50029210e-03 -1.43745261e-02 -1.42674437e-03  4.63856018e-04
 -1.02373233e-01 -1.29397272e-02 -7.13327689e-03  1.42872668e-02 -1.40224115e-05
  1.39993717e-02 -2.86920449e-01 -1.19357758e-01  1.91260486e-02 -1.07226646e-02
 -5.00966769e-03 -1.74788758e-02 -8.51828768e-03  4.99176984e-04  1.44993461e-03
  1.85380160e-04 -1.80156546e-04 -3.08678238e-03  2.20903436e-03  5.27358843e-03
 -4.80811255e-02 -8.43256080e-02 -1.38811224e-01 -9.49674817e-02  6.89556483e-03
 -9.38383299e-02 -9.10796556e-03  2.86887393e-03  3.84333204e-03  5.29992483e-04
 -3.86948099e-04 -1.71052990e-02  3.09340275e-03 -1.39645989e-02  2.28655179e-01
  1.66909476e-01 -5.70501909e-03 -5.46748541e-02  1.03942723e-03  3.64248497e-02
 -4.07751610e-02  1.57901811e-04 -4.83233082e-03  1.46804984e-04 -3.37742763e-04
 -1.00267469e-02 -4.90887084e-03 -3.05634040e-03  1.51763818e-01  6.14494178e-02
 -1.06956850e-01  7.92640136e-02 -5.45523758e-03 -3.74207870e-02  7.81412041e-03
 -1.79415778e-03 -1.65761403e-03 -5.57968810e-04 -1.24493352e-04 -1.02113718e-02
 -5.09980625e-03 -2.86508589e-04 -8.45160605e-02 -8.36101476e-02 -1.81463829e-02
  1.01624824e-02  3.49920620e-04 -2.04809937e-02  3.58046585e-03 -7.20657493e-04
 -9.64933011e-04  1.48783814e-04  5.67099482e-05  8.73517067e-04 -2.04288991e-03
 -1.21417415e-01 -1.67580719e-02  7.32552632e-03 -1.24528700e-02 -8.48951041e-03
 -1.34462042e-01 -1.60276909e-02  4.60852862e-03  1.59602668e-02 -7.21979099e-03
 -1.30597823e-01 -1.60639048e-02  6.50868190e-03 -1.38966072e-03  1.61276779e-02
  7.01375639e-02  2.45125039e-03  3.51610420e-03  8.58426497e-03  3.02524027e-04
  1.15186399e-01  2.33218346e-02  1.46107983e-02 -1.46460524e-03 -3.21111386e-04
 -2.96076453e-02 -1.64305765e-02 -4.17778284e-03  8.57047191e-04  2.42663323e-04
  5.33197472e-03 -1.75464077e-01 -9.63039342e-02 -7.45874528e-02 -6.85922798e-03
 -2.09863802e-03 -3.82636283e-02 -6.62993127e-03  6.60796247e-03 -4.92226052e-03
 -8.80500079e-04 -1.80724622e-04  7.30305846e-03  1.01040545e-03 -5.23995403e-03
  2.09312032e-01  9.83220184e-02 -1.38841103e-01 -1.51186398e-02  5.56628239e-03
 -4.14608454e-02 -9.88436166e-04 -1.84181905e-04  2.54118800e-03 -2.39072560e-04
 -2.69154731e-04 -4.98683124e-03  2.89972562e-03 -1.31641407e-03 -1.50750111e-03
  9.85323658e-03  1.46385081e-02  2.48836526e-01 -7.60685314e-03  8.05905721e-03
  7.64818361e-02 -1.44448265e-03  4.66874691e-04 -1.76539894e-04 -7.00199805e-04
  1.98068415e-03  1.12190920e-02  2.31845921e-03 -2.37253018e-01 -1.54504028e-01
  1.55848746e-01 -2.93107774e-02  8.98602995e-03  4.84502478e-02 -1.86729056e-02
  3.14492068e-03 -1.09111607e-03  8.98723196e-04 -2.43838330e-05  6.08203885e-03
  2.03197246e-03  9.45682608e-04  1.23239841e-01  1.43929221e-01  5.36936463e-02
 -9.59225166e-03  3.81263604e-03  4.04770761e-02 -6.06108048e-03  3.11226860e-03
  2.55392268e-03 -3.97746008e-04  1.27445312e-04 -2.39829333e-03  7.87411495e-04
 -1.01376377e-01 -8.48086299e-03  3.76694242e-03 -9.70192595e-03 -6.02892835e-03
 -1.01407085e-01 -1.58952743e-02  1.00835539e-03  1.03600192e-02 -4.95290913e-03
 -1.06110558e-01 -2.03378182e-02  3.33158125e-03 -6.98837329e-04  1.11432492e-02
 -1.59578537e-01 -2.81899243e-02 -8.36667569e-03 -1.42471677e-02 -6.47586037e-04
 -5.66832067e-03 -2.42006816e-04 -2.16621530e-04  5.04956920e-03 -1.62801732e-04
  1.45678358e-01  2.52142776e-02  6.59233508e-03 -1.47740046e-02  2.01583345e-04
  1.66801484e-03 -5.07754271e-02 -3.81403848e-02 -1.25157508e-01  8.34887664e-02
 -1.59596511e-04 -3.77599873e-02  3.50147649e-02 -1.94709289e-03 -5.53361933e-03
 -4.89129843e-04 -1.58710850e-03  9.93540225e-03 -5.69999510e-03 -2.06161453e-03
  1.42678177e-01  9.38704900e-02  1.52446301e-03  2.24092973e-01 -7.90586612e-03
  2.46104378e-02  7.18239537e-02 -3.35181806e-03  4.26302348e-03  5.08887626e-04
  5.21047310e-04 -6.24502588e-05 -7.08769026e-03  2.65972990e-03 -1.53436795e-01
 -1.02467783e-01 -1.78988379e-02  1.45419363e-03 -2.17749628e-03 -1.77261846e-02
  3.17650989e-02 -1.71978462e-03 -4.30993342e-03  8.77397086e-05 -3.22895597e-04
 -1.34371162e-02  1.70389736e-03  5.41633314e-04  1.57985137e-01  1.20770898e-01
 -6.59225767e-02 -2.36867058e-01 -3.67420039e-03 -4.95002179e-02 -5.39908551e-02
 -2.66563960e-03  5.31120407e-03 -1.00058843e-04  6.29900990e-05 -3.47425303e-06
  1.45072079e-03  1.89468084e-04 -8.66720402e-02 -1.19445687e-01 -1.39270945e-01
 -1.08236677e-01 -6.00602275e-03 -8.28998357e-02 -5.93476071e-02 -3.33873145e-03
 -3.54170504e-03  1.02286550e-03  7.20240566e-04  8.83090335e-03  6.73215523e-03
 -1.12900265e-01 -3.52885677e-02  1.98890347e-03 -5.20090177e-03 -6.32039746e-03
 -4.51674086e-04 -5.15674693e-03 -3.61969481e-03  2.41738644e-03 -2.35765661e-05
 -6.48207250e-02 -2.03399095e-02 -7.54133704e-04  2.30969657e-03  6.10140188e-03
  2.29295129e-01  6.00885268e-02  1.19792195e-02  1.27076176e-02  9.81190091e-04
 -8.24924225e-02 -2.92903033e-02 -8.60289148e-03 -5.19278714e-04  1.85025303e-04
  2.16572772e-01  6.35204634e-02  1.07739153e-02 -1.21350076e-02 -2.17154425e-04
  3.08145644e-03 -4.51559400e-02 -5.26134717e-02 -1.44855491e-01 -9.90850756e-02
  4.59281731e-03 -3.14124911e-02 -3.98272524e-02 -4.46612444e-03 -5.18962441e-03
 -1.30678175e-03  1.94214926e-03  7.57705774e-03  4.78110711e-03  8.90427767e-04
  8.94709168e-02  5.34737121e-02  1.41497821e-01 -1.10055111e-01 -1.97690654e-03
  9.15178707e-02 -2.50129011e-02 -1.34897431e-03  1.94821717e-03  8.13741574e-04
  2.87055401e-04 -9.67262651e-03 -1.04226483e-02  5.38542022e-03 -7.11701662e-02