[Molden Format]
[Atoms] (AU)
C    1    6           1.9853978723         2.6497723971        -0.1998854853
C    2    6          -0.8301313114         2.3943575809        -0.1340121081
C    3    6          -2.0990558540         0.1925142352         0.0931551575
C    4    6          -0.8849342572        -2.3151442831         0.0697049224
O    5    8           1.3819901791        -2.7247008657         0.1697863298
H    6    1           2.8648932486         1.0823673704        -1.2391740807
H    7    1           2.5899196725         4.4690370037        -0.9923267348
H    8    1           2.7317241162         2.5059514644         1.7411213632
H    9    1          -2.2287009305        -3.9349516231        -0.1127105294
H   10    1          -4.1662966911         0.2009053562         0.2062544347
H   11    1          -1.9504284218         4.1338712663        -0.2612823470
[GTO]
  1 0
 s    8  1.00
     6665.0000000000         0.0006920000
     1000.0000000000         0.0053290000
      228.0000000000         0.0270770000
       64.7100000000         0.1017180000
       21.0600000000         0.2747400000
        7.4950000000         0.4485640000
        2.7970000000         0.2850740000
        0.5215000000         0.0152040000
 s    8  1.00
     6665.0000000000        -0.0001460000
     1000.0000000000        -0.0011540000
      228.0000000000        -0.0057250000
       64.7100000000        -0.0233120000
       21.0600000000        -0.0639550000
        7.4950000000        -0.1499810000
        2.7970000000        -0.1272620000
        0.5215000000         0.5445290000
 s    1  1.00
        0.1596000000         1.0000000000
 p    3  1.00
        9.4390000000         0.0381090000
        2.0020000000         0.2094800000
        0.5456000000         0.5085570000
 p    1  1.00
        0.1517000000         1.0000000000
 d    1  1.00
        0.5500000000         1.0000000000

  2 0
 s    8  1.00
     6665.0000000000         0.0006920000
     1000.0000000000         0.0053290000
      228.0000000000         0.0270770000
       64.7100000000         0.1017180000
       21.0600000000         0.2747400000
        7.4950000000         0.4485640000
        2.7970000000         0.2850740000
        0.5215000000         0.0152040000
 s    8  1.00
     6665.0000000000        -0.0001460000
     1000.0000000000        -0.0011540000
      228.0000000000        -0.0057250000
       64.7100000000        -0.0233120000
       21.0600000000        -0.0639550000
        7.4950000000        -0.1499810000
        2.7970000000        -0.1272620000
        0.5215000000         0.5445290000
 s    1  1.00
        0.1596000000         1.0000000000
 p    3  1.00
        9.4390000000         0.0381090000
        2.0020000000         0.2094800000
        0.5456000000         0.5085570000
 p    1  1.00
        0.1517000000         1.0000000000
 d    1  1.00
        0.5500000000         1.0000000000

  3 0
 s    8  1.00
     6665.0000000000         0.0006920000
     1000.0000000000         0.0053290000
      228.0000000000         0.0270770000
       64.7100000000         0.1017180000
       21.0600000000         0.2747400000
        7.4950000000         0.4485640000
        2.7970000000         0.2850740000
        0.5215000000         0.0152040000
 s    8  1.00
     6665.0000000000        -0.0001460000
     1000.0000000000        -0.0011540000
      228.0000000000        -0.0057250000
       64.7100000000        -0.0233120000
       21.0600000000        -0.0639550000
        7.4950000000        -0.1499810000
        2.7970000000        -0.1272620000
        0.5215000000         0.5445290000
 s    1  1.00
        0.1596000000         1.0000000000
 p    3  1.00
        9.4390000000         0.0381090000
        2.0020000000         0.2094800000
        0.5456000000         0.5085570000
 p    1  1.00
        0.1517000000         1.0000000000
 d    1  1.00
        0.5500000000         1.0000000000

  4 0
 s    8  1.00
     6665.0000000000         0.0006920000
     1000.0000000000         0.0053290000
      228.0000000000         0.0270770000
       64.7100000000         0.1017180000
       21.0600000000         0.2747400000
        7.4950000000         0.4485640000
        2.7970000000         0.2850740000
        0.5215000000         0.0152040000
 s    8  1.00
     6665.0000000000        -0.0001460000
     1000.0000000000        -0.0011540000
      228.0000000000        -0.0057250000
       64.7100000000        -0.0233120000
       21.0600000000        -0.0639550000
        7.4950000000        -0.1499810000
        2.7970000000        -0.1272620000
        0.5215000000         0.5445290000
 s    1  1.00
        0.1596000000         1.0000000000
 p    3  1.00
        9.4390000000         0.0381090000
        2.0020000000         0.2094800000
        0.5456000000         0.5085570000
 p    1  1.00
        0.1517000000         1.0000000000
 d    1  1.00
        0.5500000000         1.0000000000

  5 0
 s    8  1.00
    11720.0000000000         0.0007100000
     1759.0000000000         0.0054700000
      400.8000000000         0.0278370000
      113.7000000000         0.1048000000
       37.0300000000         0.2830620000
       13.2700000000         0.4487190000
        5.0250000000         0.2709520000
        1.0130000000         0.0154580000
 s    8  1.00
    11720.0000000000        -0.0001600000
     1759.0000000000        -0.0012630000
      400.8000000000        -0.0062670000
      113.7000000000        -0.0257160000
       37.0300000000        -0.0709240000
       13.2700000000        -0.1654110000
        5.0250000000        -0.1169550000
        1.0130000000         0.5573680000
 s    1  1.00
        0.3023000000         1.0000000000
 p    3  1.00
       17.7000000000         0.0430180000
        3.8540000000         0.2289130000
        1.0460000000         0.5087280000
 p    1  1.00
        0.2753000000         1.0000000000
 d    1  1.00
        1.1850000000         1.0000000000

  6 0
 s    3  1.00
       13.0100000000         0.0196850000
        1.9620000000         0.1379770000
        0.4446000000         0.4781480000
 s    1  1.00
        0.1220000000         1.0000000000
 p    1  1.00
        0.7270000000         1.0000000000

  7 0
 s    3  1.00
       13.0100000000         0.0196850000
        1.9620000000         0.1379770000
        0.4446000000         0.4781480000
 s    1  1.00
        0.1220000000         1.0000000000
 p    1  1.00
        0.7270000000         1.0000000000

  8 0
 s    3  1.00
       13.0100000000         0.0196850000
        1.9620000000         0.1379770000
        0.4446000000         0.4781480000
 s    1  1.00
        0.1220000000         1.0000000000
 p    1  1.00
        0.7270000000         1.0000000000

  9 0
 s    3  1.00
       13.0100000000         0.0196850000
        1.9620000000         0.1379770000
        0.4446000000         0.4781480000
 s    1  1.00
        0.1220000000         1.0000000000
 p    1  1.00
        0.7270000000         1.0000000000

  10 0
 s    3  1.00
       13.0100000000         0.0196850000
        1.9620000000         0.1379770000
        0.4446000000         0.4781480000
 s    1  1.00
        0.1220000000         1.0000000000
 p    1  1.00
        0.7270000000         1.0000000000

  11 0
 s    3  1.00
       13.0100000000         0.0196850000
        1.9620000000         0.1379770000
        0.4446000000         0.4781480000
 s    1  1.00
        0.1220000000         1.0000000000
 p    1  1.00
        0.7270000000         1.0000000000

[5D7F]
[9G]

[MO]
 Sym= A
 Ene=        -1.9134754235e+01
 Spin= Alpha
 Occup=         2.0000000000e+00
  1        -6.1466094539e-05
  2        -1.3128099526e-04
  3         3.2656205934e-05
  4         6.3193614690e-05
  5         3.8433407083e-05
  6         1.4686884589e-05
  7        -1.9318828688e-05
  8        -7.6407369586e-05
  9         1.8021640861e-04
 10         6.2641255222e-05
 11         3.4559011411e-05
 12         4.6204359473e-05
 13         6.8011118886e-05
 14        -1.0118824528e-04
 15        -2.1528670931e-04
 16        -3.8311633990e-04
 17         5.5912743594e-03
 18        -2.0404845867e-05
 19        -1.6132470864e-05
 20        -4.2947804147e-05
 21        -1.0250475812e-03
 22        -2.3609418690e-03
 23         3.6673652790e-04
 24        -3.6428166061e-05
 25         1.3552957918e-05
 26        -1.1609635303e-05
 27        -5.1955060234e-05
 28        -4.8431256370e-05
 29         2.1682888339e-04
 30         3.3356339256e-04
 31        -4.2193324196e-03
 32         2.5225362353e-05
 33         2.8330159168e-04
 34        -1.5634823701e-05
 35        -4.6358297502e-03
 36        -3.5828552507e-03
 37         1.9731630037e-04
 38         1.4131548856e-04
 39         2.6271650796e-05
 40         7.5318968052e-05
 41        -3.6914733558e-04
 42         5.0377745547e-04
 43         4.4723171483e-04
 44         5.8583493855e-04
 45         5.4371087874e-03
 46        -1.0231922642e-04
 47        -1.7860786936e-04
 48        -2.0751174762e-05
 49         6.6329359666e-03
 50         6.0049120544e-04
 51         2.4514719498e-04
 52        -3.1479975122e-05
 53        -1.8976371062e-05
 54         6.3494535706e-05
 55        -1.1591809199e-03
 56         5.1701173556e-04
 57         1.0041689504e+00
 58         9.4692967895e-03
 59        -1.5124194872e-02
 60        -1.8337054213e-03
 61         3.5890223889e-04
 62        -9.8181161851e-05
 63         3.5079450176e-03
 64        -8.4628326765e-04
 65         1.7562519084e-04
 66        -1.8970074151e-05
 67         5.3615435325e-06
 68        -1.9586632772e-06
 69         6.6546239209e-05
 70         8.3182187415e-06
 71        -1.0558024176e-04
 72        -8.7721919827e-05
 73         4.6452354758e-05
 74         1.9884694907e-05
 75         8.0448670781e-06
 76         1.2002214540e-04
 77         3.4216922388e-04
 78        -7.0841282185e-05
 79        -7.5033267807e-05
 80         3.7463464828e-05
 81        -8.7068212684e-05
 82        -2.5038504095e-04
 83         6.3639262663e-05
 84         5.5680832003e-05
 85         5.2693446006e-05
 86        -1.6091229657e-04
 87         9.2013429843e-04
 88        -7.6636635256e-04
 89         1.0746787317e-04
 90        -2.2732585755e-05
 91        -2.7008549058e-04
 92        -1.3369361524e-03
 93         1.8937821773e-04
 94         2.5787854009e-04
 95         5.7212597230e-06
 96        -1.8353442641e-04
 97         2.4669977421e-04
 98         4.7366832542e-05
 99         8.5687860917e-05
100        -2.1051916606e-05
 Sym= A
 Ene=        -1.0272538385e+01
 Spin= Alpha
 Occup=         2.0000000000e+00
  1        -3.5909960794e-04
  2        -4.7120497127e-04
  3         8.7988759368e-04
  4         2.9363206884e-04
  5         6.4888780119e-05
  6        -3.0384341252e-06
  7        -6.1450689505e-04
  8         1.3879797901e-04
  9         5.9673000845e-05
 10        -3.5590356606e-06
 11        -4.5047263730e-05
 12         1.7650510571e-05
 13        -1.2461208962e-04
 14        -4.9696222659e-05
 15        -4.2759895785e-04
 16        -6.3077184527e-04
 17         6.7199113259e-03
 18        -2.7118326152e-04
 19        -2.5680083925e-05
 20         3.4709934216e-05
 21        -2.2558434958e-03
 22        -3.9317270957e-03
 23         4.4733647327e-04
 24        -4.2072227578e-04
 25        -1.4230992693e-04
 26        -7.6451441854e-05
 27         3.1634353634e-04
 28         3.7274993545e-04
 29         1.6398855006e-03
 30        -2.4471944887e-04
 31        -2.1687047868e-03
 32        -3.4824458731e-04
 33         7.5906941473e-04
 34         1.9378111326e-05
 35        -2.6790778975e-03
 36        -6.1142468053e-03
 37         3.4150427162e-04
 38         1.0539940998e-03
 39        -2.2176859553e-05
 40         1.7796789838e-05
 41         1.1425237643e-03
 42         8.5111758269e-04
 43         1.0059381131e+00
 44         1.5277912488e-02
 45        -1.0766336215e-02
 46         7.1979282316e-04
 47        -4.9847659995e-04
 48        -2.7048149753e-05
 49         5.4280490330e-03
 50        -2.0716791635e-03
 51         1.2070921590e-04
 52        -1.6433349182e-03
 53         2.4832577307e-04
 54         1.1340258466e-04
 55         8.0602268796e-04
 56         1.5251598699e-05
 57         3.6844164937e-04
 58         9.1368537784e-04
 59        -5.9295447750e-03
 60         7.3697952396e-04
 61        -2.1343417720e-04
 62         1.9766688609e-05
 63         3.3888820862e-03
 64        -2.1762614010e-04
 65         1.8165588892e-04
 66         5.6515125939e-04
 67        -6.9785954411e-05
 68        -2.7024160919e-06
 69        -7.1669200391e-04
 70         2.5886454048e-04
 71        -9.9513431026e-05
 72        -9.2864621290e-06
 73         5.8172200242e-05
 74         2.3357617165e-05
 75        -1.5301612176e-05
 76        -4.5964231603e-05
 77         3.3324264419e-04
 78        -5.7337971413e-05
 79        -3.4674531913e-05
 80         3.1558351030e-06
 81        -5.5568634449e-05
 82        -3.5002836131e-05
 83         9.6851305288e-05
 84         3.9899535448e-05
 85        -3.7491624089e-05
 86        -1.6864295147e-03
 87         2.4844862367e-03
 88        -1.4433173045e-03
 89        -1.4608749275e-03
 90        -1.7071947349e-04
 91        -5.0551546691e-04
 92        -4.8165799200e-04
 93         5.6305573951e-05
 94         3.1429638194e-04
 95        -2.4827207743e-05
 96        -3.4547961046e-05
 97         6.2568267225e-04
 98         2.3298547856e-04
 99         1.0644070502e-04
100        -2.3869893613e-05
 Sym= A
 Ene=        -1.0222854680e+01
 Spin= Alpha
 Occup=         2.0000000000e+00
  1         3.1562155781e-03
  2        -4.2926328205e-04
  3         4.4296048738e-03
  4         7.2667192322e-04
  5         6.3810048832e-05
  6         6.2422493658e-05
  7        -2.4122424632e-03
  8        -9.4327476734e-04
  9        -4.1949854182e-04
 10         7.9893512139e-04
 11         8.4084212678e-05
 12         1.5413659445e-05
 13        -1.0037906729e-03
 14        -1.1518978694e-05
 15         1.0063172894e+00
 16         1.6130052451e-02
 17        -2.0100809842e-02
 18        -5.3094440231e-04
 19         2.1551888890e-04
 20         1.1018378748e-05
 21        -2.2661749508e-03
 22         3.7986791826e-03
 23        -2.4868408535e-04
 24        -1.0670334417e-03
 25         5.6960196486e-05
 26        -1.9501919925e-04
 27        -5.4682827586e-04
 28        -3.3933850640e-04
 29         1.3042991206e-02
 30        -1.2690569615e-03
 31         4.8413693729e-03
 32        -7.4844644124e-04
 33        -1.0901586335e-03
 34         1.2828699625e-04
 35         2.7336062191e-03
 36         2.4713987027e-03
 37        -2.5806969590e-04
 38         8.7852178412e-04
 39         1.1081734649e-04
 40         2.2361012875e-04
 41         5.3193444264e-04
 42        -9.6796304712e-04
 43        -2.6801336387e-04
 44        -5.2863249306e-04
 45         1.0193094257e-03
 46        -2.9137311481e-05
 47        -2.0958957895e-04
 48         2.8744185696e-05
 49        -3.2387098772e-04
 50         1.0208759229e-03
 51        -2.9330342941e-05
 52        -3.3081039690e-04
 53        -6.0352218309e-05
 54        -8.9997475184e-06
 55         1.7697959906e-04
 56        -4.3123028165e-05
 57        -3.3951763229e-05
 58        -7.2803006400e-05
 59        -1.5897369951e-04
 60         1.2189960805e-04
 61         7.9414097760e-06
 62         1.7868714759e-05
 63        -9.6510264349e-05
 64        -3.0400726060e-04
 65         1.5077416480e-05
 66         1.1125963621e-05
 67        -2.1473760140e-05
 68         4.2246143321e-06
 69        -1.1990958825e-06
 70         2.0409827622e-05
 71        -4.3555930380e-04
 72         2.8458846441e-04
 73        -6.3180549910e-05
 74         1.7404527966e-05
 75         7.2334693503e-05
 76        -3.1924704981e-04
 77         2.4343260099e-04
 78         1.0872884031e-04
 79         5.2742707737e-05
 80         7.0029655235e-05
 81        -4.7940489250e-04
 82         1.1843910550e-03
 83        -1.5488676036e-04
 84         9.6112156486e-06
 85         1.9705757068e-05
 86        -5.4812826927e-05
 87         3.7346122741e-04
 88         4.9379920677e-05
 89        -6.3593290400e-05
 90        -1.1157564374e-05
 91         1.3372676861e-04
 92         9.4390947285e-04
 93         1.4083691314e-04
 94        -2.4516120269e-04
 95         1.5396806241e-06
 96        -2.4092681046e-03
 97         1.1337457698e-03
 98        -1.2262476624e-03
 99         1.7957270643e-03
100        -1.2342074245e-04
 Sym= A
 Ene=        -1.0197401817e+01
 Spin= Alpha
 Occup=         2.0000000000e+00
  1         1.2621854493e-03
  2         4.3926010225e-04
  3        -6.9831084368e-05
  4        -1.0041965884e-04
  5        -1.2595966171e-04
  6         9.4155678551e-05
  7         7.7188243291e-04
  8        -3.4648780010e-05
  9        -2.2322036695e-04
 10         3.0761712417e-04
 11         3.8097620932e-05
 12         2.4430417573e-05
 13        -5.6215133697e-05
 14         1.6162144001e-04
 15         1.4545320195e-02
 16         1.7761578698e-03
 17        -6.5563782408e-03
 18        -5.9807656845e-04
 19        -1.2092340297e-03
 20         1.2713771749e-04
 21         5.8538889307e-04
 22         3.9562760147e-03
 23        -1.7705063254e-04
 24        -9.2314992714e-04
 25        -1.2987049933e-04
 26        -2.1443402900e-04
 27        -5.6139049738e-04
 28         9.6685550857e-04
 29        -1.0064860797e+00
 30        -1.6558188645e-02
 31         2.1382204887e-02
 32         3.1767377961e-04
 33        -2.7261879659e-04
 34         9.0815184896e-05
 35         5.4843447419e-03
 36         3.0205080184e-04
 37        -5.9613749076e-04
 38         1.0848731228e-03
 39         1.5619960886e-04
 40         9.4805462398e-05
 41        -4.1233315086e-04
 42        -4.3164482727e-04
 43         1.9573628761e-03
 44         7.9363603687e-04
 45        -5.7648800952e-03
 46        -2.6128687196e-04
 47         7.2801863287e-04
 48         3.0106432506e-05
 49        -4.9339381035e-04
 50        -3.5103913471e-03
 51         4.5397927829e-05
 52        -7.0141923689e-04
 53        -1.0708211231e-04
 54         7.4645775216e-06
 55        -5.9757843710e-04
 56        -1.2070610508e-03
 57        -4.1150039430e-05
 58        -7.1263445241e-05
 59         8.3364502404e-04
 60        -2.2450083638e-05
 61         6.8112947782e-05
 62         3.3537105601e-05
 63         1.1426328623e-04
 64         6.2637926501e-04
 65        -4.9887453275e-05
 66         1.2907532532e-04
 67        -3.9799708334e-05
 68        -1.5165219553e-05
 69        -7.7299119925e-05
 70        -2.2098189974e-04
 71         1.3820081433e-04
 72        -3.4621902937e-04
 73        -2.5549252097e-05
 74        -6.9128934423e-05
 75         5.6479102854e-05
 76        -4.6666224751e-05
 77        -2.9847355054e-04
 78        -3.8405580109e-05
 79         5.8246340069e-05
 80         2.3727934762e-05
 81         2.1808781400e-05
 82        -1.5354458195e-04
 83        -4.8142890199e-05
 84        -7.4124383895e-05
 85         1.3549443643e-04
 86         2.6368341169e-04
 87        -9.9846418803e-04
 88        -8.1524659637e-05
 89         2.0202645214e-04
 90        -3.1318268033e-05
 91         2.4719575877e-03
 92        -7.8538908030e-04
 93         2.1583681938e-03
 94        -1.3030968406e-04
 95        -8.2951547117e-05
 96        -1.1033614236e-04
 97        -9.3484218915e-04
 98        -2.7521520920e-04
 99         3.8011379131e-05
100        -1.8229115746e-05
 Sym= A
 Ene=        -1.0190061236e+01
 Spin= Alpha
 Occup=         2.0000000000e+00
  1         1.0070154627e+00
  2         1.7491158703e-02
  3        -1.9313239263e-02
  4         4.4404379858e-04
  5         8.2200779698e-05
  6         1.5421461710e-04
  7         2.8858611560e-03
  8         3.0031861052e-04
  9        -4.9775926107e-04
 10         2.3274650458e-04
 11        -6.8872056314e-07
 12        -1.0500930957e-04
 13        -5.9923427915e-04
 14        -4.2040410816e-05
 15        -3.3685973036e-03
 16        -2.7420531058e-04
 17         1.6926261078e-03
 18        -4.9344713951e-04
 19         5.4658990722e-05
 20         6.9427906600e-06
 21         4.2658239182e-03
 22         2.3480532714e-03
 23        -2.2987256337e-04
 24         6.2557272128e-04
 25         1.0299076767e-04
 26        -2.0643755224e-06
 27        -1.3445259194e-03
 28        -4.7182899731e-04
 29         6.2788433441e-04
 30        -6.1686136083e-04
 31         3.5858365585e-03
 32        -2.2210684276e-04
 33         6.1543754700e-05
 34         2.0965895886e-07
 35         1.0920698969e-03
 36         2.5890375375e-03
 37        -2.8706654389e-04
 38        -3.6188875592e-04
 39         2.1520703317e-05
 40        -7.7216664870e-05
 41        -4.8169183795e-04
 42        -2.1216233221e-04
 43        -1.1882312366e-04
 44        -4.9420011147e-04
 45         4.9240288136e-04
 46        -5.6034486603e-05
 47        -2.7712837614e-04
 48        -2.6565039269e-05
 49        -1.3866094211e-04
 50         5.0845280240e-04
 51         9.4346143130e-05
 52        -3.0236043133e-05
 53        -2.3446656573e-05
 54        -1.7010541137e-05
 55         3.4884831564e-05
 56         4.1130118442e-05
 57        -9.2117102934e-05
 58        -1.8101950989e-04
 59         2.6037618010e-04
 60         1.8767305774e-05
 61        -1.1982323685e-04
 62        -1.4736334367e-05
 63        -1.7360748749e-04
 64         2.5612949722e-04
 65         4.4666010745e-05
 66        -5.1909151644e-05
 67         2.1257895520e-06
 68         3.4575135030e-06
 69         1.2855810446e-09
 70        -1.7237014375e-06
 71        -1.1678235723e-03
 72         1.9791644488e-03
 73         6.5285155614e-04
 74        -1.4647246629e-03
 75        -9.7279656061e-04
 76        -1.4330988391e-03
 77         1.8455861466e-03
 78         5.3051524992e-04
 79         1.8060167572e-03
 80        -7.7011104202e-04
 81        -1.1061264647e-03
 82         2.3662055695e-03
 83         5.1880713127e-04
 84        -1.5463642545e-04
 85         1.8341717367e-03
 86         2.1369586328e-05
 87         3.9688486473e-04
 88         8.0636395212e-06
 89         6.6176835610e-05
 90        -1.1795770936e-05
 91         4.2716652996e-05
 92         4.3955023106e-04
 93         7.6275517240e-05
 94        -1.9712337626e-04
 95         2.0221925404e-05
 96        -4.1751505418e-04
 97         1.6520935184e-04
 98        -3.8588043586e-04
 99        -1.4315217400e-04
100         2.0801412559e-05
 Sym= A
 Ene=        -1.0389539664e+00
 Spin= Alpha
 Occup=         2.0000000000e+00
  1        -4.9322491254e-04
  2         7.3689963891e-03
  3         5.5346928739e-03
  4        -3.2467183500e-03
  5        -3.5482440596e-03
  6        -5.1965703767e-05
  7        -2.9779171597e-03
  8        -1.8941073322e-03
  9         8.5099544995e-04
 10        -6.8136986124e-04
 11        -1.6092583934e-04
 12        -1.8058141620e-04
 13         1.2626096372e-04
 14         8.9291285245e-04
 15         5.4272983022e-04
 16         1.6876955545e-02
 17        -1.2508385130e-02
 18         1.5682179729e-04
 19        -1.0698170643e-02
 20         8.8788366608e-04
 21        -2.1667638221e-03
 22         9.6664100085e-03
 23        -9.4676795212e-04
 24        -4.7410564024e-04
 25        -1.6993404461e-04
 26        -3.7757552459e-04
 27        -1.5644824558e-03
 28         7.5085430657e-04
 29        -3.6825655078e-03
 30         3.6523693233e-02
 31         3.2362906175e-02
 32         2.1120888216e-02
 33        -1.9920104589e-02
 34        -1.5692965176e-04
 35         2.0011650179e-02
 36         1.5080815455e-03
 37        -1.1679825271e-03
 38        -3.7989180364e-03
 39        -1.3771854581e-04
 40        -3.0695886132e-04
 41        -5.4957376592e-04
 42        -9.0870777652e-03
 43        -1.4689279023e-02
 44         2.2455741545e-01
 45         9.4241127674e-02
 46         1.8415812243e-01
 47        -2.4871643948e-02
 48         8.1042040152e-03
 49         1.2441135867e-02
 50        -2.6461180420e-03
 51         1.0511684706e-03
 52        -1.3631785782e-02
 53         1.9666777252e-03
 54        -1.3108556235e-03
 55         3.1264060635e-02
 56        -1.3768421617e-02
 57        -9.1705416769e-03
 58         4.0209395611e-01
 59         3.6061383294e-01
 60        -1.5500223205e-01
 61         3.1275299797e-02
 62        -7.3463427415e-03
 63        -3.1743994184e-02
 64         7.2953889142e-03
 65        -2.0724846198e-03
 66        -5.2969208016e-03
 67         8.5546044645e-04
 68        -6.5070453803e-04
 69         1.2093083566e-02
 70        -5.0327246945e-03
 71         6.2564366420e-03
 72         3.4620776064e-03
 73        -6.6806178549e-04
 74        -4.5806979129e-04
 75         6.5074652567e-04
 76         1.0496654989e-03
 77        -2.8008865792e-04
 78         2.8471866480e-05
 79        -1.5909900456e-05
 80        -6.1402053789e-05
 81         2.3657706644e-03
 82         8.6058029486e-04
 83        -3.0665376766e-04
 84        -2.9346157272e-04
 85        -5.1066902983e-04
 86         4.0295131571e-02
 87        -3.3652669504e-03
 88         1.0090885761e-02
 89         6.1244559569e-03
 90         9.0302717572e-04
 91         7.1350510089e-03
 92         6.0470561698e-03
 93         9.5936843238e-04
 94        -1.9233699114e-03
 95        -6.1296187429e-05
 96         1.8554110627e-03
 97        -3.1750962576e-03
 98        -1.8852330749e-04
 99        -8.4573062382e-04
100         1.0694584870e-04
 Sym= A
 Ene=        -8.1049938012e-01
 Spin= Alpha
 Occup=         2.0000000000e+00
  1         1.1150045924e-02
  2        -1.8045774591e-01
  3        -7.3983574041e-02
  4         6.6452260884e-02
  5         1.2962014456e-02
  6        -4.3970802235e-03
  7         2.6195164706e-03
  8        -8.6269152551e-03
  9         1.6483745512e-03
 10         5.7226498958e-03
 11         6.2119462327e-04
 12        -6.1969630637e-05
 13        -9.9713480927e-03
 14        -3.2665122035e-03
 15         1.9965522339e-02
 16        -2.9027711132e-01
 17        -2.0276398764e-01
 18        -2.4641689267e-03
 19         6.9256215777e-02
 20        -6.4134172200e-03
 21        -3.2438897643e-02
 22         2.3716453900e-02
 23        -2.0625199509e-03
 24         1.0009719046e-02
 25         1.0716541903e-03
 26         1.4179262561e-03
 27        -2.4267391915e-03
 28        -1.0564330836e-02
 29         1.7194741104e-02
 30        -2.5465311102e-01
 31        -1.3974489990e-01
 32        -5.9084856944e-02
 33        -5.7438167085e-02
 34         1.0172809324e-02
 35        -2.3364913143e-03
 36        -2.2626471838e-02
 37         2.6892989047e-03
 38         6.9133189545e-03
 39         1.1426548029e-03
 40         1.5533889306e-03
 41         8.8056429239e-03
 42        -8.8604139480e-03
 43         2.5440209442e-03
 44        -6.4273671965e-02
 45        -5.1759902212e-02
 46         7.1214883030e-02
 47        -8.0704686327e-02
 48         3.1375892139e-03
 49         2.4406579503e-02
 50        -2.2811914995e-02
 51        -1.1980579727e-05
 52         2.7041004882e-03
 53         5.5517068273e-04
 54        -4.4697789077e-05
 55         1.3514769967e-02
 56         3.0280233143e-03
 57        -3.5065590105e-04
 58         7.6540770418e-02
 59         7.3437122518e-02
 60        -1.1959138758e-02
 61        -1.6463936010e-02
 62        -1.1011368810e-04
 63         1.3489568566e-03
 64        -7.0351375119e-03
 65         5.9132830318e-04
 66         1.7927622230e-04
 67         4.2728712992e-05
 68         1.0362285933e-04
 69         1.6700303877e-03
 70         1.5995195409e-03
 71        -6.6964455778e-02
 72        -2.8295931636e-03
 73         4.8896268260e-03
 74        -7.4713199101e-03
 75        -5.2126391813e-03
 76        -6.1328938401e-02
 77        -1.2479567637e-03
 78         4.4905820684e-03
 79         8.4455073594e-03
 80        -3.5875361453e-03
 81        -6.8126480010e-02
 82        -3.4220514673e-03
 83         4.4978010110e-03
 84         5.9280416211e-05
 85         9.1402910006e-03
 86        -1.8266527079e-02
 87         4.6875668451e-04
 88         7.7797795958e-05
 89        -3.4335295216e-03
 90        -4.8214155557e-05
 91        -8.3438158484e-02
 92        -2.3185382464e-03
 93        -1.4255011658e-02
 94        -1.6992104043e-03
 95         9.5555327107e-04
 96        -1.0010283346e-01
 97        -1.3340853721e-02
 98        -7.0172407294e-03
 99         1.3980435449e-02
100        -1.0095271986e-03
 Sym= A
 Ene=        -7.1719502091e-01
 Spin= Alpha
 Occup=         2.0000000000e+00
  1         1.4353012694e-02
  2        -2.8574781222e-01
  3        -1.1992266798e-01
  4         1.8680810689e-02
  5        -9.8195383476e-03
  6        -4.0802497377e-03
  7        -1.6716132812e-02
  8        -7.6416171073e-03
  9        -1.9873693770e-05
 10         1.4886654290e-03
 11        -5.4863388303e-06
 12        -1.5849206988e-04
 13        -2.9746821349e-03
 14         2.2840863379e-03
 15         5.4126692256e-03
 16        -5.0447962375e-02
 17        -8.6763894409e-02
 18        -1.3797040822e-01
 19        -9.1583989495e-02
 20         8.5680493561e-03
 21        -9.1834644049e-02
 22        -6.7929527290e-03
 23         2.2298034758e-03
 24         3.8920546761e-03
 25        -6.5873100889e-05
 26        -8.1225406791e-04
 27        -1.7493686778e-02
 28         3.7644019717e-03
 29        -1.3885078172e-02
 30         2.2721065599e-01
 31         1.6747170775e-01
 32        -6.0126436174e-03
 33        -5.8201808327e-02
 34        -1.9644896316e-03
 35         3.6038839651e-02
 36        -3.8796936790e-02
 37        -9.1700584283e-04
 38        -4.6513805295e-03
 39         2.2348649078e-05
 40         4.7711842080e-05
 41        -9.8637876828e-03
 42        -5.6121938492e-03
 43        -3.1582646427e-03
 44         1.5544681114e-01
 45         6.5328848515e-02
 46        -1.0899639816e-01
 47         7.6337611572e-02
 48        -2.4392770853e-03
 49        -3.8081058515e-02
 50         8.0748193557e-03
 51        -1.5965049164e-03