[Molden Format]
[Atoms] (AU)
C    1    6           1.6508854860         2.9687463623         0.2843453924
C    2    6          -0.7938592308         2.3901977139        -0.1600117251
C    3    6          -2.0637621602        -0.0201553102         0.3106548965
C    4    6          -0.8770968856        -2.2702121078         0.0975916207
O    5    8           1.5811044386        -2.6306250964        -0.4070981026
H    6    1           2.3422234586        -0.9821583401        -0.6630286628
H    7    1           2.4547790237         4.7651627438        -0.3425334552
H    8    1           2.8956532249         1.7187201014         1.3762172991
H    9    1          -1.9095777048        -4.0768892865         0.2008880002
H   10    1          -4.1007046215        -0.0392410716         0.6271253654
H   11    1          -1.9638081581         3.8273185586        -1.0790672517
[GTO]
  1 0
 s    8  1.00
     6665.0000000000         0.0006920000
     1000.0000000000         0.0053290000
      228.0000000000         0.0270770000
       64.7100000000         0.1017180000
       21.0600000000         0.2747400000
        7.4950000000         0.4485640000
        2.7970000000         0.2850740000
        0.5215000000         0.0152040000
 s    8  1.00
     6665.0000000000        -0.0001460000
     1000.0000000000        -0.0011540000
      228.0000000000        -0.0057250000
       64.7100000000        -0.0233120000
       21.0600000000        -0.0639550000
        7.4950000000        -0.1499810000
        2.7970000000        -0.1272620000
        0.5215000000         0.5445290000
 s    1  1.00
        0.1596000000         1.0000000000
 p    3  1.00
        9.4390000000         0.0381090000
        2.0020000000         0.2094800000
        0.5456000000         0.5085570000
 p    1  1.00
        0.1517000000         1.0000000000
 d    1  1.00
        0.5500000000         1.0000000000

  2 0
 s    8  1.00
     6665.0000000000         0.0006920000
     1000.0000000000         0.0053290000
      228.0000000000         0.0270770000
       64.7100000000         0.1017180000
       21.0600000000         0.2747400000
        7.4950000000         0.4485640000
        2.7970000000         0.2850740000
        0.5215000000         0.0152040000
 s    8  1.00
     6665.0000000000        -0.0001460000
     1000.0000000000        -0.0011540000
      228.0000000000        -0.0057250000
       64.7100000000        -0.0233120000
       21.0600000000        -0.0639550000
        7.4950000000        -0.1499810000
        2.7970000000        -0.1272620000
        0.5215000000         0.5445290000
 s    1  1.00
        0.1596000000         1.0000000000
 p    3  1.00
        9.4390000000         0.0381090000
        2.0020000000         0.2094800000
        0.5456000000         0.5085570000
 p    1  1.00
        0.1517000000         1.0000000000
 d    1  1.00
        0.5500000000         1.0000000000

  3 0
 s    8  1.00
     6665.0000000000         0.0006920000
     1000.0000000000         0.0053290000
      228.0000000000         0.0270770000
       64.7100000000         0.1017180000
       21.0600000000         0.2747400000
        7.4950000000         0.4485640000
        2.7970000000         0.2850740000
        0.5215000000         0.0152040000
 s    8  1.00
     6665.0000000000        -0.0001460000
     1000.0000000000        -0.0011540000
      228.0000000000        -0.0057250000
       64.7100000000        -0.0233120000
       21.0600000000        -0.0639550000
        7.4950000000        -0.1499810000
        2.7970000000        -0.1272620000
        0.5215000000         0.5445290000
 s    1  1.00
        0.1596000000         1.0000000000
 p    3  1.00
        9.4390000000         0.0381090000
        2.0020000000         0.2094800000
        0.5456000000         0.5085570000
 p    1  1.00
        0.1517000000         1.0000000000
 d    1  1.00
        0.5500000000         1.0000000000

  4 0
 s    8  1.00
     6665.0000000000         0.0006920000
     1000.0000000000         0.0053290000
      228.0000000000         0.0270770000
       64.7100000000         0.1017180000
       21.0600000000         0.2747400000
        7.4950000000         0.4485640000
        2.7970000000         0.2850740000
        0.5215000000         0.0152040000
 s    8  1.00
     6665.0000000000        -0.0001460000
     1000.0000000000        -0.0011540000
      228.0000000000        -0.0057250000
       64.7100000000        -0.0233120000
       21.0600000000        -0.0639550000
        7.4950000000        -0.1499810000
        2.7970000000        -0.1272620000
        0.5215000000         0.5445290000
 s    1  1.00
        0.1596000000         1.0000000000
 p    3  1.00
        9.4390000000         0.0381090000
        2.0020000000         0.2094800000
        0.5456000000         0.5085570000
 p    1  1.00
        0.1517000000         1.0000000000
 d    1  1.00
        0.5500000000         1.0000000000

  5 0
 s    8  1.00
    11720.0000000000         0.0007100000
     1759.0000000000         0.0054700000
      400.8000000000         0.0278370000
      113.7000000000         0.1048000000
       37.0300000000         0.2830620000
       13.2700000000         0.4487190000
        5.0250000000         0.2709520000
        1.0130000000         0.0154580000
 s    8  1.00
    11720.0000000000        -0.0001600000
     1759.0000000000        -0.0012630000
      400.8000000000        -0.0062670000
      113.7000000000        -0.0257160000
       37.0300000000        -0.0709240000
       13.2700000000        -0.1654110000
        5.0250000000        -0.1169550000
        1.0130000000         0.5573680000
 s    1  1.00
        0.3023000000         1.0000000000
 p    3  1.00
       17.7000000000         0.0430180000
        3.8540000000         0.2289130000
        1.0460000000         0.5087280000
 p    1  1.00
        0.2753000000         1.0000000000
 d    1  1.00
        1.1850000000         1.0000000000

  6 0
 s    3  1.00
       13.0100000000         0.0196850000
        1.9620000000         0.1379770000
        0.4446000000         0.4781480000
 s    1  1.00
        0.1220000000         1.0000000000
 p    1  1.00
        0.7270000000         1.0000000000

  7 0
 s    3  1.00
       13.0100000000         0.0196850000
        1.9620000000         0.1379770000
        0.4446000000         0.4781480000
 s    1  1.00
        0.1220000000         1.0000000000
 p    1  1.00
        0.7270000000         1.0000000000

  8 0
 s    3  1.00
       13.0100000000         0.0196850000
        1.9620000000         0.1379770000
        0.4446000000         0.4781480000
 s    1  1.00
        0.1220000000         1.0000000000
 p    1  1.00
        0.7270000000         1.0000000000

  9 0
 s    3  1.00
       13.0100000000         0.0196850000
        1.9620000000         0.1379770000
        0.4446000000         0.4781480000
 s    1  1.00
        0.1220000000         1.0000000000
 p    1  1.00
        0.7270000000         1.0000000000

  10 0
 s    3  1.00
       13.0100000000         0.0196850000
        1.9620000000         0.1379770000
        0.4446000000         0.4781480000
 s    1  1.00
        0.1220000000         1.0000000000
 p    1  1.00
        0.7270000000         1.0000000000

  11 0
 s    3  1.00
       13.0100000000         0.0196850000
        1.9620000000         0.1379770000
        0.4446000000         0.4781480000
 s    1  1.00
        0.1220000000         1.0000000000
 p    1  1.00
        0.7270000000         1.0000000000

[5D7F]
[9G]

[MO]
 Sym= A
 Ene=        -1.9174643178e+01
 Spin= Alpha
 Occup=         2.0000000000e+00
  1        -9.3560981165e-05
  2        -1.6156456910e-04
  3         1.3122618201e-03
  4        -1.0160935975e-04
  5         7.6704393048e-05
  6         2.2357851165e-05
  7        -2.6278480193e-04
  8        -1.3764639572e-03
  9         1.7709988293e-04
 10        -7.6004670822e-05
 11         7.6828926104e-06
 12         4.1784823376e-05
 13        -6.5368121190e-05
 14         8.1389548286e-05
 15         2.1242425081e-04
 16         3.6779904984e-04
 17        -5.5841127097e-03
 18        -2.6238429280e-06
 19         1.4344030294e-06
 20         7.0334980638e-05
 21         2.1474022270e-04
 22         2.9467289858e-03
 23        -9.3717500546e-04
 24         6.5694704860e-05
 25        -1.2778238464e-04
 26         1.0718679233e-04
 27        -5.1890255269e-06
 28         2.8351910346e-05
 29        -1.9083954990e-04
 30        -2.7772709522e-04
 31         4.7842050234e-03
 32         5.5512795489e-05
 33        -2.5613021233e-04
 34         3.1689401450e-06
 35         4.6861682552e-03
 36         3.1026561482e-03
 37        -1.0406977220e-03
 38        -1.5565656625e-04
 39        -1.4682237121e-04
 40         5.7268983103e-05
 41         4.2408811084e-04
 42        -3.9276681460e-04
 43        -2.1396882429e-04
 44        -3.7599262001e-04
 45        -5.7917447458e-03
 46        -3.1547214494e-04
 47         2.0096256123e-04
 48         1.0503576059e-04
 49        -5.8279254258e-03
 50        -1.5585342722e-03
 51         1.1544142612e-03
 52         3.8145548699e-04
 53        -1.9034681161e-05
 54         4.3527242422e-05
 55         7.5596512221e-04
 56        -4.0763089181e-04
 57        -1.0041064999e+00
 58        -9.4143482192e-03
 59         1.4083764513e-02
 60         9.1401267707e-04
 61        -1.4557970226e-03
 62        -8.4543478353e-05
 63        -3.2392103632e-03
 64         1.3559904839e-03
 65         6.1912971522e-04
 66         3.6132741566e-05
 67         3.3960831678e-06
 68         8.2211699601e-05
 69         1.5095116298e-04
 70        -2.7065423224e-04
 71        -2.1734843092e-04
 72        -3.6912203543e-04
 73        -2.3837179701e-04
 74        -1.0291905960e-03
 75         4.2255495468e-05
 76         4.4403178049e-05
 77         2.9492983517e-04
 78         3.9435574426e-05
 79         6.7230392581e-05
 80         4.5904548695e-06
 81        -2.3404636738e-04
 82        -1.9781808625e-04
 83         2.8029739277e-06
 84        -3.0109627956e-05
 85        -1.9069664562e-05
 86         3.9871337388e-04
 87        -8.7619267567e-04
 88         6.3535374963e-04
 89         1.5445881714e-04
 90        -1.1929283101e-04
 91         1.6119625148e-04
 92         1.2837521028e-03
 93        -2.3193334825e-04
 94        -2.1375802384e-04
 95         6.3315736666e-05
 96         8.8067256719e-05
 97        -6.2556807872e-04
 98        -3.2907938735e-05
 99        -1.0443949794e-04
100         3.1992801243e-05
 Sym= A
 Ene=        -1.0251191258e+01
 Spin= Alpha
 Occup=         2.0000000000e+00
  1        -2.8456298414e-04
  2        -3.4878945394e-04
  3         1.1288925338e-03
  4         1.4257164155e-04
  5         8.2515993923e-05
  6         7.1307117460e-05
  7        -1.2526040517e-03
  8         4.7846443462e-04
  9        -6.3041335832e-04
 10        -7.8631000641e-05
 11        -1.5451362337e-05
 12        -2.8099089591e-05
 13         5.3493748214e-05
 14        -3.8586045377e-05
 15        -4.8968178323e-04
 16        -7.0821914938e-04
 17         4.8716673863e-03
 18        -1.1665488492e-04
 19         7.0176084857e-06
 20         1.5189638596e-06
 21        -2.3955990478e-03
 22        -4.1137835604e-03
 23         7.8404851769e-04
 24        -3.5028727318e-04
 25        -9.6330472723e-05
 26        -1.0610714236e-04
 27        -6.5314366010e-06
 28         1.7294353252e-04
 29         4.5450409826e-03
 30        -9.9638656805e-04
 31         5.3785614844e-05
 32        -5.8115314272e-04
 33         1.3452883326e-03
 34         1.0672627380e-04
 35        -2.0373018349e-03
 36        -6.3531698268e-03
 37         7.4439232507e-04
 38         1.0780124863e-03
 39         2.4420677132e-04
 40        -5.8480134559e-05
 41         5.4578341722e-04
 42         8.9277006848e-04
 43         1.0059053978e+00
 44         1.5290492425e-02
 45        -1.2213207154e-02
 46         6.7212959861e-04
 47        -4.0465837207e-04
 48        -2.3455978583e-04
 49         5.1723754889e-03
 50        -2.2496327998e-03
 51        -1.0146324563e-03
 52        -1.6409961256e-03
 53        -5.0587336280e-04
 54         1.1834142632e-04
 55        -2.1558882377e-04
 56        -5.4851310447e-05
 57         7.2079838065e-04
 58         1.3055126695e-03
 59        -5.1525635750e-03
 60         3.0071537586e-04
 61        -2.1404055108e-04
 62        -4.2712095531e-05
 63         3.3817920214e-03
 64        -2.3410937044e-04
 65        -7.2556167924e-04
 66         7.0855335352e-04
 67         4.3459275863e-04
 68        -2.3176675296e-05
 69        -7.8051788129e-04
 70         1.7177791467e-04
 71         5.4421173449e-04
 72        -5.0380114849e-04
 73        -6.2475843968e-04
 74        -3.9760253807e-05
 75         1.2001256319e-04
 76        -5.8694847577e-05
 77         1.6784059612e-04
 78        -2.6934111591e-05
 79        -5.1007473837e-05
 80         3.1129263062e-05
 81         1.4718778092e-06
 82         9.2760559930e-04
 83         1.2375771772e-05
 84         5.9946373486e-05
 85        -3.2423343621e-05
 86        -2.0492486554e-03
 87         2.2793831119e-03
 88        -1.4993094947e-03
 89        -1.5810769532e-03
 90         1.9128564605e-04
 91        -1.4848128029e-04
 92        -3.1020588195e-04
 93         3.0587566872e-04
 94         2.8773391181e-04
 95        -7.4268711522e-05
 96        -6.5665361219e-05
 97         5.4699929213e-04
 98         1.6790566469e-04
 99         1.3151876743e-04
100        -3.4339156825e-05
 Sym= A
 Ene=        -1.0205857143e+01
 Spin= Alpha
 Occup=         2.0000000000e+00
  1         2.2058825178e-02
  2        -1.1153459618e-03
  3         4.7661097270e-03
  4         1.3378297230e-03
  5         3.2396263300e-04
  6         1.4784574729e-04
  7        -2.1046641763e-03
  8        -1.7474118357e-03
  9         3.9876543353e-04
 10         7.8066523105e-04
 11        -5.0419009136e-04
 12        -2.2527007005e-05
 13        -1.0698835032e-03
 14        -3.9626636861e-04
 15         1.0061983066e+00
 16         1.6288253156e-02
 17        -1.9084041749e-02
 18        -1.3346591989e-04
 19         2.2098717594e-04
 20        -2.7758743674e-04
 21        -1.7624778874e-03
 22         3.1232345522e-03
 23        -1.6928403882e-03
 24        -7.5470796065e-04
 25         7.0057817044e-04
 26        -6.6930506615e-04
 27         2.4314391791e-04
 28        -5.2250906755e-05
 29         5.4960988742e-03
 30        -4.2515751465e-04
 31         9.7055035974e-04
 32        -4.5953749659e-04
 33        -6.2522572822e-04
 34         1.4569515467e-04
 35         6.7101565156e-04
 36         3.7186606299e-03
 37         3.0846090622e-04
 38         7.9748371301e-04
 39         5.5915110309e-05
 40         5.7994296312e-04
 41         1.0543954316e-03
 42        -9.6265785493e-04
 43        -3.8064778046e-04
 44        -7.3446786284e-04
 45         4.1749861550e-03
 46        -8.9227307016e-05
 47        -1.8262007819e-04
 48         1.2513779624e-04
 49        -5.9117904884e-04
 50         2.8079009762e-03
 51        -2.4594505833e-04
 52        -4.3765040757e-04
 53        -3.2353883092e-04
 54         4.1163730304e-05
 55         3.8528968233e-04
 56        -2.5918646068e-04
 57         8.2817749845e-05
 58         1.1900246978e-04
 59        -1.2367434016e-03
 60         1.6460433463e-04
 61        -4.5250180275e-05
 62        -2.2971516366e-05
 63         1.3971175493e-04
 64        -6.7666168685e-04
 65         7.3614807184e-05
 66         7.9282627936e-05
 67         2.0703545737e-05
 68         1.7282706887e-05
 69        -8.6519136914e-06
 70         1.8215790613e-05
 71         2.9251429138e-04
 72         5.9058600762e-04
 73        -2.8694334106e-04
 74        -7.4943320190e-05
 75        -3.0059183577e-05
 76        -4.8379032648e-05
 77         8.8937348175e-04
 78         1.4224914387e-04
 79        -1.1492539779e-04
 80         8.4995992217e-05
 81        -2.7158276420e-04
 82        -1.7283873849e-04
 83         3.8023783205e-05
 84         2.2847969865e-04
 85        -1.1753453222e-04
 86         7.0604313971e-05
 87         7.9335988217e-04
 88         1.6566547882e-04
 89        -6.8073615147e-05
 90         2.3028401582e-06
 91        -2.7280161279e-04
 92         3.6603329300e-04
 93        -5.5987795560e-05
 94        -3.9141469764e-04
 95        -5.8500370440e-05
 96        -2.3361434421e-03
 97         1.2250204316e-03
 98        -1.1542095241e-03
 99         1.5233761958e-03
100        -9.5601635976e-04
 Sym= A
 Ene=        -1.0190447487e+01
 Spin= Alpha
 Occup=         2.0000000000e+00
  1         1.0061991611e+00
  2         1.6386589243e-02
  3        -1.5464710184e-02
  4         2.6851983864e-04
  5        -6.7563243403e-05
  6         1.4065975440e-05
  7         2.2713342727e-03
  8         8.9913368804e-04
  9         7.1402372301e-04
 10        -9.6833878613e-04
 11         6.7570038663e-04
 12        -1.2499117471e-03
 13         8.4102374644e-05
 14         3.5502274198e-04
 15        -2.3280861401e-02
 16        -1.4563797004e-03
 17         1.2423416154e-03
 18        -1.3283475883e-03
 19        -3.1945252383e-04
 20        -2.6042942626e-04
 21         3.0003475784e-03
 22         2.3687791203e-03
 23        -2.7117574921e-05
 24         9.9046220422e-04
 25        -5.5703248231e-04
 26         1.9679353891e-04
 27        -1.0213967700e-03
 28        -7.6255430394e-04
 29        -1.0205391748e-03
 30        -5.1643844642e-04
 31         3.4302748142e-03
 32        -8.7217032569e-05
 33         4.9314753703e-05
 34        -6.6234008964e-05
 35         1.9086522495e-03
 36         2.3783840709e-03
 37        -5.0048133083e-04
 38        -3.7150029129e-04
 39         7.5466507863e-05
 40        -2.4412697045e-04
 41        -3.4027041638e-04
 42         2.6837453856e-05
 43         9.6017918813e-06
 44        -2.1153055375e-04
 45        -7.4944446327e-04
 46        -1.2657455362e-05
 47        -1.3254287683e-04
 48        -5.0005647640e-05
 49        -1.3055703722e-03
 50        -1.8223907291e-04
 51         3.0320308849e-04
 52         5.6112321560e-05
 53         1.0498578603e-04
 54        -8.9104717167e-05
 55        -6.2116588541e-05
 56         1.1093851266e-04
 57         1.3067750816e-05
 58         4.0325004524e-05
 59         4.3434228523e-04
 60         1.3018895435e-04
 61         7.4440349945e-05
 62        -3.8137784057e-05
 63        -6.9942249293e-04
 64        -1.5440960017e-04
 65         1.0159999793e-04
 66        -4.1002695080e-05
 67        -3.4271601915e-05
 68        -2.8176915368e-05
 69         7.7859701196e-05
 70         6.4343741804e-05
 71         1.9318417421e-04
 72         1.3744453036e-03
 73        -1.1634558537e-04
 74         4.8073147992e-04
 75         8.5831886812e-05
 76        -2.3205977136e-03
 77         1.8414010795e-03
 78         7.7105209847e-04
 79         1.9852376286e-03
 80        -7.6684426181e-04
 81        -2.0533753868e-03
 82         1.4870600385e-03
 83         1.1895921954e-03
 84        -1.4566845507e-03
 85         1.2549800184e-03
 86        -8.1024311470e-05
 87        -2.5374494398e-05
 88         3.7632282192e-05
 89         1.7106004897e-05
 90        -2.0360675863e-05
 91         1.1394732896e-04
 92         5.8082201685e-04
 93         1.3811272821e-05
 94        -1.2591581887e-04
 95         4.5658728249e-05
 96         8.0622183953e-05
 97         2.8567993708e-04
 98         1.0872934465e-05
 99        -3.1760428563e-04
100         1.0478367398e-04
 Sym= A
 Ene=        -1.0181758212e+01
 Spin= Alpha
 Occup=         2.0000000000e+00
  1         3.0704124695e-04
  2        -4.5297511421e-04
  3         2.7741289181e-03
  4         7.2345872611e-05
  5         1.0902837769e-04
  6        -8.2472605752e-05
  7        -2.0728853574e-03
  8        -4.0288769901e-04
  9        -1.1176657836e-05
 10        -2.5401557911e-04
 11         5.1031439998e-04
 12        -2.9806327146e-04
 13         2.6215444543e-04
 14        -4.7421000649e-04
 15        -5.8635125259e-03
 16        -6.7148795509e-04
 17         3.0873077698e-03
 18         2.1255132480e-04
 19         6.8978649912e-04
 20        -1.7329358966e-04
 21        -2.1478556573e-03
 22        -3.8266371135e-03
 23        -1.7845592028e-05
 24         9.0028644522e-04
 25         5.0231604466e-04
 26         3.7225041213e-04
 27         5.6185732414e-04
 28        -1.2821913457e-03
 29         1.0066646127e+00
 30         1.6782354189e-02
 31        -2.1930566460e-02
 32        -2.1957033405e-04
 33        -1.7009456930e-04
 34        -1.3642507870e-04
 35        -5.2131557660e-03
 36        -2.6119012459e-04
 37         1.6424379317e-03
 38        -1.0795133372e-03
 39        -3.8253542079e-04
 40         4.5762969871e-06
 41         3.6645450869e-04
 42        -2.0323133360e-04
 43        -5.7834741627e-03
 44        -1.5775112755e-03
 45         6.8425506523e-03
 46         6.4727974111e-04
 47        -1.2143344761e-03
 48        -1.0775721300e-04
 49         1.9457531141e-04
 50         4.1678927494e-03
 51        -2.8358792742e-04
 52         8.4137554165e-04
 53         1.7911395098e-04
 54        -2.3146906867e-04
 55         6.8516535569e-04
 56         1.0169420603e-03
 57         3.1153733670e-05
 58         4.2958766273e-05
 59        -9.5488982853e-04
 60         2.7615466119e-05
 61        -5.8820828337e-05
 62        -5.4369488889e-06
 63        -1.0707080279e-04
 64        -7.1219237720e-04
 65         6.4603288029e-05
 66        -5.9556970526e-05
 67        -3.9481477944e-05
 68        -1.1820493284e-05
 69         9.2748629068e-05
 70         8.0873447431e-05
 71         2.6950641443e-04
 72         4.8136695240e-05
 73        -1.3626115882e-04
 74        -1.6762603341e-04
 75         2.1450796572e-05
 76         1.1234860842e-04
 77         5.0752998151e-04
 78         1.3852967401e-04
 79        -1.4583692432e-04
 80         4.9578183337e-05
 81        -6.9171497831e-04
 82         5.0009811271e-04
 83         1.8101807916e-04
 84        -1.1480035647e-04
 85         1.2376601313e-04
 86         1.3158932998e-04
 87         1.1601564430e-03
 88         2.8464110118e-04
 89        -1.8372307956e-05
 90        -5.2923312008e-06
 91        -2.4308710547e-03
 92         8.1995808563e-04
 93        -2.1417051197e-03
 94        -7.1145883303e-05
 95         2.4851421969e-04
 96        -3.3488985780e-04
 97         6.9455270273e-04
 98         2.0960022036e-04
 99         2.7874358464e-04
100         7.5604750036e-05
 Sym= A
 Ene=        -1.0703438607e+00
 Spin= Alpha
 Occup=         2.0000000000e+00
  1         2.1185878513e-04
  2         9.0950043114e-03
  3        -5.1736700373e-03
  4        -1.9444556693e-03
  5        -5.5226142850e-03
  6        -6.6280367698e-04
  7         3.0730700491e-03
  8         5.8217012441e-03
  9        -2.2290935538e-03
 10        -2.3876112865e-04
 11        -6.4022605461e-04
 12         6.8345971087e-04
 13        -8.1433532106e-04
 14         9.8005997559e-04
 15        -1.3681546843e-04
 16         1.3485447415e-02
 17         2.7681965407e-03
 18         1.7441562063e-03
 19        -8.8472992178e-03
 20         9.6584075708e-04
 21         6.5304641942e-03
 22         3.0601667993e-03
 23         3.3575182961e-04
 24        -1.4267978356e-03
 25        -1.9073485807e-04
 26        -4.6669716264e-04
 27        -1.2130131797e-03
 28         3.8727926387e-04
 29        -1.3057305148e-03
 30         3.4996791525e-02
 31        -5.1836940255e-03
 32         2.1551723443e-02
 33        -1.7641077881e-02
 34        -4.4948402142e-03
 35         5.2796016864e-03
 36         1.5401085357e-02
 37        -2.1367753792e-03
 38        -2.2264106417e-03
 39        -1.2221424121e-03
 40         1.4927840997e-03
 41         2.4514161397e-03
 42        -8.0157483755e-03
 43        -1.2767166920e-02
 44         1.5570166208e-01
 45         8.5550537905e-02
 46         1.2868660240e-01
 47        -3.8668718109e-03
 48        -2.7304999490e-02
 49         4.3692536619e-03
 50         2.4648096083e-02
 51        -5.1741238451e-04
 52        -1.1307649471e-02
 53        -1.0840521091e-02
 54         5.3121409498e-04
 55         2.8889001332e-02
 56        -4.0404145798e-03
 57        -6.8276184243e-03
 58         4.2330616748e-01
 59         3.6843719225e-01
 60        -7.5356235898e-02
 61         8.9752217462e-02
 62         1.0956464460e-02
 63        -3.1200986685e-02
 64        -3.1951826278e-03
 65         6.6245589912e-03
 66        -6.3797954637e-03
 67        -3.3447822900e-03
 68        -2.4883480911e-04
 69         4.1205680355e-03
 70        -1.7153830229e-03
 71         1.7286869400e-01
 72         4.9509147410e-03
 73        -1.8958241465e-02
 74        -3.0176990075e-02
 75         6.3342418339e-03
 76         1.7046826341e-05
 77        -4.2594181846e-03
 78         4.8313127877e-05
 79         8.6015185137e-05
 80        -1.5385630925e-04
 81         8.0449415440e-03
 82         4.8089168962e-03
 83        -1.1965926969e-03
 84        -6.1070888594e-04
 85        -9.3494995586e-04
 86         3.3468735177e-02
 87         5.3399386873e-03
 88         8.2502611455e-03
 89         4.5530746902e-03
 90        -1.3097884061e-03
 91         4.9542380014e-03
 92         2.0866219464e-03
 93         4.0841985151e-04
 94        -2.3007066133e-03
 95         7.9055697640e-06
 96         1.6919494327e-03
 97        -1.0739254567e-03
 98        -2.9735342493e-04
 99        -4.4380769467e-04
100        -9.4958818592e-05
 Sym= A
 Ene=        -8.0216994459e-01
 Spin= Alpha
 Occup=         2.0000000000e+00
  1         1.4718901189e-02
  2        -1.9116744092e-01
  3        -1.0423125843e-01
  4         8.3270336554e-02
  5         2.8741638323e-02
  6         1.3017785928e-02
  7         8.5459136062e-03
  8        -2.4506873609e-03
  9         8.1114725327e-03
 10         5.0490859120e-03
 11        -2.1683387683e-03
 12        -3.3047275444e-03
 13        -7.7974679389e-03
 14        -5.8918559046e-03
 15         1.9457102314e-02
 16        -2.7781320643e-01
 17        -1.7735723410e-01
 18        -3.7398002309e-02
 19         4.0910468289e-02
 20        -1.8010578627e-02
 21        -1.9193107437e-02
 22         2.0904439811e-02
 23        -1.3566100516e-02
 24         1.0536318744e-02
 25        -6.0976216115e-04
 26         1.3967093753e-03
 27        -1.5723357237e-03
 28        -1.0843701276e-02
 29         1.8354634250e-02
 30        -2.4094162781e-01
 31        -1.4301966701e-01
 32        -5.6239481895e-02
 33        -1.5229462859e-02
 34         1.6657042231e-02
 35        -1.9530922640e-02
 36        -1.2116892992e-02
 37         9.7755362056e-03
 38         8.6210679634e-03
 39         1.9102309847e-03
 40         2.5719370456e-03
 41         9.2257606374e-03
 42        -5.2463418133e-03
 43         5.4048854167e-03
 44        -1.2385211765e-01
 45        -6.5951510515e-02
 46         6.3092271785e-02
 47        -8.6413011506e-02
 48        -1.0732148548e-02
 49         2.3778695034e-02
 50        -1.2132139749e-02
 51        -6.7935902250e-03
 52         3.3486587202e-03
 53        -1.6455724743e-03
 54        -6.8495458237e-04
 55         1.2254572928e-02
 56         4.2967776659e-03
 57         1.0736465640e-03
 58         8.9505237495e-02
 59         8.2347681372e-02
 60         2.6520420122e-02
 61         1.7563283698e-03
 62        -6.8704278595e-03
 63         1.6380283692e-02
 64        -8.2675543341e-03
 65        -3.2903663683e-03
 66         7.9408787062e-04
 67         4.1912206131e-04
 68        -6.8115037170e-04
 69        -1.0549064354e-03
 70         2.9272891194e-03
 71         3.3281072363e-02
 72         3.6641820755e-03
 73        -1.7802213971e-03
 74        -9.5026814124e-03
 75         8.4474071194e-05
 76        -5.9324561616e-02
 77        -5.5511749255e-04
 78         5.9173165758e-03
 79         8.6278914624e-03
 80        -2.3842400835e-03
 81        -6.8719993611e-02
 82        -4.2022780530e-03
 83         8.0105053907e-03
 84        -5.4486040293e-03
 85         5.9559365603e-03
 86        -3.2062495235e-02
 87         1.1843546208e-03
 88        -3.9818435359e-04
 89        -5.7202610301e-03
 90         9.5814073445e-05
 91        -8.0688986406e-02
 92        -8.5468573195e-03
 93        -1.3016998833e-02
 94        -1.0151201439e-03
 95         1.9701427406e-03
 96        -9.6052859904e-02
 97        -1.2415580987e-02
 98        -8.5014087410e-03
 99         1.0846595888e-02
100        -6.3772297157e-03
 Sym= A
 Ene=        -7.3171296469e-01
 Spin= Alpha
 Occup=         2.0000000000e+00
  1         1.6243515343e-02
  2        -2.2758598425e-01
  3        -1.2676753104e-01
  4         5.4099806364e-02
  5         9.6593621097e-03
  6         1.3204121558e-02
  7         2.0711100135e-03
  8         8.9220609305e-04
  9         2.9355275414e-03
 10         3.2884723210e-03
 11        -2.4604506810e-03
 12        -2.3432322271e-03
 13        -5.2873743838e-03
 14         1.9871359069e-04
 15         8.9070955522e-03
 16        -1.3345575716e-01
 17        -1.0197435550e-01
 18        -1.1039296103e-01
 19        -7.6288093924e-02
 20        -5.3591607528e-03
 21        -4.8338236681e-02
 22        -1.1968339378e-02
 23        -6.4423697142e-03
 24         2.4337403723e-03
 25        -3.9625185746e-03
 26        -2.4760301203e-03
 27        -1.4636382734e-02
 28         6.5294851929e-04
 29        -1.3438881972e-02
 30         1.9763821652e-01
 31         1.3025180627e-01
 32         1.1666242831e-02
 33        -1.1814830978e-01
 34        -5.9640306001e-03
 35         1.9702656513e-02
 36        -3.3057004082e-02
 37        -6.4260279767e-04
 38        -3.3317858804e-03
 39         8.6415210919e-05
 40         2.2481721617e-03
 41        -6.6273771082e-03
 42        -1.2256911345e-02
 43        -9.8258346261e-03
 44         2.5167666239e-01
 45         1.3976705182e-01
 46        -7.1687966979e-02
 47         5.7559869853e-02
 48         1.0709240641e-02
 49        -2.2498755155e-02
 50         8.1287120761e-03
 51         2.6150389135e-03