Generated by Psi4
        SP                           RHF                       CC-PVDZ
Number of atoms                            I               11
Charge                                     I                0
Multiplicity                               I                1
Number of electrons                        I               38
Number of alpha electrons                  I               19
Number of beta electrons                   I               19
Number of basis functions                  I              100
Number of independent functions            I              100
Atomic numbers                             I   N=          11
           6           6           6           6           8           1
           1           1           1           1           1
Nuclear charges                            R   N=          11
  6.00000000e+00  6.00000000e+00  6.00000000e+00  6.00000000e+00  8.00000000e+00
  1.00000000e+00  1.00000000e+00  1.00000000e+00  1.00000000e+00  1.00000000e+00
  1.00000000e+00
Current cartesian coordinates              R   N=          33
  1.66271909e+00  2.82431983e+00  1.97709527e-01 -8.37285528e-01  2.35762394e+00
 -9.67598054e-02 -2.10239095e+00 -3.42970196e-02  3.82028406e-01 -8.70547184e-01
 -2.25777352e+00  5.61062447e-02  1.62799099e+00 -2.48714573e+00 -3.80609935e-01
  2.28249801e+00 -7.47334226e-01 -6.21684073e-01  2.56192966e+00  4.47544091e+00
 -6.57869362e-01  2.87543307e+00  1.69048978e+00  1.44118303e+00 -1.84756065e+00
 -4.07749317e+00 -3.63169530e-02 -4.15423852e+00 -8.25851346e-02  5.43461586e-01
 -1.98549085e+00  3.80506401e+00 -1.04700362e+00
Integer atomic weights                     I   N=          11
          12          12          12          12          16           1
           1           1           1           1           1
Real atomic weights                        R   N=          11
  1.20000000e+01  1.20000000e+01  1.20000000e+01  1.20000000e+01  1.59949146e+01
  1.00782503e+00  1.00782503e+00  1.00782503e+00  1.00782503e+00  1.00782503e+00
  1.00782503e+00
Number of primitive shells                 I              140
Number of contracted shells                I               48
Pure/Cartesian d shells                    I                0
Pure/Cartesian f shells                    I                0
Highest angular momentum                   I                2
Largest degree of contraction              I                8
Shell types                                I   N=          48
           0           0           0           1           1          -2
           0           0           0           1           1          -2
           0           0           0           1           1          -2
           0           0           0           1           1          -2
           0           0           0           1           1          -2
           0           0           1           0           0           1
           0           0           1           0           0           1
           0           0           1           0           0           1
Number of primitives per shell             I   N=          48
           8           8           1           3           1           1
           8           8           1           3           1           1
           8           8           1           3           1           1
           8           8           1           3           1           1
           8           8           1           3           1           1
           3           1           1           3           1           1
           3           1           1           3           1           1
           3           1           1           3           1           1
Shell to atom map                          I   N=          48
           1           1           1           1           1           1
           2           2           2           2           2           2
           3           3           3           3           3           3
           4           4           4           4           4           4
           5           5           5           5           5           5
           6           6           6           7           7           7
           8           8           8           9           9           9
          10          10          10          11          11          11
Primitive exponents                        R   N=         140
  6.66500000e+03  1.00000000e+03  2.28000000e+02  6.47100000e+01  2.10600000e+01
  7.49500000e+00  2.79700000e+00  5.21500000e-01  6.66500000e+03  1.00000000e+03
  2.28000000e+02  6.47100000e+01  2.10600000e+01  7.49500000e+00  2.79700000e+00
  5.21500000e-01  1.59600000e-01  9.43900000e+00  2.00200000e+00  5.45600000e-01
  1.51700000e-01  5.50000000e-01  6.66500000e+03  1.00000000e+03  2.28000000e+02
  6.47100000e+01  2.10600000e+01  7.49500000e+00  2.79700000e+00  5.21500000e-01
  6.66500000e+03  1.00000000e+03  2.28000000e+02  6.47100000e+01  2.10600000e+01
  7.49500000e+00  2.79700000e+00  5.21500000e-01  1.59600000e-01  9.43900000e+00
  2.00200000e+00  5.45600000e-01  1.51700000e-01  5.50000000e-01  6.66500000e+03
  1.00000000e+03  2.28000000e+02  6.47100000e+01  2.10600000e+01  7.49500000e+00
  2.79700000e+00  5.21500000e-01  6.66500000e+03  1.00000000e+03  2.28000000e+02
  6.47100000e+01  2.10600000e+01  7.49500000e+00  2.79700000e+00  5.21500000e-01
  1.59600000e-01  9.43900000e+00  2.00200000e+00  5.45600000e-01  1.51700000e-01
  5.50000000e-01  6.66500000e+03  1.00000000e+03  2.28000000e+02  6.47100000e+01
  2.10600000e+01  7.49500000e+00  2.79700000e+00  5.21500000e-01  6.66500000e+03
  1.00000000e+03  2.28000000e+02  6.47100000e+01  2.10600000e+01  7.49500000e+00
  2.79700000e+00  5.21500000e-01  1.59600000e-01  9.43900000e+00  2.00200000e+00
  5.45600000e-01  1.51700000e-01  5.50000000e-01  1.17200000e+04  1.75900000e+03
  4.00800000e+02  1.13700000e+02  3.70300000e+01  1.32700000e+01  5.02500000e+00
  1.01300000e+00  1.17200000e+04  1.75900000e+03  4.00800000e+02  1.13700000e+02
  3.70300000e+01  1.32700000e+01  5.02500000e+00  1.01300000e+00  3.02300000e-01
  1.77000000e+01  3.85400000e+00  1.04600000e+00  2.75300000e-01  1.18500000e+00
  1.30100000e+01  1.96200000e+00  4.44600000e-01  1.22000000e-01  7.27000000e-01
  1.30100000e+01  1.96200000e+00  4.44600000e-01  1.22000000e-01  7.27000000e-01
  1.30100000e+01  1.96200000e+00  4.44600000e-01  1.22000000e-01  7.27000000e-01
  1.30100000e+01  1.96200000e+00  4.44600000e-01  1.22000000e-01  7.27000000e-01
  1.30100000e+01  1.96200000e+00  4.44600000e-01  1.22000000e-01  7.27000000e-01
  1.30100000e+01  1.96200000e+00  4.44600000e-01  1.22000000e-01  7.27000000e-01
Contraction coefficients                   R   N=         140
  6.91583963e-04  5.32579615e-03  2.70607210e-02  1.01656846e-01  2.74574824e-01
  4.48294319e-01  2.84902611e-01  1.51948592e-02 -2.93269653e-04 -2.31803547e-03
 -1.14997860e-02 -4.68267270e-02 -1.28466169e-01 -3.01266272e-01 -2.55630702e-01
  1.09379336e+00  1.00000000e+00  5.69792516e-02  3.13207212e-01  7.60376742e-01
  1.00000000e+00  1.00000000e+00  6.91583963e-04  5.32579615e-03  2.70607210e-02
  1.01656846e-01  2.74574824e-01  4.48294319e-01  2.84902611e-01  1.51948592e-02
 -2.93269653e-04 -2.31803547e-03 -1.14997860e-02 -4.68267270e-02 -1.28466169e-01
 -3.01266272e-01 -2.55630702e-01  1.09379336e+00  1.00000000e+00  5.69792516e-02
  3.13207212e-01  7.60376742e-01  1.00000000e+00  1.00000000e+00  6.91583963e-04
  5.32579615e-03  2.70607210e-02  1.01656846e-01  2.74574824e-01  4.48294319e-01
  2.84902611e-01  1.51948592e-02 -2.93269653e-04 -2.31803547e-03 -1.14997860e-02
 -4.68267270e-02 -1.28466169e-01 -3.01266272e-01 -2.55630702e-01  1.09379336e+00
  1.00000000e+00  5.69792516e-02  3.13207212e-01  7.60376742e-01  1.00000000e+00
  1.00000000e+00  6.91583963e-04  5.32579615e-03  2.70607210e-02  1.01656846e-01
  2.74574824e-01  4.48294319e-01  2.84902611e-01  1.51948592e-02 -2.93269653e-04
 -2.31803547e-03 -1.14997860e-02 -4.68267270e-02 -1.28466169e-01 -3.01266272e-01
 -2.55630702e-01  1.09379336e+00  1.00000000e+00  5.69792516e-02  3.13207212e-01
  7.60376742e-01  1.00000000e+00  1.00000000e+00  7.09645947e-04  5.46727229e-03
  2.78231186e-02  1.04747740e-01  2.82920846e-01  4.48495239e-01  2.70816885e-01
  1.54502916e-02 -3.14443412e-04 -2.48213768e-03 -1.23163554e-02 -5.05389173e-02
 -1.39384903e-01 -3.25077495e-01 -2.29848308e-01  1.09537935e+00  1.00000000e+00
  6.26791663e-02  3.33536566e-01  7.41239642e-01  1.00000000e+00  1.00000000e+00
  3.34987264e-02  2.34800801e-01  8.13682958e-01  1.00000000e+00  1.00000000e+00
  3.34987264e-02  2.34800801e-01  8.13682958e-01  1.00000000e+00  1.00000000e+00
  3.34987264e-02  2.34800801e-01  8.13682958e-01  1.00000000e+00  1.00000000e+00
  3.34987264e-02  2.34800801e-01  8.13682958e-01  1.00000000e+00  1.00000000e+00
  3.34987264e-02  2.34800801e-01  8.13682958e-01  1.00000000e+00  1.00000000e+00
  3.34987264e-02  2.34800801e-01  8.13682958e-01  1.00000000e+00  1.00000000e+00
Coordinates of each shell                  R   N=         144
  1.66271909e+00  2.82431983e+00  1.97709527e-01  1.66271909e+00  2.82431983e+00
  1.97709527e-01  1.66271909e+00  2.82431983e+00  1.97709527e-01  1.66271909e+00
  2.82431983e+00  1.97709527e-01  1.66271909e+00  2.82431983e+00  1.97709527e-01
  1.66271909e+00  2.82431983e+00  1.97709527e-01 -8.37285528e-01  2.35762394e+00
 -9.67598054e-02 -8.37285528e-01  2.35762394e+00 -9.67598054e-02 -8.37285528e-01
  2.35762394e+00 -9.67598054e-02 -8.37285528e-01  2.35762394e+00 -9.67598054e-02
 -8.37285528e-01  2.35762394e+00 -9.67598054e-02 -8.37285528e-01  2.35762394e+00
 -9.67598054e-02 -2.10239095e+00 -3.42970196e-02  3.82028406e-01 -2.10239095e+00
 -3.42970196e-02  3.82028406e-01 -2.10239095e+00 -3.42970196e-02  3.82028406e-01
 -2.10239095e+00 -3.42970196e-02  3.82028406e-01 -2.10239095e+00 -3.42970196e-02
  3.82028406e-01 -2.10239095e+00 -3.42970196e-02  3.82028406e-01 -8.70547184e-01
 -2.25777352e+00  5.61062447e-02 -8.70547184e-01 -2.25777352e+00  5.61062447e-02
 -8.70547184e-01 -2.25777352e+00  5.61062447e-02 -8.70547184e-01 -2.25777352e+00
  5.61062447e-02 -8.70547184e-01 -2.25777352e+00  5.61062447e-02 -8.70547184e-01
 -2.25777352e+00  5.61062447e-02  1.62799099e+00 -2.48714573e+00 -3.80609935e-01
  1.62799099e+00 -2.48714573e+00 -3.80609935e-01  1.62799099e+00 -2.48714573e+00
 -3.80609935e-01  1.62799099e+00 -2.48714573e+00 -3.80609935e-01  1.62799099e+00
 -2.48714573e+00 -3.80609935e-01  1.62799099e+00 -2.48714573e+00 -3.80609935e-01
  2.28249801e+00 -7.47334226e-01 -6.21684073e-01  2.28249801e+00 -7.47334226e-01
 -6.21684073e-01  2.28249801e+00 -7.47334226e-01 -6.21684073e-01  2.56192966e+00
  4.47544091e+00 -6.57869362e-01  2.56192966e+00  4.47544091e+00 -6.57869362e-01
  2.56192966e+00  4.47544091e+00 -6.57869362e-01  2.87543307e+00  1.69048978e+00
  1.44118303e+00  2.87543307e+00  1.69048978e+00  1.44118303e+00  2.87543307e+00
  1.69048978e+00  1.44118303e+00 -1.84756065e+00 -4.07749317e+00 -3.63169530e-02
 -1.84756065e+00 -4.07749317e+00 -3.63169530e-02 -1.84756065e+00 -4.07749317e+00
 -3.63169530e-02 -4.15423852e+00 -8.25851346e-02  5.43461586e-01 -4.15423852e+00
 -8.25851346e-02  5.43461586e-01 -4.15423852e+00 -8.25851346e-02  5.43461586e-01
 -1.98549085e+00  3.80506401e+00 -1.04700362e+00 -1.98549085e+00  3.80506401e+00
 -1.04700362e+00 -1.98549085e+00  3.80506401e+00 -1.04700362e+00
Total Energy                               R     -2.312212588504964e+02
Alpha Orbital Energies                     R   N=         100
 -1.91707935e+01 -1.02529345e+01 -1.02094600e+01 -1.01896645e+01 -1.01832631e+01
 -1.06232719e+00 -8.04974380e-01 -7.32140057e-01 -6.24516020e-01 -5.82000295e-01
 -5.01773416e-01 -4.76385435e-01 -4.46525877e-01 -4.13286039e-01 -3.94598288e-01
 -3.78383498e-01 -3.45300794e-01 -3.00024310e-01 -2.18183068e-01 -3.01162808e-02
  5.12493759e-02  7.11350781e-02  8.76077865e-02  1.03983478e-01  1.28900162e-01
  1.41363336e-01  1.68488964e-01  2.27448104e-01  2.95700087e-01  3.21185797e-01
  3.37065793e-01  4.29901061e-01  4.44408601e-01  4.73654860e-01  4.76866856e-01
  4.97054039e-01  5.10389468e-01  5.34991996e-01  5.45221179e-01  5.62472596e-01
  5.80907857e-01  6.14312593e-01  6.31645660e-01  6.52769870e-01  6.76758879e-01
  7.32270949e-01  7.48689967e-01  7.84242293e-01  8.59170860e-01  8.89392267e-01
  9.34296480e-01  9.46622036e-01  9.87793911e-01  1.00425179e+00  1.05354763e+00
  1.07447595e+00  1.08326686e+00  1.10682931e+00  1.15718690e+00  1.20000350e+00
  1.24506704e+00  1.32087994e+00  1.36690364e+00  1.42620783e+00  1.47593352e+00
  1.49437808e+00  1.51834667e+00  1.52377187e+00  1.56745682e+00  1.58591368e+00
  1.61602076e+00  1.64319724e+00  1.69421217e+00  1.71240817e+00  1.72916489e+00
  1.73778978e+00  1.77115146e+00  1.82019483e+00  1.88885912e+00  1.92803719e+00
  1.98271109e+00  1.99998154e+00  2.02639809e+00  2.08529485e+00  2.09257539e+00
  2.17200722e+00  2.22815405e+00  2.30732066e+00  2.39335710e+00  2.39730378e+00
  2.41889524e+00  2.56007237e+00  2.72198042e+00  2.76601041e+00  2.88652754e+00
  2.96016052e+00  3.01596940e+00  3.18664081e+00  3.44452133e+00  3.68705320e+00
Alpha MO coefficients                      R   N=       10000
 -1.37393067e-04 -2.36689714e-04  1.66735672e-03 -1.01709556e-04  4.79413142e-05
  2.43468371e-05 -2.28073145e-04 -1.26525353e-03  1.23824791e-04 -7.57028714e-05
 -2.52808630e-05  5.76097495e-05 -1.22101947e-04  6.32341846e-05  1.94737207e-04
  3.40447365e-04 -5.15841888e-03  3.32570460e-05  1.06623514e-05  8.91540622e-05
  2.44570617e-05  2.70394579e-03 -9.72419842e-04  6.61762114e-05 -1.09225734e-04
  1.03655339e-04 -1.54828327e-06  2.91093396e-05 -1.72819451e-04 -2.44561526e-04
  4.88174000e-03  7.76672572e-05 -2.61675680e-04 -3.27185754e-05  4.54744514e-03
  2.67748211e-03 -7.73275067e-04 -1.44051535e-04 -1.55366163e-04 -5.39522518e-06
  4.17027291e-04 -3.69850938e-04 -1.95512685e-04 -3.51842670e-04 -6.01225187e-03
 -3.33371781e-04  1.81464075e-04  1.15679184e-04 -5.44500590e-03 -1.97655661e-03
  7.63975974e-04  3.89821280e-04 -2.73063378e-05 -9.93479375e-05  7.49029730e-04
 -3.51506973e-04 -1.00408304e+00 -9.35320802e-03  1.41512911e-02  1.02556608e-03
 -1.31039655e-03 -5.50100162e-05 -3.18964674e-03  1.32117360e-03  4.94574534e-04
  1.95326897e-06 -7.58861815e-06  6.71340766e-05  1.55248189e-04 -2.14259860e-04
 -4.48299769e-04 -7.20039569e-04 -1.11023531e-04 -9.16733505e-04 -1.25951773e-05
 -2.19769146e-05  1.71524852e-04  3.89349231e-05  7.54931037e-05  1.06042649e-06
 -1.96018686e-04 -1.59793918e-04 -2.63920625e-06 -2.39358296e-05 -2.05182647e-05
  4.25178456e-04 -9.06483625e-04  6.28117700e-04  1.82027985e-04 -8.38423096e-05
  1.47399505e-04  1.22281547e-03 -2.24951317e-04 -1.95025671e-04  5.13142362e-05
  4.58253133e-05 -6.29908521e-04 -2.84441378e-05 -8.37640086e-05  3.78123835e-05
 -2.99660661e-04 -3.68847730e-04  1.08578662e-03  1.39620101e-04  9.43615404e-05
  5.00971217e-05 -1.11837917e-03  3.27270998e-04 -4.20418525e-04 -9.64724139e-05
 -2.43606354e-05 -3.61849368e-05  3.76674461e-05 -3.63180746e-05 -4.78552554e-04
 -6.96973826e-04  4.55944230e-03 -1.00237934e-04  1.15272514e-05 -3.74303599e-06
 -2.14643806e-03 -3.64752103e-03  7.63838211e-04 -3.28957061e-04 -1.12094384e-04
 -9.21430504e-05 -2.41236278e-05  1.21687740e-04  4.34508771e-03 -9.59435445e-04
  1.24970103e-05 -5.93359569e-04  1.29290083e-03  1.81394590e-04 -1.88366030e-03
 -5.71429490e-03  4.94621865e-04  1.06211584e-03  2.87423614e-04 -1.39744007e-04
  4.23811977e-04  9.52182637e-04  1.00589879e+00  1.52628443e-02 -1.19854830e-02
  5.89373439e-04 -3.97794284e-04 -2.42607739e-04  4.71918586e-03 -1.88697056e-03
 -9.01745051e-04 -1.62436926e-03 -3.64359692e-04  3.53448655e-04 -2.96493935e-04
  1.11247447e-04  7.06308863e-04  1.27924623e-03 -4.79168098e-03  2.82651701e-04
 -1.76737830e-04 -4.29983662e-05  3.17906593e-03 -1.45718187e-04 -5.19050984e-04
  7.19929613e-04  3.63556967e-04 -1.19379580e-05 -7.81845343e-04  9.55179766e-05
  5.54544609e-04 -2.95096434e-04 -5.97026740e-04 -1.13407452e-04  9.65118223e-05
 -5.01178537e-05  2.11757104e-04 -2.07485210e-05 -3.82324715e-05  2.32900367e-05
 -1.78164792e-05  6.72780683e-04  2.50639697e-05  5.39948129e-05 -3.58921652e-05
 -2.24170355e-03  2.32410734e-03 -1.48154424e-03 -1.68538778e-03 -1.30783729e-05
 -1.04288550e-04 -2.91914129e-04  3.18820336e-04  2.87898907e-04 -4.47617393e-05
 -7.86254077e-05  4.78559182e-04  1.51100575e-04  1.20304463e-04 -4.02050793e-05
  1.64021916e-02 -1.12186157e-03  4.99180742e-03  1.31427751e-03  2.32928065e-04
  5.56591708e-05 -2.45290180e-03 -1.51928297e-03  3.79278391e-04  8.69907883e-04
 -3.01030544e-04  2.55726164e-05 -1.11124182e-03 -2.97266497e-04  1.00631930e+00
  1.62955724e-02 -1.92808468e-02 -7.77309000e-05  1.37118973e-04 -3.75189486e-04
 -2.17940444e-03  3.09570147e-03 -1.35972815e-03 -7.12827328e-04  6.42685971e-04
 -7.46433784e-04  2.25757195e-04 -1.06067358e-04  5.46012081e-03 -4.38724134e-04
  1.11835209e-03 -4.51491855e-04 -6.60663953e-04  1.46738222e-04  6.94678211e-04
  3.27188340e-03  2.94792253e-04  8.13973698e-04  7.78124560e-05  5.17483384e-04
  9.66131662e-04 -9.55268922e-04 -3.94690173e-04 -7.55972942e-04  3.83900987e-03
 -5.44780976e-05 -2.03693683e-04  1.12938986e-04 -5.41283680e-04  2.65337984e-03
 -9.74131149e-05 -4.20723333e-04 -3.21158243e-04  8.98868605e-06  3.08953181e-04
 -1.42330145e-04  7.92420311e-05  1.13951726e-04 -1.16685072e-03  1.50619718e-04
 -4.22709526e-05 -1.27666719e-06  1.44972126e-04 -6.37978232e-04  3.61247720e-05
  7.22244714e-05  2.78722634e-06  1.99796380e-05  4.78695620e-06  2.29705145e-05
  2.71985061e-04  5.11705811e-04 -3.17808483e-04 -1.06016236e-04 -4.35893828e-05
 -3.56810982e-05  8.70277331e-04  1.49458653e-04 -1.25216664e-04  1.34080237e-04
 -2.74503542e-04  9.36621068e-05  5.43615756e-05  2.03606483e-04 -1.73675686e-04
  3.03330362e-05  7.45830180e-04  1.41122953e-04 -8.53722679e-05 -7.06663015e-06
 -1.89530782e-04  3.31082393e-04 -1.50650484e-05 -3.59097336e-04 -4.80628946e-05
 -2.30512028e-03  1.22109844e-03 -1.11178501e-03  1.50283869e-03 -1.02948692e-03
  1.00646500e+00  1.66841214e-02 -1.62554106e-02  2.85080307e-04 -1.22677946e-04
  3.82607601e-05  2.34360507e-03  1.65088995e-03  4.43898452e-04 -6.15007274e-04
  4.86002195e-04 -1.44092265e-03  4.36434578e-04  4.28103452e-04 -1.75913440e-02
 -1.39484413e-03  1.81613641e-03 -1.34569494e-03 -2.35067127e-04 -1.87947908e-04
  3.00973653e-03  1.81619301e-03 -3.37556683e-05  9.57872373e-04 -3.70529225e-04
  2.38757685e-04 -1.16371936e-03 -7.09493145e-04 -1.20821321e-03 -5.39355679e-04
  3.16572845e-03 -1.22506356e-04  2.11978337e-05 -5.54257060e-05  1.86024028e-03
  2.08988349e-03 -4.14430120e-04 -3.88994528e-04  7.08585112e-05 -2.03301716e-04
 -3.31513207e-04 -1.83427370e-05  6.96564257e-06 -2.28437221e-04 -1.08976158e-03
 -5.54960389e-05 -1.43584334e-04 -5.41075423e-05 -1.29170851e-03 -2.71022748e-04
  2.77543753e-04  4.89638443e-05  1.02527850e-04 -8.52595201e-05 -9.36779053e-05
  1.09416845e-04  9.28024865e-06  3.59770116e-05  4.09267733e-04  1.61147411e-04
  8.43886958e-05 -4.86935827e-05 -8.75200502e-04 -1.22304746e-04  1.29762522e-04
 -6.69163160e-05 -3.32696268e-05 -2.78556615e-05  4.90006445e-05  7.15064708e-05
  3.88056282e-04  1.91508048e-03 -1.02366154e-04  6.21521075e-04  9.22512366e-05
 -2.33053161e-03  1.62079761e-03  8.58000709e-04  1.80098744e-03 -1.03553915e-03
 -1.82048846e-03  1.61197403e-03  1.08616391e-03 -1.33186049e-03  1.43719898e-03
 -6.69720812e-05 -2.17834682e-05  4.43470395e-05  1.22827970e-05 -2.61445107e-05
  1.05291498e-04  6.00152942e-04  4.55831999e-06 -1.18728620e-04  5.09037354e-05
  2.19088775e-05  3.58008565e-04 -2.41370106e-05 -2.80291638e-04  7.99155816e-05
  5.11648853e-04 -4.63990271e-04  2.53932487e-03  7.05662757e-05  1.28611423e-04
 -6.70352203e-05 -1.95532616e-03 -4.47489038e-04  2.94917566e-04 -2.85728473e-04
  4.28855515e-04 -2.68459054e-04  2.00833194e-04 -4.20268785e-04 -5.84508470e-03
 -6.85843323e-04  3.21862298e-03  2.38949064e-04  7.03915959e-04 -1.63704708e-04
 -2.11813933e-03 -3.41160608e-03 -8.90301311e-05  8.74144245e-04  5.01107846e-04
  4.41107667e-04  5.66534934e-04 -1.18861225e-03  1.00669297e+00  1.68347748e-02
 -2.18645739e-02 -2.27502379e-04 -1.49348035e-04 -3.51453881e-04 -5.00393010e-03
 -1.49009043e-04  1.89474779e-03 -1.11234901e-03 -2.16309422e-04  4.45326023e-05
  4.87137023e-04 -1.62949845e-04 -5.51890708e-03 -1.51107570e-03  6.81337643e-03
  6.51610988e-04 -1.13730411e-03 -1.82484113e-04 -1.47006942e-04  4.05501816e-03
 -7.95674068e-05  8.16611776e-04  2.51420175e-04 -3.73658812e-04  6.82539211e-04
  1.00704626e-03  2.75966019e-05  3.42197887e-05 -9.30612303e-04  5.00089054e-05
 -5.05735306e-05 -2.27963239e-05 -1.17235122e-04 -7.26864518e-04  7.99606288e-05
 -5.60252206e-05 -1.86074986e-05  5.04017319e-06  8.09628677e-05  8.22722200e-05
  2.46989956e-04  2.09395014e-04 -1.42510868e-04 -2.00169604e-04  3.54642734e-05
  1.41545156e-04  5.68020746e-04  1.22535245e-04 -1.41664607e-04  3.19977449e-05
 -6.54230727e-04  3.61470554e-04  1.54289659e-04 -5.07835323e-05  1.35078325e-04
  1.20692473e-04  1.08609876e-03  3.21496891e-04 -1.11654308e-05  1.59943527e-05
 -2.42467341e-03  9.35419184e-04 -2.17925598e-03 -1.08587395e-04  1.87676641e-05
 -3.32590540e-04  5.81006962e-04  2.22458809e-04  2.40795958e-04  8.52492530e-05
  2.54188778e-04  1.31747078e-02 -4.73007439e-03 -2.72461075e-03 -7.82451070e-03
 -6.06593507e-04  3.17524162e-03  7.06839129e-03 -4.22546459e-03 -2.88891219e-04
 -7.30521328e-04  6.79485989e-04 -6.94463838e-04  9.15940831e-04 -4.47717043e-04
  1.63613304e-02  5.52354718e-03  2.95249014e-03 -1.02523246e-02  8.80909140e-04
  5.81829806e-03  1.25686699e-03  8.70380042e-04 -1.57454681e-03 -2.43940437e-04
 -6.01944888e-04 -1.10987466e-03  6.66337866e-05 -1.71408884e-03  3.76643334e-02
  7.45401464e-04  2.34273565e-02 -1.76838304e-02 -5.74090432e-03  7.34426998e-03
  1.15631408e-02 -1.66673025e-03 -2.39107600e-03 -1.77134678e-03  1.21215479e-03
  2.46182886e-03 -7.86740031e-03 -1.25996971e-02  1.58760799e-01  8.19888169e-02
  1.28992616e-01  3.75459957e-03 -2.32056606e-02  5.77753683e-03  2.06809815e-02
  4.22055590e-04 -1.16575143e-02 -9.49774854e-03 -6.98031071e-04  2.87496972e-02
 -1.29868595e-03 -6.58129511e-03  4.21766294e-01  3.73642795e-01 -8.34695357e-02
  8.21048062e-02  9.39004811e-03 -3.13229148e-02 -1.69858955e-03  5.32473971e-03
 -6.49469035e-03 -2.91796705e-03 -5.49165606e-04  4.56794474e-03 -1.46636192e-03
  1.63366945e-01  5.42114505e-03 -1.61243516e-02 -2.92211413e-02  5.80544662e-03
  4.62554291e-04 -5.06058456e-03  3.86742377e-06 -1.27509794e-04 -6.08254360e-05
  1.02141364e-02  6.30760596e-03 -1.43936917e-03 -7.12387508e-04 -1.16590780e-03
  3.46226621e-02  4.53475524e-03  8.18690484e-03  5.06503381e-03 -5.60380711e-04
  5.47821869e-03  2.72736057e-03  5.75667549e-04 -2.10635658e-03 -1.48062643e-04
  2.05784869e-03 -6.89599307e-04 -2.38121913e-04 -4.61857054e-04 -9.46479074e-05
  1.48333403e-02 -1.90140388e-01 -1.06120324e-01  8.50763574e-02  2.60321839e-02
  7.96718261e-03  8.77129596e-03 -1.28616369e-03  7.80188784e-03  6.01893426e-03
 -1.22048579e-03 -3.08700527e-03 -7.78766965e-03 -5.15719366e-03  1.93522197e-02
 -2.80208435e-01 -1.79766530e-01 -3.79628118e-02  4.75140275e-02 -1.28384543e-02
 -1.84650766e-02  2.21243331e-02 -1.19057539e-02  1.09536422e-02  3.95273148e-04
  1.68097404e-03 -2.06112644e-03 -9.91901593e-03  1.82972177e-02 -2.40391353e-01
 -1.41034326e-01 -5.80271816e-02 -2.01655544e-02  2.25530112e-02 -1.84389618e-02
 -1.18929415e-02  9.40081018e-03  8.26405142e-03  2.63261754e-03  2.35028953e-03
  8.75157461e-03 -5.74466198e-03  4.97106328e-03 -1.15072290e-01 -6.14718074e-02
  6.86269043e-02 -8.57627665e-02 -1.35015999e-02  2.35031762e-02 -1.26656376e-02
 -6.33179026e-03  3.13531782e-03 -1.40668787e-03 -1.45492496e-03  1.28871995e-02
  4.63444459e-03  8.99355049e-04  9.69007004e-02  9.31133879e-02  1.87568791e-02
 -1.39129679e-03 -5.56960075e-03  1.35031079e-02 -8.01069473e-03 -2.64904610e-03
  7.44684523e-04  3.66269760e-04 -5.75989753e-04 -8.17029824e-04  2.49133338e-03
  2.38337836e-02  4.02420621e-03 -5.22744456e-04 -1.04276682e-02 -4.13061360e-04
 -5.81818664e-02 -3.84324663e-04  6.18590079e-03  7.76115766e-03 -3.42663806e-03
 -6.78134686e-02 -2.92441226e-03  7.72057512e-03 -4.87045551e-03  6.52941291e-03
 -2.88228051e-02  9.62419704e-04  9.78467556e-05 -5.23883074e-03 -3.10242718e-04
 -7.94400903e-02 -7.77722028e-03 -1.29679947e-02 -1.38798785e-03  1.26414794e-03
 -9.49050785e-02 -1.17644492e-02 -8.27275604e-03  1.08621681e-02 -6.39013143e-03
  1.61709470e-02 -2.29375818e-01 -1.27287541e-01  5.04046635e-02  9.35062903e-03
  8.65249173e-03  7.65455710e-04  1.79209743e-03  3.23345064e-03  3.98840149e-03
 -1.49932066e-03 -2.62307720e-03 -4.23615400e-03  1.02118415e-03  8.34482559e-03
 -1.25511246e-01 -9.82054732e-02 -1.15070589e-01 -7.35406592e-02  8.67208219e-04
 -5.03332696e-02 -1.17500211e-02 -4.95801978e-03  2.59617423e-03 -2.58514851e-03
 -1.92141837e-03 -1.56791032e-02  1.94888673e-03 -1.34600136e-02  2.01343628e-01
  1.30545795e-01  1.22975584e-02 -1.14004348e-01 -1.32813736e-02  1.91109301e-02
 -3.17567806e-02 -1.38011932e-03 -3.18118076e-03 -3.85494163e-04  3.32021207e-03
 -6.73728141e-03 -1.23647281e-02 -9.85238825e-03  2.50206294e-01  1.41350215e-01
 -7.49416886e-02  5.48314709e-02  1.27736921e-02 -2.31548949e-02  9.67535029e-03
  2.35990512e-03 -5.17269864e-03 -9.39039837e-04  1.83428726e-03 -4.51230616e-03
 -1.13796105e-02 -1.98621576e-03 -8.53488016e-02 -7.60469671e-02 -1.05169045e-01
 -5.37907587e-02  2.10826599e-02 -4.97886772e-02 -8.32810609e-03  8.29984067e-03
 -1.47151625e-03 -1.36358290e-03  1.11119677e-03  6.85784241e-03 -4.23000673e-03
 -1.11858580e-01 -2.13761031e-02  4.21430066e-03  9.45865282e-03 -3.31570013e-03
 -9.63470546e-02 -9.13296539e-03  6.71823979e-03  1.15205167e-02 -5.55484288e-03
 -1.00565789e-01 -1.27559062e-02  9.09265490e-03 -6.10869142e-03  9.37412311e-03
  1.08349901e-01  9.76770445e-03  4.76327843e-03  1.40227385e-02  9.75733969e-04
  9.15498671e-02  1.38504662e-02  1.27183856e-02 -2.73217054e-03 -1.31949790e-03
 -5.35706283e-02 -1.15972760e-02 -6.37842807e-03  3.17719927e-03 -3.27315099e-03
  1.10591902e-02 -1.97163641e-01 -1.29764134e-01 -2.60302589e-02 -3.49911271e-02
  7.46657554e-04 -2.41027381e-02  4.86263453e-03 -9.16038523e-03 -1.50203572e-03
 -3.51431640e-04  2.52931957e-04  1.14855864e-03  2.42263946e-03 -2.69454171e-03
  8.98296639e-02  4.53729604e-02 -1.56711952e-01 -9.19647599e-02 -3.37189922e-03
 -5.63225366e-02 -4.05233308e-02  1.29833817e-03 -4.70758715e-04 -3.57810135e-03
 -2.16192977e-03 -1.04528157e-02  1.68554762e-03 -5.68595093e-03  1.49253502e-01
  9.00923275e-02 -2.00796735e-02  1.32292777e-01 -1.42737642e-02  5.31944358e-03
  4.21657931e-02 -3.03912681e-03 -5.87159086e-04 -7.41730915e-04 -4.83925549e-03
 -1.99523687e-03  7.98876537e-03  3.53239343e-03 -2.16456769e-01 -1.38796819e-01
 -3.43351842e-02  1.34732831e-01  8.69302702e-03 -1.32128637e-02  2.89757397e-02
 -2.00861260e-04  1.30074907e-03  1.86763376e-03 -2.13423343e-03 -8.62769073e-03
  7.64436644e-03  8.20908940e-04  6.63085103e-02  7.07797430e-02  2.12477358e-01
  1.41864313e-01 -4.60962682e-02  9.66694596e-02  4.64129199e-02 -1.93131468e-02
  1.73170123e-03  2.26352710e-03 -1.07929102e-03 -1.15525990e-02  1.58572429e-03
  1.67818214e-01  3.64249985e-02 -6.24340022e-03 -2.36408657e-02  2.16739675e-03
 -1.30663003e-01 -2.85058192e-02  6.14531849e-03  1.19235466e-02 -6.66832252e-03
 -9.69060391e-02 -6.13629286e-03  6.43219269e-03 -9.09236409e-03  7.36980925e-03
 -1.71909728e-01 -3.35746955e-02 -9.16693939e-03 -1.50882774e-02 -1.05948716e-03
  9.08119882e-02  2.02429153e-02  1.01284442e-02  3.22126779e-03 -1.12593497e-03
  6.12605340e-02  1.18353019e-02  5.01237469e-04 -6.62869079e-03  2.77316612e-03
  5.36781876e-03 -1.21304034e-01 -7.19033019e-02 -1.45397970e-01  4.01257919e-02
 -4.06756569e-02 -5.75295983e-02  1.62209111e-02 -1.20611901e-02 -3.54420323e-03
  2.74088034e-03 -3.06863552e-04  1.23854548e-02  2.30624589e-03 -4.55812843e-03
  2.14266332e-01  1.23225424e-01 -8.99014214e-02  6.85744835e-02 -4.06421284e-02
 -3.95690483e-02  1.50829472e-02 -9.85723046e-03  4.76225400e-03 -1.83188723e-03
 -4.96273915e-04 -1.56884560e-03  9.12726666e-04  2.32352172e-03 -8.81245284e-02
 -3.02447908e-02 -5.29591602e-03  1.73611795e-01 -1.22182921e-02 -4.79354310e-04
  4.02853130e-02 -9.12505455e-03 -1.25466068e-03 -1.07355902e-03 -5.68911878e-03
 -3.70884320e-03  6.18180274e-03  2.40332684e-03 -4.40229226e-03 -8.95221520e-03
  1.63248593e-01 -1.70196807e-01 -4.18075201e-02  5.03252875e-02 -5.83590574e-02
 -1.19275373e-02 -2.33768338e-03 -2.28905673e-03 -7.95976653e-05  1.20041894e-02
 -9.01019125e-03  1.25195365e-03  3.87582429e-02  5.69088216e-02 -1.87694201e-01
 -1.93296631e-01  3.26203361e-02 -7.34945153e-02 -7.96400012e-02  9.15521607e-03
  8.89945032e-04 -9.55004815e-04  4.91721464e-04  1.13709585e-02 -6.52195721e-05
 -1.95396838e-01 -4.79334039e-02  5.04963570e-03  1.09246489e-02 -6.13993223e-03
 -7.96042092e-02 -1.76957747e-02  5.00150472e-05  8.35266935e-03 -4.90806462e-03
 -1.66606654e-01 -3.54751579e-02  6.55148531e-03 -4.78716824e-03  1.17579789e-02
  3.86664019e-02  6.71668210e-03  4.10714518e-03  1.33935714e-03 -3.83404485e-04
 -4.97472508e-02 -1.22607585e-02 -6.14621615e-03  3.41886225e-03  3.23217160e-04
  1.89667277e-01  3.97090408e-02  9.63779856e-03 -1.30128506e-02  9.05209298e-03
 -9.94649039e-04  4.23667591e-02  4.59416198e-02  9.63754118e-02  1.27233164e-01
 -3.53545771e-02  1.90072954e-02  5.63344110e-02 -1.48761301e-02  3.21448154e-03
 -1.17084447e-03 -2.26886521e-03 -1.21254988e-03 -4.70503523e-03 -6.14591732e-05
 -3.49633170e-02 -2.31096371e-02 -1.01991973e-01  1.38344622e-01 -5.06795479e-02
 -5.88026767e-02  4.16307078e-02 -1.20030394e-02  1.04089272e-03 -1.61561859e-03
 -1.08866667e-03  7.97834068e-03  9.95777576e-03 -4.70764023e-03  4.39594104e-02