[Molden Format]
[Atoms] (AU)
C    1    6           1.7201013515         2.5817706593         0.0235976745
C    2    6          -0.8559189164         2.2768328299        -0.0899259973
C    3    6          -2.1670472228        -0.0423602783         0.4263051337
C    4    6          -0.8390607453        -2.2372952199         0.0684230175
O    5    8           1.6388916562        -2.2604361446        -0.2847727290
H    6    1           2.1348115952        -0.4155088493        -0.6447291031
H    7    1           2.6238700330         4.1658862129        -0.8993800164
H    8    1           2.7816771500         1.7575360151         1.5994942611
H    9    1          -1.8182373416        -4.0458295836        -0.2181450110
H   10    1          -4.2259065199        -0.1063942527         0.4555529352
H   11    1          -2.0030744397         3.8119805151        -0.8741265669
[GTO]
  1 0
 s    8  1.00
     6665.0000000000         0.0006920000
     1000.0000000000         0.0053290000
      228.0000000000         0.0270770000
       64.7100000000         0.1017180000
       21.0600000000         0.2747400000
        7.4950000000         0.4485640000
        2.7970000000         0.2850740000
        0.5215000000         0.0152040000
 s    8  1.00
     6665.0000000000        -0.0001460000
     1000.0000000000        -0.0011540000
      228.0000000000        -0.0057250000
       64.7100000000        -0.0233120000
       21.0600000000        -0.0639550000
        7.4950000000        -0.1499810000
        2.7970000000        -0.1272620000
        0.5215000000         0.5445290000
 s    1  1.00
        0.1596000000         1.0000000000
 p    3  1.00
        9.4390000000         0.0381090000
        2.0020000000         0.2094800000
        0.5456000000         0.5085570000
 p    1  1.00
        0.1517000000         1.0000000000
 d    1  1.00
        0.5500000000         1.0000000000

  2 0
 s    8  1.00
     6665.0000000000         0.0006920000
     1000.0000000000         0.0053290000
      228.0000000000         0.0270770000
       64.7100000000         0.1017180000
       21.0600000000         0.2747400000
        7.4950000000         0.4485640000
        2.7970000000         0.2850740000
        0.5215000000         0.0152040000
 s    8  1.00
     6665.0000000000        -0.0001460000
     1000.0000000000        -0.0011540000
      228.0000000000        -0.0057250000
       64.7100000000        -0.0233120000
       21.0600000000        -0.0639550000
        7.4950000000        -0.1499810000
        2.7970000000        -0.1272620000
        0.5215000000         0.5445290000
 s    1  1.00
        0.1596000000         1.0000000000
 p    3  1.00
        9.4390000000         0.0381090000
        2.0020000000         0.2094800000
        0.5456000000         0.5085570000
 p    1  1.00
        0.1517000000         1.0000000000
 d    1  1.00
        0.5500000000         1.0000000000

  3 0
 s    8  1.00
     6665.0000000000         0.0006920000
     1000.0000000000         0.0053290000
      228.0000000000         0.0270770000
       64.7100000000         0.1017180000
       21.0600000000         0.2747400000
        7.4950000000         0.4485640000
        2.7970000000         0.2850740000
        0.5215000000         0.0152040000
 s    8  1.00
     6665.0000000000        -0.0001460000
     1000.0000000000        -0.0011540000
      228.0000000000        -0.0057250000
       64.7100000000        -0.0233120000
       21.0600000000        -0.0639550000
        7.4950000000        -0.1499810000
        2.7970000000        -0.1272620000
        0.5215000000         0.5445290000
 s    1  1.00
        0.1596000000         1.0000000000
 p    3  1.00
        9.4390000000         0.0381090000
        2.0020000000         0.2094800000
        0.5456000000         0.5085570000
 p    1  1.00
        0.1517000000         1.0000000000
 d    1  1.00
        0.5500000000         1.0000000000

  4 0
 s    8  1.00
     6665.0000000000         0.0006920000
     1000.0000000000         0.0053290000
      228.0000000000         0.0270770000
       64.7100000000         0.1017180000
       21.0600000000         0.2747400000
        7.4950000000         0.4485640000
        2.7970000000         0.2850740000
        0.5215000000         0.0152040000
 s    8  1.00
     6665.0000000000        -0.0001460000
     1000.0000000000        -0.0011540000
      228.0000000000        -0.0057250000
       64.7100000000        -0.0233120000
       21.0600000000        -0.0639550000
        7.4950000000        -0.1499810000
        2.7970000000        -0.1272620000
        0.5215000000         0.5445290000
 s    1  1.00
        0.1596000000         1.0000000000
 p    3  1.00
        9.4390000000         0.0381090000
        2.0020000000         0.2094800000
        0.5456000000         0.5085570000
 p    1  1.00
        0.1517000000         1.0000000000
 d    1  1.00
        0.5500000000         1.0000000000

  5 0
 s    8  1.00
    11720.0000000000         0.0007100000
     1759.0000000000         0.0054700000
      400.8000000000         0.0278370000
      113.7000000000         0.1048000000
       37.0300000000         0.2830620000
       13.2700000000         0.4487190000
        5.0250000000         0.2709520000
        1.0130000000         0.0154580000
 s    8  1.00
    11720.0000000000        -0.0001600000
     1759.0000000000        -0.0012630000
      400.8000000000        -0.0062670000
      113.7000000000        -0.0257160000
       37.0300000000        -0.0709240000
       13.2700000000        -0.1654110000
        5.0250000000        -0.1169550000
        1.0130000000         0.5573680000
 s    1  1.00
        0.3023000000         1.0000000000
 p    3  1.00
       17.7000000000         0.0430180000
        3.8540000000         0.2289130000
        1.0460000000         0.5087280000
 p    1  1.00
        0.2753000000         1.0000000000
 d    1  1.00
        1.1850000000         1.0000000000

  6 0
 s    3  1.00
       13.0100000000         0.0196850000
        1.9620000000         0.1379770000
        0.4446000000         0.4781480000
 s    1  1.00
        0.1220000000         1.0000000000
 p    1  1.00
        0.7270000000         1.0000000000

  7 0
 s    3  1.00
       13.0100000000         0.0196850000
        1.9620000000         0.1379770000
        0.4446000000         0.4781480000
 s    1  1.00
        0.1220000000         1.0000000000
 p    1  1.00
        0.7270000000         1.0000000000

  8 0
 s    3  1.00
       13.0100000000         0.0196850000
        1.9620000000         0.1379770000
        0.4446000000         0.4781480000
 s    1  1.00
        0.1220000000         1.0000000000
 p    1  1.00
        0.7270000000         1.0000000000

  9 0
 s    3  1.00
       13.0100000000         0.0196850000
        1.9620000000         0.1379770000
        0.4446000000         0.4781480000
 s    1  1.00
        0.1220000000         1.0000000000
 p    1  1.00
        0.7270000000         1.0000000000

  10 0
 s    3  1.00
       13.0100000000         0.0196850000
        1.9620000000         0.1379770000
        0.4446000000         0.4781480000
 s    1  1.00
        0.1220000000         1.0000000000
 p    1  1.00
        0.7270000000         1.0000000000

  11 0
 s    3  1.00
       13.0100000000         0.0196850000
        1.9620000000         0.1379770000
        0.4446000000         0.4781480000
 s    1  1.00
        0.1220000000         1.0000000000
 p    1  1.00
        0.7270000000         1.0000000000

[5D7F]
[9G]

[MO]
 Sym= A
 Ene=        -1.9164126157e+01
 Spin= Alpha
 Occup=         2.0000000000e+00
  1        -1.0737487729e-04
  2        -1.6247605172e-04
  3         1.2665206479e-03
  4        -7.4237071991e-05
  5        -7.9581372838e-05
  6         2.0812839482e-06
  7         3.3170963396e-05
  8        -7.8843053671e-04
  9        -2.2512236828e-04
 10        -9.2848867230e-05
 11        -9.1959272586e-05
 12         1.5943778052e-04
 13        -2.2189936893e-04
 14         4.4734508073e-06
 15         1.4649971073e-04
 16         2.6620607074e-04
 17        -4.0697373111e-03
 18         8.3045206146e-05
 19         1.4278730451e-05
 20         6.9337958463e-05
 21         3.4691784426e-04
 22         2.0692285840e-03
 23        -7.2151869484e-04
 24         4.3307698523e-05
 25        -7.2532104782e-05
 26         8.0456878837e-05
 27         3.0233888092e-05
 28         7.5898345634e-06
 29        -1.3684322104e-04
 30        -1.8320196082e-04
 31         4.6286523331e-03
 32         1.1394786446e-04
 33        -2.7262587695e-04
 34        -5.0481267783e-05
 35         4.2795455347e-03
 36         2.1898993269e-03
 37        -6.2742066078e-04
 38        -1.0762650156e-04
 39        -1.2535096226e-04
 40        -6.5549956810e-05
 41         4.0887536093e-04
 42        -3.6518203904e-04
 43        -2.3894729705e-04
 44        -3.9829591523e-04
 45        -6.2108235715e-03
 46        -3.0300865246e-04
 47         1.3376767236e-04
 48         1.2930137698e-04
 49        -5.0739686009e-03
 50        -2.4906556082e-03
 51         4.5502097817e-04
 52         3.1119482150e-04
 53        -3.1985616162e-05
 54        -1.9910004854e-04
 55         8.4545139169e-04
 56        -2.6655713296e-04
 57        -1.0041125765e+00
 58        -9.4122629638e-03
 59         1.4479011943e-02
 60         1.2563843691e-03
 61        -1.0031319685e-03
 62         4.4229318897e-05
 63        -3.2179689588e-03
 64         1.1841485318e-03
 65         2.9272890660e-04
 66        -3.3997035794e-05
 67         1.7171646229e-07
 68         5.5938711755e-05
 69         1.1344552234e-04
 70        -1.5025676700e-04
 71        -7.3004981327e-04
 72        -1.1349650800e-03
 73         2.7611834735e-05
 74        -7.3914831037e-04
 75        -3.1430487376e-05
 76        -8.5983067834e-05
 77        -1.0380221062e-04
 78         4.2767070305e-05
 79         5.7051171178e-05
 80         3.8492578409e-07
 81         1.4295470225e-05
 82         1.0598356260e-04
 83        -7.0285555553e-05
 84         2.0548012166e-05
 85        -2.5772314596e-05
 86         3.6833625748e-04
 87        -9.8587952268e-04
 88         6.6150315468e-04
 89         1.7536686014e-04
 90        -6.5769531408e-05
 91         1.5593380613e-04
 92         1.1889919720e-03
 93        -1.9541498326e-04
 94        -1.7864523859e-04
 95         5.2074131666e-05
 96         5.2653285995e-05
 97        -4.0286826460e-04
 98        -3.2059584413e-05
 99        -5.5474973208e-05
100         4.0256437015e-05
 Sym= A
 Ene=        -1.0257895977e+01
 Spin= Alpha
 Occup=         2.0000000000e+00
  1        -3.4490205650e-04
  2        -4.5864235601e-04
  3         1.2825776910e-03
  4         1.4834024912e-04
  5         1.0804784943e-04
  6         2.1268617984e-05
  7        -1.0733201603e-03
  8         3.7738805612e-05
  9        -1.3521559456e-04
 10        -1.1415350884e-04
 11        -4.3527130208e-05
 12        -5.1812801313e-05
 13         3.0758107600e-06
 14        -5.8352425532e-05
 15        -4.1719841132e-04
 16        -6.3703789148e-04
 17         4.2267939309e-03
 18        -9.5673187113e-05
 19         9.0424738038e-06
 20         9.5414514515e-07
 21        -2.0805270410e-03
 22        -3.2011149198e-03
 23         7.0553012341e-04
 24        -3.0348862884e-04
 25        -1.3553294112e-04
 26        -8.8569752376e-05
 27        -2.9678513828e-05
 28         7.3186185015e-05
 29         3.7561930127e-03
 30        -7.5632787039e-04
 31        -4.4517466796e-04
 32        -5.5863401576e-04
 33         1.1564920135e-03
 34         1.7820108066e-04
 35        -2.0234724132e-03
 36        -4.9588058565e-03
 37         4.4663693822e-04
 38         1.0573970626e-03
 39         2.6957289643e-04
 40        -1.3239631748e-04
 41         3.3439228739e-04
 42         9.7373889858e-04
 43         1.0059215852e+00
 44         1.5303714234e-02
 45        -1.1164278008e-02
 46         6.9805906949e-04
 47        -2.8446673471e-04
 48        -3.6787601764e-04
 49         4.5623648503e-03
 50        -1.2374747462e-03
 51        -6.3842150777e-04
 52        -1.5780611047e-03
 53        -2.4694646719e-04
 54         5.1428085459e-04
 55        -3.7982297986e-05
 56         3.4485413645e-04
 57         6.9700334386e-04
 58         1.2794933983e-03
 59        -5.0745793999e-03
 60         3.7019383627e-04
 61        -1.4366646407e-04
 62        -4.4273837847e-05
 63         3.2716277815e-03
 64        -1.2194453283e-04
 65        -3.9593335380e-04
 66         7.4843576807e-04
 67         3.1718591876e-04
 68         2.8650250528e-05
 69        -7.9258374967e-04
 70         3.3831577269e-06
 71         5.9245720503e-04
 72        -1.9477404125e-04
 73        -5.5359994025e-04
 74        -2.7580635208e-04
 75         7.7938392460e-05
 76        -2.6847377817e-05
 77         3.4466820745e-04
 78        -1.3368742715e-05
 79        -3.3615693040e-05
 80         2.1404413500e-05
 81        -7.8358682786e-05
 82         3.4929693847e-04
 83         5.6350179707e-05
 84         6.4624774692e-05
 85        -4.7768287051e-05
 86        -2.1889359981e-03
 87         2.4422300005e-03
 88        -1.3872599272e-03
 89        -1.7211961912e-03
 90        -2.5258567563e-04
 91        -1.0711601330e-04
 92        -4.0050821767e-04
 93         3.0368324282e-04
 94         2.7690510021e-04
 95        -2.4832824909e-05
 96        -1.1405436424e-04
 97         4.1953332252e-04
 98         1.3823641479e-04
 99         1.2148730837e-04
100        -5.0453467302e-05
 Sym= A
 Ene=        -1.0214508072e+01
 Spin= Alpha
 Occup=         2.0000000000e+00
  1         8.2554206534e-03
  2        -1.0411719474e-03
  3         5.2403073375e-03
  4         1.2253505123e-03
  5         9.9878650667e-05
  6         1.5858417006e-05
  7        -2.8069002486e-03
  8        -1.1319542128e-03
  9         3.0369335141e-04
 10         9.4004884575e-04
 11        -5.4881489690e-05
 12         3.7568026950e-05
 13        -1.0890597298e-03
 14        -2.3928638872e-04
 15         1.0064563960e+00
 16         1.6346498192e-02
 17        -1.9593402891e-02
 18        -1.4873512375e-04
 19         1.2023369106e-04
 20        -3.9796572380e-04
 21        -2.7165694388e-03
 22         3.2769736124e-03
 23        -1.0457153050e-03
 24        -8.1426772082e-04
 25         4.9460026866e-04
 26        -7.3850323891e-04
 27         1.2371783966e-04
 28        -3.5188468327e-04
 29         5.6023982390e-03
 30        -5.4182929570e-04
 31         2.0443191389e-03
 32        -4.7070283338e-04
 33        -7.3512225290e-04
 34         1.6197292414e-04
 35         1.2129149185e-03
 36         2.5305099151e-03
 37         1.3411354427e-04
 38         8.1206366228e-04
 39         1.6371974391e-04
 40         5.0871989794e-04
 41         7.3020556526e-04
 42        -9.8213972644e-04
 43        -4.0262388445e-04
 44        -7.2193933947e-04
 45         2.7369799559e-03
 46         7.2011881101e-06
 47        -1.9956340797e-04
 48         7.5394184317e-05
 49        -5.9644956528e-04
 50         1.9514148991e-03
 51        -1.0698186177e-04
 52        -3.7978303639e-04
 53        -2.4738518845e-04
 54        -4.7744959033e-05
 55         1.4770040648e-04
 56         4.9080782529e-05
 57         4.9755237458e-05
 58         6.4905975057e-05
 59        -9.2068946577e-04
 60         1.4598544250e-04
 61        -3.5723980820e-05
 62         1.7917240624e-05
 63        -2.6583772958e-05
 64        -5.6003470567e-04
 65         5.5921944856e-05
 66         4.3034604378e-05
 67        -1.8754330309e-05
 68         2.8935571048e-05
 69         3.3711894887e-05
 70         2.6039407901e-05
 71         2.3287170761e-04
 72         6.3544917806e-04
 73        -3.8848233753e-04
 74        -1.5111027711e-04
 75        -3.8075310304e-05
 76        -2.8226411528e-05
 77         7.2906773918e-04
 78         1.6763838148e-04
 79        -1.4834446224e-04
 80         1.6515526638e-04
 81        -4.1124118695e-04
 82         5.2466593512e-04
 83         3.3146848781e-05
 84         8.5352038882e-05
 85        -1.5398409986e-04
 86        -8.9343407093e-05
 87         4.9317366655e-04
 88         9.4537361234e-05
 89        -1.1866805856e-04
 90        -2.1641724507e-05
 91        -4.0517758168e-05
 92         4.3286903729e-04
 93         4.8882027584e-05
 94        -3.1388507294e-04
 95        -1.2519251069e-06
 96        -2.4368200782e-03
 97         1.1155984030e-03
 98        -1.1321273185e-03
 99         1.6414868118e-03
100        -8.9064677084e-04
 Sym= A
 Ene=        -1.0184925171e+01
 Spin= Alpha
 Occup=         2.0000000000e+00
  1         2.0557102506e-03
  2         5.5734124414e-04
  3        -2.1427526399e-03
  4        -6.7564030791e-05
  5        -1.6387684153e-04
  6         8.1804985053e-05
  7         1.7114905245e-03
  8         3.5359897123e-04
  9        -4.9053928397e-04
 10         2.7671669669e-04
 11        -2.4078668174e-04
 12         2.0858095716e-04
 13        -1.0026975391e-04
 14         2.9998987355e-04
 15         6.0639858317e-03
 16         7.6364959464e-04
 17        -3.6862361319e-03
 18        -3.2853474908e-04
 19        -7.4953171071e-04
 20         1.6614454219e-04
 21         2.1328965423e-03
 22         3.0109212882e-03
 23         2.4239415852e-05
 24        -8.2462118485e-04
 25        -4.4884323760e-04
 26        -5.1671373587e-04
 27        -5.9729628744e-04
 28         1.0394554163e-03
 29        -1.0066961036e+00
 30        -1.6842791172e-02
 31         2.1568233054e-02
 32         2.1964881387e-04
 33         1.0498611741e-04
 34         5.1218300533e-04
 35         4.7950426604e-03
 36         1.3498137290e-04
 37        -1.9932012961e-03
 38         1.1183477787e-03
 39         8.6946523933e-05
 40        -2.9493929275e-05
 41        -7.2934303866e-04
 42         7.0411163817e-05
 43         4.6992099369e-03
 44         1.3217904179e-03
 45        -6.5944609315e-03
 46        -6.3734855764e-04
 47         1.0046537006e-03
 48         1.9644941714e-04
 49         5.2419268545e-04
 50        -3.5733528592e-03
 51         3.9033715572e-06
 52        -7.9714686186e-04
 53        -2.7901175249e-04
 54         4.0707628682e-04
 55        -6.6284522345e-04
 56        -1.0122279618e-03
 57        -2.7173233217e-05
 58        -3.2684021113e-05
 59         9.3969810783e-04
 60        -7.5766006549e-05
 61         3.0801129265e-05
 62         3.1698979538e-05
 63         8.5036791671e-05
 64         7.0164587528e-04
 65        -1.2174452355e-04
 66         5.8640561921e-05
 67         5.0874558259e-06
 68        -3.4483146571e-05
 69        -5.0505525341e-05
 70        -7.4418450744e-05
 71        -1.7928021810e-04
 72        -3.9420046158e-04
 73         1.5300142711e-04
 74         2.3137894291e-04
 75        -3.9616156584e-05
 76        -1.0652160645e-04
 77        -5.5708246428e-04
 78        -1.0125839653e-04
 79         1.1527985944e-04
 80         1.7983020715e-08
 81         4.6977116880e-04
 82        -2.3651777676e-04
 83        -5.6594615941e-05
 84        -8.0678446032e-05
 85        -7.7555337832e-05
 86        -1.7346913808e-05
 87        -8.7366119193e-04
 88        -3.1661034287e-04
 89         1.9535732291e-05
 90        -5.2631893032e-05
 91         2.4766913610e-03
 92        -1.0868760433e-03
 93         2.2318593379e-03
 94         1.1175231562e-04
 95         1.7516465052e-04
 96         2.4054408338e-04
 97        -4.3868455286e-04
 98        -2.7569542860e-04
 99        -1.6257445272e-04
100        -9.3178014861e-05
 Sym= A
 Ene=        -1.0181562318e+01
 Spin= Alpha
 Occup=         2.0000000000e+00
  1         1.0069105893e+00
  2         1.7334786690e-02
  3        -1.8291157362e-02
  4         1.7470134784e-04
  5         1.6467083552e-04
  6         3.4460939049e-04
  7         2.5468159719e-03
  8         2.8049589246e-03
  9        -3.0125101999e-04
 10        -8.7145171647e-05
 11         3.5590760838e-04
 12        -1.4608707863e-03
 13         5.3615336505e-04
 14         6.8500847944e-04
 15        -9.2459595595e-03
 16        -1.1084117015e-03
 17         2.5171036365e-03
 18        -1.2268706174e-03
 19        -8.4440773241e-05
 20        -9.6013823140e-05
 21         3.1406194722e-03
 22         1.2423328473e-03
 23         8.6496399574e-05
 24         9.0140983283e-04
 25        -6.4659326660e-05
 26         2.1191403850e-04
 27        -1.3904522999e-03
 28        -4.6852415521e-04
 29         1.3455383058e-03
 30        -5.7110452222e-04
 31         2.9971909899e-03
 32        -1.7739393311e-04
 33        -3.5951992306e-05
 34        -3.5228202144e-05
 35         1.8359118321e-03
 36         1.6774687936e-03
 37        -4.2921680501e-04
 38        -3.9759429352e-04
 39         5.9546809420e-05
 40        -1.6900312376e-04
 41        -3.1098853178e-04
 42        -9.7638178026e-05
 43        -4.3196124238e-05
 44        -2.9925461506e-04
 45        -1.8353414183e-03
 46        -1.4101945593e-04
 47        -1.7495753756e-04
 48        -5.9076457372e-05
 49        -1.3460644936e-03
 50        -4.4538818284e-04
 51         2.5774365921e-04
 52         5.2702158093e-05
 53         7.0443594765e-05
 54        -6.4672717906e-05
 55        -1.5612318785e-04
 56         1.1224743946e-04
 57        -4.5800681367e-05
 58        -8.2861366062e-05
 59         2.6325685912e-04
 60         1.5439442713e-04
 61        -4.2354469649e-05
 62        -7.2706722226e-05
 63        -1.3434540970e-03
 64        -1.7523711495e-04
 65         4.0166252972e-04
 66        -6.7221355231e-05
 67        -1.5614055451e-05
 68         4.8390521516e-05
 69         6.0835248833e-05
 70        -2.6789015814e-05
 71         9.0416330440e-04
 72         3.4358009299e-03
 73         5.6278176673e-06
 74         2.1973922966e-04
 75         2.6035692951e-05
 76        -2.4680255131e-03
 77         1.2108554183e-03
 78         9.1046722634e-04
 79         1.7858674141e-03
 80        -1.0996080307e-03
 81        -1.3963800586e-03
 82         2.0705024534e-03
 83         8.5533992302e-04
 84        -9.7198890130e-04
 85         1.7435599468e-03
 86        -4.4307456812e-05
 87        -2.4945641474e-05
 88         4.2430789100e-05
 89         1.4228899578e-05
 90        -3.6678467425e-05
 91         8.4090133673e-05
 92         6.1416416982e-04
 93        -1.0078682419e-05
 94        -1.0956554443e-04
 95         5.6422839773e-05
 96        -5.7936644735e-05
 97         4.1203629024e-04
 98        -1.3923837384e-04
 99        -2.6791101233e-04
100         2.6147235661e-05
 Sym= A
 Ene=        -1.0628311547e+00
 Spin= Alpha
 Occup=         2.0000000000e+00
  1         3.1936445111e-04
  2         2.1706974403e-02
  3        -7.2496473841e-03
  4        -4.4655949468e-03
  5        -1.2749901941e-02
  6        -3.3468589584e-04
  7         5.7610145447e-03
  8         8.7675842061e-03
  9        -6.4372229188e-03
 10        -5.9752288390e-04
 11        -7.6532401695e-04
 12         1.0941599926e-03
 13        -7.1681511492e-04
 14         2.5463733094e-04
 15        -9.5900307714e-04
 16         2.2094868437e-02
 17         1.0672636216e-02
 18         5.2805261018e-03
 19        -1.3233884868e-02
 20         8.6407748696e-04
 21         8.0257221935e-03
 22         6.8168910740e-04
 23         1.2676904803e-03
 24        -1.8415737591e-03
 25        -1.9545994316e-04
 26        -7.6009544670e-04
 27        -8.2662850093e-04
 28        -6.1830627524e-04
 29        -2.4991591773e-03
 30         4.1550792117e-02
 31         1.2100752037e-02
 32         2.6966109742e-02
 33        -1.7614633147e-02
 34        -6.7829654353e-03
 35         1.1732188224e-02
 36         8.2939607211e-03
 37        -2.4861231285e-03
 38        -2.9451604584e-03
 39        -2.1690234106e-03
 40         8.9202517183e-04
 41         2.2830680227e-03
 42        -7.6456566317e-03
 43        -1.2868013269e-02
 44         1.7024860411e-01
 45         7.9172830727e-02
 46         1.3711942702e-01
 47         1.5982973167e-02
 48        -2.0944630500e-02
 49         6.6456126648e-03
 50         1.3760544197e-02
 51         2.9573109984e-04
 52        -1.2621785290e-02
 53        -8.5420115723e-03
 54        -2.0725893345e-03
 55         2.8641041611e-02
 56         3.0485653077e-03
 57        -6.7706673701e-03
 58         4.1627273167e-01
 59         3.7295588650e-01
 60        -1.0145198464e-01
 61         6.5589340693e-02
 62         4.2332335836e-03
 63        -3.2101422385e-02
 64         1.3193946843e-04
 65         4.0488996321e-03
 66        -6.4800306536e-03
 67        -2.4542420630e-03
 68        -1.4330582793e-03
 69         5.8856428259e-03
 70        -1.0414484514e-03
 71         1.4469474549e-01
 72         5.8736929138e-03
 73        -1.2764175568e-02
 74        -2.5293820272e-02
 75         7.3988699042e-03
 76         1.8891056493e-03
 77        -6.5738921509e-03
 78        -2.8064082615e-04
 79        -6.9030154422e-04
 80         2.0201690046e-04
 81         1.2623577775e-02
 82         7.4449915958e-03
 83        -1.6979425189e-03
 84        -1.1951103228e-03
 85        -1.5800130432e-03
 86         3.3041714383e-02
 87         2.0556965135e-03
 88         8.2879661707e-03
 89         5.1010438824e-03
 90         1.6593060692e-05
 91         6.1030311999e-03
 92         4.1125538510e-03
 93         8.5087789806e-04
 94        -1.8585256820e-03
 95        -1.7068414701e-04
 96         2.4891859715e-03
 97        -2.6933604305e-04
 98        -2.4587865907e-04
 99        -4.5116140546e-04
100        -9.4074217322e-05
 Sym= A
 Ene=        -8.0808021339e-01
 Spin= Alpha
 Occup=         2.0000000000e+00
  1         1.4040844937e-02
  2        -1.8575736442e-01
  3        -9.7486275726e-02
  4         8.5640079380e-02
  5         1.9721802428e-02
  6        -8.9745951963e-04
  7         6.3632221646e-03
  8        -1.9752219209e-03
  9         6.7963242394e-03
 10         6.9003658025e-03
 11         2.6151852996e-04
 12        -2.3519578632e-03
 13        -8.5506156524e-03
 14        -4.0080374213e-03
 15         1.9565591441e-02
 16        -2.8338106432e-01
 17        -1.8896090195e-01
 18        -3.1716273403e-02
 19         5.6142078798e-02
 20        -9.7035275590e-03
 21        -2.3836307406e-02
 22         2.5574595437e-02
 23        -1.0254915951e-02
 24         1.0874851897e-02
 25         1.6640169285e-03
 26         2.1874044112e-03
 27        -2.3335930296e-03
 28        -8.3062210657e-03
 29         1.8127991548e-02
 30        -2.4014430596e-01
 31        -1.3726528037e-01
 32        -6.2510178708e-02
 33        -2.8060685794e-02
 34         2.7290869185e-02
 35        -1.3428119667e-02
 36        -1.4592401080e-02
 37         8.7381260021e-03
 38         7.7584513621e-03
 39         3.4544693490e-03
 40         2.7711135399e-03
 41         7.9170738870e-03
 42        -6.6890738855e-03
 43         4.0777990048e-03
 44        -9.5980709837e-02
 45        -5.5339632114e-02
 46         8.2312766220e-02
 47        -8.5706018419e-02
 48        -1.3894394789e-02
 49         2.5387457557e-02
 50        -1.5109677269e-02
 51        -5.9607432911e-03
 52         2.7358475055e-03
 53        -1.4977765200e-03
 54        -1.6520378006e-03
 55         1.4744219341e-02
 56         5.1553533667e-03
 57         6.6568207025e-04
 58         1.1047898583e-01
 59         1.1049452532e-01
 60         5.2213120972e-03
 61        -1.2576240741e-02
 62        -4.0773252987e-03
 63         8.7807084724e-03
 64        -9.6954961142e-03
 65        -1.7297068354e-03
 66         6.8861103139e-04
 67         1.9992241211e-04
 68        -4.5138349109e-04
 69         9.8421653674e-05
 70         2.2393779546e-03
 71         2.5669207826e-03
 72         5.4361580591e-03
 73         1.5156323366e-03
 74        -1.1982827559e-02
 75        -1.1985122884e-03
 76        -5.6980573293e-02
 77         1.2815581667e-04
 78         6.2372096810e-03
 79         7.0200459271e-03
 80        -3.9020871907e-03
 81        -6.7180269457e-02
 82        -1.8336752562e-03
 83         6.7917783758e-03
 84        -3.4022046668e-03
 85         7.8158520874e-03
 86        -2.2969228459e-02
 87         6.9770691868e-04
 88         8.6144062498e-04
 89        -4.2830479077e-03
 90        -4.1545479260e-04
 91        -7.7201896556e-02
 92        -5.4008393001e-03
 93        -1.2908096463e-02
 94        -1.6540919438e-03
 95         7.3853298441e-04
 96        -9.5225953480e-02
 97        -1.3130943217e-02
 98        -7.8645434189e-03
 99         1.1523647863e-02
100        -5.1327986972e-03
 Sym= A
 Ene=        -7.3285791778e-01
 Spin= Alpha
 Occup=         2.0000000000e+00
  1         1.5093869364e-02
  2        -2.3323100820e-01
  3        -1.1809193841e-01
  4         4.4161603573e-02
  5         9.2060299068e-03
  6        -7.1370418444e-04
  7        -3.8371978599e-03
  8         2.3694416578e-04
  9         5.0909650217e-03
 10         4.4549778322e-03
 11        -1.7266588097e-04
 12        -2.8221508100e-03
 13        -2.6989508216e-03
 14         2.2857253370e-03
 15         7.4963649701e-03
 16        -1.0870542762e-01
 17        -9.6341466303e-02
 18        -1.2043390643e-01
 19        -7.0266979786e-02
 20         7.8866389637e-03
 21        -5.7935637628e-02
 22        -8.5223055835e-03
 23        -3.8213254967e-03
 24         2.6282245495e-03
 25        -1.3324487494e-03
 26        -1.6444289736e-03
 27        -1.6423692883e-02
 28         4.6932107208e-03
 29        -1.3541418678e-02
 30         2.0460067688e-01
 31         1.3559759084e-01
 32         1.4739257802e-02
 33        -1.0405559994e-01
 34        -1.6748248392e-02
 35         2.0898403081e-02
 36        -3.1620772373e-02
 37        -1.8871471381e-03
 38        -3.2385957288e-03
 39        -6.3636730859e-04
 40         3.6357997670e-03
 41        -6.7321814042e-03
 42        -1.2091551928e-02
 43        -9.0445378029e-03
 44         2.4701407293e-01
 45         1.3870010836e-01
 46        -7.7085125360e-02
 47         4.9214708741e-02
 48         1.0989327905e-02
 49        -2.3351903844e-02
 50         8.1768924697e-03
 51         1.7166918579e-03