[Molden Format]
[Atoms] (AU)
C    1    6           1.6657567180         2.8202330955         0.1950331631
C    2    6          -0.8388272914         2.3594571303        -0.0893224308
C    3    6          -2.1041441012        -0.0330605641         0.3832282100
C    4    6          -0.8698957873        -2.2593288089         0.0523637728
O    5    8           1.6269724703        -2.4838775189        -0.3776122833
H    6    1           2.2766472165        -0.7202385315        -0.6242212781
H    7    1           2.5738551968         4.4427955995        -0.6931693531
H    8    1           2.8717761140         1.6871208452         1.4412245838
H    9    1          -1.8348775358        -4.0823248499        -0.0612748700
H   10    1          -4.1571183376        -0.0878826906         0.5308559204
H   11    1          -1.9862399875         3.8028717457        -1.0456327363
[GTO]
  1 0
 s    8  1.00
     6665.0000000000         0.0006920000
     1000.0000000000         0.0053290000
      228.0000000000         0.0270770000
       64.7100000000         0.1017180000
       21.0600000000         0.2747400000
        7.4950000000         0.4485640000
        2.7970000000         0.2850740000
        0.5215000000         0.0152040000
 s    8  1.00
     6665.0000000000        -0.0001460000
     1000.0000000000        -0.0011540000
      228.0000000000        -0.0057250000
       64.7100000000        -0.0233120000
       21.0600000000        -0.0639550000
        7.4950000000        -0.1499810000
        2.7970000000        -0.1272620000
        0.5215000000         0.5445290000
 s    1  1.00
        0.1596000000         1.0000000000
 p    3  1.00
        9.4390000000         0.0381090000
        2.0020000000         0.2094800000
        0.5456000000         0.5085570000
 p    1  1.00
        0.1517000000         1.0000000000
 d    1  1.00
        0.5500000000         1.0000000000

  2 0
 s    8  1.00
     6665.0000000000         0.0006920000
     1000.0000000000         0.0053290000
      228.0000000000         0.0270770000
       64.7100000000         0.1017180000
       21.0600000000         0.2747400000
        7.4950000000         0.4485640000
        2.7970000000         0.2850740000
        0.5215000000         0.0152040000
 s    8  1.00
     6665.0000000000        -0.0001460000
     1000.0000000000        -0.0011540000
      228.0000000000        -0.0057250000
       64.7100000000        -0.0233120000
       21.0600000000        -0.0639550000
        7.4950000000        -0.1499810000
        2.7970000000        -0.1272620000
        0.5215000000         0.5445290000
 s    1  1.00
        0.1596000000         1.0000000000
 p    3  1.00
        9.4390000000         0.0381090000
        2.0020000000         0.2094800000
        0.5456000000         0.5085570000
 p    1  1.00
        0.1517000000         1.0000000000
 d    1  1.00
        0.5500000000         1.0000000000

  3 0
 s    8  1.00
     6665.0000000000         0.0006920000
     1000.0000000000         0.0053290000
      228.0000000000         0.0270770000
       64.7100000000         0.1017180000
       21.0600000000         0.2747400000
        7.4950000000         0.4485640000
        2.7970000000         0.2850740000
        0.5215000000         0.0152040000
 s    8  1.00
     6665.0000000000        -0.0001460000
     1000.0000000000        -0.0011540000
      228.0000000000        -0.0057250000
       64.7100000000        -0.0233120000
       21.0600000000        -0.0639550000
        7.4950000000        -0.1499810000
        2.7970000000        -0.1272620000
        0.5215000000         0.5445290000
 s    1  1.00
        0.1596000000         1.0000000000
 p    3  1.00
        9.4390000000         0.0381090000
        2.0020000000         0.2094800000
        0.5456000000         0.5085570000
 p    1  1.00
        0.1517000000         1.0000000000
 d    1  1.00
        0.5500000000         1.0000000000

  4 0
 s    8  1.00
     6665.0000000000         0.0006920000
     1000.0000000000         0.0053290000
      228.0000000000         0.0270770000
       64.7100000000         0.1017180000
       21.0600000000         0.2747400000
        7.4950000000         0.4485640000
        2.7970000000         0.2850740000
        0.5215000000         0.0152040000
 s    8  1.00
     6665.0000000000        -0.0001460000
     1000.0000000000        -0.0011540000
      228.0000000000        -0.0057250000
       64.7100000000        -0.0233120000
       21.0600000000        -0.0639550000
        7.4950000000        -0.1499810000
        2.7970000000        -0.1272620000
        0.5215000000         0.5445290000
 s    1  1.00
        0.1596000000         1.0000000000
 p    3  1.00
        9.4390000000         0.0381090000
        2.0020000000         0.2094800000
        0.5456000000         0.5085570000
 p    1  1.00
        0.1517000000         1.0000000000
 d    1  1.00
        0.5500000000         1.0000000000

  5 0
 s    8  1.00
    11720.0000000000         0.0007100000
     1759.0000000000         0.0054700000
      400.8000000000         0.0278370000
      113.7000000000         0.1048000000
       37.0300000000         0.2830620000
       13.2700000000         0.4487190000
        5.0250000000         0.2709520000
        1.0130000000         0.0154580000
 s    8  1.00
    11720.0000000000        -0.0001600000
     1759.0000000000        -0.0012630000
      400.8000000000        -0.0062670000
      113.7000000000        -0.0257160000
       37.0300000000        -0.0709240000
       13.2700000000        -0.1654110000
        5.0250000000        -0.1169550000
        1.0130000000         0.5573680000
 s    1  1.00
        0.3023000000         1.0000000000
 p    3  1.00
       17.7000000000         0.0430180000
        3.8540000000         0.2289130000
        1.0460000000         0.5087280000
 p    1  1.00
        0.2753000000         1.0000000000
 d    1  1.00
        1.1850000000         1.0000000000

  6 0
 s    3  1.00
       13.0100000000         0.0196850000
        1.9620000000         0.1379770000
        0.4446000000         0.4781480000
 s    1  1.00
        0.1220000000         1.0000000000
 p    1  1.00
        0.7270000000         1.0000000000

  7 0
 s    3  1.00
       13.0100000000         0.0196850000
        1.9620000000         0.1379770000
        0.4446000000         0.4781480000
 s    1  1.00
        0.1220000000         1.0000000000
 p    1  1.00
        0.7270000000         1.0000000000

  8 0
 s    3  1.00
       13.0100000000         0.0196850000
        1.9620000000         0.1379770000
        0.4446000000         0.4781480000
 s    1  1.00
        0.1220000000         1.0000000000
 p    1  1.00
        0.7270000000         1.0000000000

  9 0
 s    3  1.00
       13.0100000000         0.0196850000
        1.9620000000         0.1379770000
        0.4446000000         0.4781480000
 s    1  1.00
        0.1220000000         1.0000000000
 p    1  1.00
        0.7270000000         1.0000000000

  10 0
 s    3  1.00
       13.0100000000         0.0196850000
        1.9620000000         0.1379770000
        0.4446000000         0.4781480000
 s    1  1.00
        0.1220000000         1.0000000000
 p    1  1.00
        0.7270000000         1.0000000000

  11 0
 s    3  1.00
       13.0100000000         0.0196850000
        1.9620000000         0.1379770000
        0.4446000000         0.4781480000
 s    1  1.00
        0.1220000000         1.0000000000
 p    1  1.00
        0.7270000000         1.0000000000

[5D7F]
[9G]

[MO]
 Sym= A
 Ene=        -1.9170939921e+01
 Spin= Alpha
 Occup=         2.0000000000e+00
  1        -1.3992864649e-04
  2        -2.4066988901e-04
  3         1.6805813051e-03
  4        -1.0044068500e-04
  5         4.3596099790e-05
  6         2.4117491227e-05
  7        -2.1976553646e-04
  8        -1.2456151499e-03
  9         1.0876699128e-04
 10        -7.4029764163e-05
 11        -2.8803800969e-05
 12         5.8339520768e-05
 13        -1.2417799991e-04
 14         6.2318902386e-05
 15         1.9221093155e-04
 16         3.3603499222e-04
 17        -5.1123680928e-03
 18         3.5073103824e-05
 19         1.2889920005e-05
 20         8.9148581160e-05
 21         2.2230196365e-05
 22         2.6744720903e-03
 23        -9.5454721948e-04
 24         6.5267225941e-05
 25        -1.0795442793e-04
 26         1.0252949350e-04
 27        -6.2529730958e-07
 28         2.7755936406e-05
 29        -1.7400661894e-04
 30        -2.4667783487e-04
 31         4.9032898751e-03
 32         8.0000550142e-05
 33        -2.6585286291e-04
 34        -3.4531464047e-05
 35         4.5276066621e-03
 36         2.6332815612e-03
 37        -7.5124845932e-04
 38        -1.4408895125e-04
 39        -1.5302722055e-04
 40        -9.0597039838e-06
 41         4.1171282601e-04
 42        -3.6934717128e-04
 43        -1.9525132928e-04
 44        -3.4980691924e-04
 45        -6.0685548246e-03
 46        -3.3660939650e-04
 47         1.8053885965e-04
 48         1.1819716820e-04
 49        -5.3960734542e-03
 50        -1.9959985903e-03
 51         7.3343055934e-04
 52         3.8943652740e-04
 53        -2.7807711932e-05
 54        -1.1032460159e-04
 55         7.5363942486e-04
 56        -3.5088214589e-04
 57        -1.0040779742e+00
 58        -9.3367320271e-03
 59         1.4218469169e-02
 60         1.0501833468e-03
 61        -1.2717775433e-03
 62        -5.5372864699e-05
 63        -3.1754624640e-03
 64         1.3632005518e-03
 65         4.7805368825e-04
 66        -1.2599454230e-05
 67        -9.9324743429e-06
 68         6.1072062024e-05
 69         1.3972563200e-04
 70        -1.9548549090e-04
 71        -5.3152360725e-04
 72        -7.5598661580e-04
 73        -8.1098632046e-05
 74        -8.4204121778e-04
 75        -2.3400414834e-05
 76        -3.0600983170e-05
 77         1.5716804260e-04
 78         3.7748656052e-05
 79         7.6716466010e-05
 80         2.3109600225e-06
 81        -1.8948082339e-04
 82        -1.5279465078e-04
 83        -4.0412464976e-06
 84        -2.4935868054e-05
 85        -2.1006863879e-05
 86         4.4173932236e-04
 87        -8.9590875440e-04
 88         6.2237209279e-04
 89         1.8934946800e-04
 90        -7.9085795491e-05
 91         1.4834019966e-04
 92         1.2103985245e-03
 93        -2.2228896140e-04
 94        -1.9253705689e-04
 95         5.0690803745e-05
 96         4.5605959356e-05
 97        -6.1996109067e-04
 98        -2.8121490293e-05
 99        -8.2659732570e-05
100         3.7207943753e-05
 Sym= A
 Ene=        -1.0253169153e+01
 Spin= Alpha
 Occup=         2.0000000000e+00
  1        -3.0005337532e-04
  2        -3.6987513674e-04
  3         1.0702426283e-03
  4         1.4139732740e-04
  5         9.4026645028e-05
  6         4.8963673487e-05
  7        -1.1011723451e-03
  8         3.3202894506e-04
  9        -4.0419450244e-04
 10        -9.6066880854e-05
 11        -2.5325325610e-05
 12        -3.6372718335e-05
 13         3.4916129014e-05
 14        -3.7021813726e-05
 15        -4.7908247822e-04
 16        -6.9674306194e-04
 17         4.5408033573e-03
 18        -9.8022796637e-05
 19         1.3288843050e-05
 20        -3.8460014551e-06
 21        -2.1227396045e-03
 22        -3.6153707262e-03
 23         7.5223990669e-04
 24        -3.2929333011e-04
 25        -1.1162056292e-04
 26        -8.9677107678e-05
 27        -1.9897171364e-05
 28         1.2152911348e-04
 29         4.2642510855e-03
 30        -9.5241931756e-04
 31        -1.5102472753e-05
 32        -5.9591074560e-04
 33         1.2904784230e-03
 34         1.8361613805e-04
 35        -1.8650276018e-03
 36        -5.6544481010e-03
 37         4.6808133728e-04
 38         1.0630208993e-03
 39         2.8408286899e-04
 40        -1.4357282916e-04
 41         4.2563375277e-04
 42         9.6187314154e-04
 43         1.0058984704e+00
 44         1.5262034651e-02
 45        -1.1921182079e-02
 46         5.9924100109e-04
 47        -4.0963582592e-04
 48        -2.5381765424e-04
 49         4.6597546713e-03
 50        -1.8788184224e-03
 51        -8.7816408149e-04
 52        -1.6269171415e-03
 53        -3.5254350475e-04
 54         3.8094725592e-04
 55        -3.1349154208e-04
 56         1.0989012202e-04
 57         7.0505652666e-04
 58         1.2785442457e-03
 59        -4.7790604505e-03
 60         2.8853968041e-04
 61        -1.7060209961e-04
 62        -4.3535449097e-05
 63         3.1610287055e-03
 64        -1.4225297324e-04
 65        -5.0432525007e-04
 66         7.2055211657e-04
 67         3.5778431798e-04
 68        -1.0679074397e-05
 69        -7.8272154794e-04
 70         8.7760185160e-05
 71         5.5210752781e-04
 72        -2.6691494182e-04
 73        -5.9320089945e-04
 74        -1.2313769975e-04
 75         9.4960076003e-05
 76        -5.0126712475e-05
 77         2.0636356626e-04
 78        -1.9439543501e-05
 79        -3.8328450148e-05
 80         2.2219451847e-05
 81        -1.7810122965e-05
 82         6.5615456086e-04
 83         2.5497964105e-05
 84         5.3584020730e-05
 85        -3.6009470526e-05
 86        -2.2733197126e-03
 87         2.3121369230e-03
 88        -1.4791789716e-03
 89        -1.6974023576e-03
 90        -3.7083045288e-05
 91        -1.0762606754e-04
 92        -2.7839959722e-04
 93         3.1578635806e-04
 94         2.8669661715e-04
 95        -4.2039367889e-05
 96        -7.8685041427e-05
 97         4.7184413854e-04
 98         1.5124608880e-04
 99         1.1963854850e-04
100        -3.9547825782e-05
 Sym= A
 Ene=        -1.0209997720e+01
 Spin= Alpha
 Occup=         2.0000000000e+00
  1         1.5703555601e-02
  2        -1.1213678698e-03
  3         4.9911313976e-03
  4         1.3090922977e-03
  5         2.2656759436e-04
  6         4.8361129721e-05
  7        -2.4740050782e-03
  8        -1.5106898865e-03
  9         3.8510651262e-04
 10         8.7657498762e-04
 11        -2.8086532100e-04
 12         2.7948234912e-05
 13        -1.1140350964e-03
 14        -2.9516414482e-04
 15         1.0063319801e+00
 16         1.6294165820e-02
 17        -1.9322764600e-02
 18        -7.8551351531e-05
 19         1.3439683371e-04
 20        -3.8707138181e-04
 21        -2.1974704320e-03
 22         3.1117217556e-03
 23        -1.3247800560e-03
 24        -7.0463808990e-04
 25         6.4478044943e-04
 26        -7.5043986745e-04
 27         2.3017116571e-04
 28        -1.1069769806e-04
 29         5.4036307578e-03
 30        -4.4412365528e-04
 31         1.1958354645e-03
 32        -4.5099974012e-04
 33        -6.6189892297e-04
 34         1.4388687648e-04
 35         7.4224287087e-04
 36         3.2482605398e-03
 37         2.8175342646e-04
 38         8.1439098508e-04
 39         7.3455037231e-05
 40         5.0637821355e-04
 41         9.6490857379e-04
 42        -9.5415442151e-04
 43        -3.8900929365e-04
 44        -7.4956604141e-04
 45         3.7561899310e-03
 46        -5.0644807852e-05
 47        -2.0317212998e-04
 48         1.1008815461e-04
 49        -5.4848491538e-04
 50         2.6114120537e-03
 51        -8.3698990477e-05
 52        -4.1610266728e-04
 53        -3.1753348666e-04
 54         8.4369648585e-06
 55         3.0836616393e-04
 56        -1.3959973891e-04
 57         7.9106795378e-05
 58         1.1404336764e-04
 59        -1.1471699940e-03
 60         1.5057478667e-04
 61        -3.9168629641e-05
 62        -1.0264591708e-06
 63         1.4031518514e-04
 64        -6.3501429697e-04
 65         3.5696601319e-05
 66         7.1603009748e-05
 67         1.7195233858e-06
 68         1.9898043527e-05
 69         4.9834486895e-06
 70         2.3563007374e-05
 71         2.6356134377e-04
 72         5.1688244775e-04
 73        -3.2222615107e-04
 74        -1.0697441487e-04
 75        -4.2918391217e-05
 76        -3.1117632694e-05
 77         8.7939600561e-04
 78         1.5048963324e-04
 79        -1.2602588155e-04
 80         1.4347008433e-04
 81        -2.7933989521e-04
 82         1.0555030457e-04
 83         5.4039613376e-05
 84         1.9979123577e-04
 85        -1.7528272225e-04
 86         3.3891097661e-05
 87         7.3288688597e-04
 88         1.4135932727e-04
 89        -8.2630235386e-05
 90        -7.0556126599e-06
 91        -1.8225359886e-04
 92         3.4474350561e-04
 93        -1.3464506350e-05
 94        -3.5862615622e-04
 95        -4.6219639071e-05
 96        -2.3050018935e-03
 97         1.2253539802e-03
 98        -1.1085585570e-03
 99         1.4977254085e-03
100        -1.0417038649e-03
 Sym= A
 Ene=        -1.0189545547e+01
 Spin= Alpha
 Occup=         2.0000000000e+00
  1         1.0065076024e+00
  2         1.6745713239e-02
  3        -1.6339539891e-02
  4         3.0748687753e-04
  5        -1.3395635387e-04
  6         1.1568511643e-05
  7         2.3326418659e-03
  8         1.6976319361e-03
  9         4.5286419137e-04
 10        -5.7842162216e-04
 11         4.4548522989e-04
 12        -1.4779956874e-03
 13         4.5862551782e-04
 14         4.3158526205e-04
 15        -1.6877812007e-02
 16        -1.3713228507e-03
 17         1.8220602974e-03
 18        -1.3386551932e-03
 19        -2.3075650751e-04
 20        -1.8501453735e-04
 21         3.0090852829e-03
 22         1.7920923293e-03
 23        -4.4714443594e-05
 24         9.5208427541e-04
 25        -3.6980316473e-04
 26         2.3926081361e-04
 27        -1.1751086633e-03
 28        -7.0530704114e-04
 29        -1.2456441526e-03
 30        -5.4006106934e-04
 31         3.1417278307e-03
 32        -1.2517957805e-04
 33         1.7322754510e-05
 34        -5.4415419834e-05
 35         1.8528765790e-03
 36         2.0886208687e-03
 37        -3.9977145677e-04
 38        -3.8925595799e-04
 39         7.1141441607e-05
 40        -1.9799520852e-04
 41        -3.3098339427e-04
 42        -2.3863010522e-05
 43         6.6277141920e-06
 44        -2.2959115763e-04
 45        -1.0977730521e-03
 46        -5.8057314892e-05
 47        -1.4442100929e-04
 48        -5.4084571785e-05
 49        -1.2977089212e-03
 50        -2.6645449935e-04
 51         2.7508033545e-04
 52         4.9745843052e-05
 53         1.0111606563e-04
 54        -8.5301663096e-05
 55        -9.2106895838e-05
 56         1.1033192159e-04
 57         5.9279043561e-06
 58         3.0184393360e-05
 59         4.0921662258e-04
 60         1.6001779623e-04
 61         8.3301442813e-05
 62        -4.9351222790e-05
 63        -8.8724214692e-04
 64        -1.3000940628e-04
 65         1.3436631924e-04
 66        -6.7793899769e-05
 67        -3.2505449031e-05
 68        -2.7350615048e-05
 69         4.5846301208e-05
 70         7.0173409019e-05
 71         4.1494429153e-04
 72         1.9597842990e-03
 73        -1.0323873034e-04
 74         6.2338631386e-04
 75         9.3875870694e-05
 76        -2.3612702154e-03
 77         1.6390780578e-03
 78         8.7930398253e-04
 79         1.7788217757e-03
 80        -1.0847476504e-03
 81        -1.8167027687e-03
 82         1.6220526504e-03
 83         1.0883248189e-03
 84        -1.3310806885e-03
 85         1.4404596177e-03
 86        -6.4562968866e-05
 87        -2.0551902404e-05
 88         4.7019107506e-05
 89         1.1223466942e-05
 90        -2.7540996090e-05
 91         1.0559667672e-04
 92         5.9971080833e-04
 93         4.3732114432e-06
 94        -1.1943001106e-04
 95         5.0702628530e-05
 96         2.0208968456e-05
 97         3.5792607089e-04
 98        -2.8555302405e-05
 99        -2.7992275244e-04
100         7.8962574673e-05
 Sym= A
 Ene=        -1.0183493161e+01
 Spin= Alpha
 Occup=         2.0000000000e+00
  1         5.5805479423e-04
  2        -4.5743486269e-04
  3         2.4448123929e-03
  4         7.0590824989e-05
  5         1.2696735494e-04
  6        -6.5025314544e-05
  7        -1.9182714744e-03
  8        -4.3053427794e-04
  9         3.2107668787e-04
 10        -2.8837516157e-04
 11         4.2319281229e-04
 12        -2.6110080143e-04
 13         1.9445676669e-04
 14        -4.2043760550e-04
 15        -5.7962619642e-03
 16        -6.9340919544e-04
 17         3.2828009957e-03
 18         2.4117525239e-04
 19         7.0846870020e-04
 20        -1.6248695469e-04
 21        -2.0668219124e-03
 22        -3.3918392819e-03
 23        -9.1118905690e-05
 24         8.7259283072e-04
 25         4.9775940976e-04
 26         4.3779817176e-04
 27         5.6940611839e-04
 28        -1.1854803543e-03
 29         1.0066885500e+00
 30         1.6820754375e-02
 31        -2.1870783110e-02
 32        -2.2811049490e-04
 33        -1.4696325160e-04
 34        -3.6159653491e-04
 35        -5.0021358408e-03
 36        -1.2786205337e-04
 37         1.8897737800e-03
 38        -1.1081181665e-03
 39        -1.9871038780e-04
 40         4.4642688046e-05
 41         4.8839484078e-04
 42        -1.4494143335e-04
 43        -5.4206938617e-03
 44        -1.4934688259e-03
 45         6.8018307797e-03
 46         6.4538141305e-04
 47        -1.1229847918e-03
 48        -1.8443120061e-04
 49        -1.7248357663e-04
 50         4.0743287748e-03
 51        -5.7678854431e-05
 52         8.1435233059e-04
 53         2.5415350118e-04
 54        -3.8089516533e-04
 55         6.8087088678e-04
 56         1.0126680824e-03
 57         2.9177338724e-05
 58         3.7182373347e-05
 59        -9.2452556979e-04
 60         5.2206473496e-05
 61        -4.7885293343e-05
 62        -2.3776031625e-05
 63        -1.2356577847e-04
 64        -7.3704342093e-04
 65         8.0752452880e-05
 66        -5.6515503552e-05
 67        -1.7490586384e-05
 68         5.7742723914e-06
 69         8.1292461582e-05
 70         8.5789474887e-05
 71         2.4226168825e-04
 72         2.3132950668e-04
 73        -1.4380559687e-04
 74        -2.0076221307e-04
 75         3.7912756164e-05
 76         1.5243261315e-04
 77         5.6629775608e-04
 78         1.2027007392e-04
 79        -1.4496184533e-04
 80         3.2316629390e-05
 81        -6.4679707656e-04
 82         3.5140482973e-04
 83         1.4859648320e-04
 84        -4.8559620218e-05
 85         1.3362108146e-04
 86         1.2363871663e-04
 87         1.0915787329e-03
 88         3.2834639707e-04
 89        -1.4600553240e-05
 90         1.8787943779e-05
 91        -2.4155042959e-03
 92         9.4331376802e-04
 93        -2.1750582974e-03
 94        -1.1120365909e-04
 95         6.1103682484e-07
 96        -3.3668681461e-04
 97         5.8665354313e-04
 98         2.1814997190e-04
 99         2.3732160303e-04
100         8.5572010415e-05
 Sym= A
 Ene=        -1.0610211594e+00
 Spin= Alpha
 Occup=         2.0000000000e+00
  1         2.0402790252e-04
  2         1.3332324505e-02
  3        -4.1293739845e-03
  4        -2.8000159871e-03
  5        -7.9121357595e-03
  6        -5.8960622575e-04
  7         2.9969968287e-03
  8         6.7006949786e-03
  9        -4.3478717649e-03
 10        -2.9871860693e-04
 11        -7.0765065085e-04
 12         6.8504308939e-04
 13        -6.7998272193e-04
 14         9.0039297577e-04
 15        -4.5010075987e-04
 16         1.6584521289e-02
 17         5.1701068613e-03
 18         3.0191987515e-03
 19        -1.0348046337e-02
 20         8.5789973708e-04
 21         5.3812104933e-03
 22         1.4514920306e-03
 23         8.4458291348e-04
 24        -1.5630526680e-03
 25        -2.4667746283e-04
 26        -5.8656927699e-04
 27        -1.1163164416e-03
 28         6.0564493428e-05
 29        -1.8243668259e-03
 30         3.7855161496e-02
 31         2.9216718819e-03
 32         2.3607110210e-02
 33        -1.7800406548e-02
 34        -5.8071264998e-03
 35         8.1180459590e-03
 36         1.0656110835e-02
 37        -1.7946945046e-03
 38        -2.4589011231e-03
 39        -1.8058389853e-03
 40         1.2054851281e-03
 41         2.4060492295e-03
 42        -7.8983294042e-03
 43        -1.2622265290e-02
 44         1.6046572626e-01
 45         8.0955208094e-02
 46         1.3003852991e-01
 47         3.7919108610e-03
 48        -2.3061674565e-02
 49         6.2400163217e-03
 50         1.9253349920e-02
 51         3.6218187725e-04
 52        -1.1711791700e-02
 53        -9.4064261035e-03
 54        -7.7458888130e-04
 55         2.8782113912e-02
 56        -1.3488692795e-03
 57        -6.5016382193e-03
 58         4.2147095492e-01
 59         3.7590926768e-01
 60        -8.5775160009e-02
 61         8.0097056294e-02
 62         9.4584143739e-03
 63        -3.1336706303e-02
 64        -5.1750511288e-04
 65         5.1507957714e-03
 66        -6.5074330386e-03
 67        -2.9026218466e-03
 68        -5.6902483048e-04
 69         4.7312210989e-03
 70        -1.5391327423e-03
 71         1.5825726824e-01
 72         5.1949600688e-03
 73        -1.5571081128e-02
 74        -2.8483614471e-02
 75         5.7181241893e-03
 76         5.5069817392e-04
 77        -4.9269642471e-03
 78        -7.7029840653e-06
 79        -1.5572627863e-04
 80        -4.4384870676e-05
 81         1.0277178681e-02
 82         6.3192111542e-03
 83        -1.4318816095e-03
 84        -7.0469909029e-04
 85        -1.1599295660e-03
 86         3.5288271628e-02
 87         4.2031397745e-03
 88         8.1138065471e-03
 89         5.2883265640e-03
 90        -4.5174897155e-04
 91         5.5512234977e-03
 92         2.8972275970e-03
 93         5.9599630429e-04
 94        -2.0661920052e-03
 95        -1.4889312496e-04
 96         2.0852867307e-03
 97        -7.8657249401e-04
 98        -2.2314704289e-04
 99        -4.7783609136e-04
100        -9.1523435075e-05
 Sym= A
 Ene=        -8.0488313323e-01
 Spin= Alpha
 Occup=         2.0000000000e+00
  1         1.4979033447e-02
  2        -1.9156468861e-01
  3        -1.0650310919e-01
  4         8.5198441008e-02
  5         2.6152400376e-02
  6         7.8799318340e-03
  7         8.5187628467e-03
  8        -1.3970970646e-03
  9         7.8493432617e-03
 10         6.0864094553e-03
 11        -1.1762500660e-03
 12        -3.1307018762e-03
 13        -7.7827752889e-03
 14        -5.1116984328e-03
 15         1.9383466465e-02
 16        -2.8118715723e-01
 17        -1.8096357825e-01
 18        -3.8516327241e-02
 19         4.7506358491e-02
 20        -1.2180891684e-02
 21        -1.9261287809e-02
 22         2.2141179020e-02
 23        -1.1826221669e-02
 24         1.1015659347e-02
 25         4.3268138927e-04
 26         1.6412266359e-03
 27        -2.1992908862e-03
 28        -9.8285982815e-03
 29         1.8110783006e-02
 30        -2.3909406429e-01
 31        -1.3975198249e-01
 32        -5.7788051353e-02
 33        -2.1390677186e-02
 34         2.2578026033e-02
 35        -1.7968393275e-02
 36        -1.2601199574e-02
 37         9.3101900339e-03
 38         8.2231908564e-03
 39         2.6391714453e-03
 40         2.3481554362e-03
 41         8.6860644266e-03
 42        -5.8870377130e-03
 43         4.8256271992e-03
 44        -1.1201867188e-01
 45        -6.0641029349e-02
 46         6.8837782386e-02
 47        -8.5325089688e-02
 48        -1.3540501703e-02
 49         2.3651981870e-02
 50        -1.3160779364e-02
 51        -6.3435640709e-03
 52         3.0601390338e-03
 53        -1.4092714167e-03
 54        -1.4659095659e-03
 55         1.2939431859e-02
 56         4.4870006755e-03
 57         8.7805654956e-04
 58         9.7087137581e-02
 59         9.4118012770e-02
 60         1.6884037250e-02
 61        -2.6169543662e-03
 62        -5.2311472949e-03
 63         1.2863670760e-02
 64        -7.8949549310e-03
 65        -2.5389403171e-03
 66         7.2709605214e-04
 67         3.3709590846e-04
 68        -5.5987337605e-04
 69        -6.9128183106e-04
 70         2.4137549830e-03
 71         2.0820254413e-02
 72         3.7738578722e-03
 73        -3.1723313859e-04
 74        -1.0307885637e-02
 75        -4.9615900447e-04
 76        -5.9048643188e-02
 77        -2.6310302420e-04
 78         6.2992721631e-03
 79         7.7698048584e-03
 80        -3.6238065227e-03
 81        -6.8841831133e-02
 82        -2.9444112750e-03
 83         7.7848398294e-03
 84        -4.9261973019e-03
 85         6.6505765213e-03
 86        -2.7553802953e-02
 87         8.9582214134e-04
 88         1.8672430088e-04
 89        -5.0267534114e-03
 90        -3.2204146599e-04
 91        -7.8881256225e-02
 92        -7.5976315766e-03
 93        -1.2873718296e-02
 94        -1.4460084409e-03
 95         1.1824299723e-03
 96        -9.5397133340e-02
 97        -1.1883391643e-02
 98        -8.3005118265e-03
 99         1.0873766943e-02
100        -6.4466464220e-03
 Sym= A
 Ene=        -7.3169588665e-01
 Spin= Alpha
 Occup=         2.0000000000e+00
  1         1.6171534239e-02
  2        -2.2906904260e-01
  3        -1.2662804701e-01
  4         4.8925518947e-02
  5         9.4067754900e-03
  6         8.6303190286e-03
  7         2.8143420488e-04
  8         1.8089550811e-03
  9         3.1583664955e-03
 10         3.9596800586e-03
 11        -1.4416216611e-03
 12        -2.6772667579e-03
 13        -4.0470887567e-03
 14         1.1305378872e-03
 15         8.1347095257e-03
 16        -1.2214011806e-01
 17        -9.6709848086e-02
 18        -1.1567231501e-01
 19        -7.3970654675e-02
 20         1.3788393326e-03
 21        -5.0793846195e-02
 22        -1.2053363844e-02
 23        -4.7968543527e-03
 24         2.5437561830e-03
 25        -2.4937986649e-03
 26        -1.8699051259e-03
 27        -1.5783234441e-02
 28         2.1282628715e-03
 29        -1.3545748152e-02
 30         2.0413146434e-01
 31         1.3151416801e-01
 32         1.2327990615e-02
 33        -1.1277108910e-01
 34        -1.3861820998e-02
 35         1.9149752671e-02
 36        -3.0976096746e-02
 37        -1.4886978942e-03
 38        -3.2384179544e-03
 39        -4.3086587710e-04
 40         3.3103308019e-03
 41        -6.8695318958e-03
 42        -1.2218194026e-02
 43        -9.7989735582e-03
 44         2.4937841093e-01
 45         1.4178736582e-01
 46        -7.6481270413e-02
 47         5.5650651228e-02
 48         1.2907760765e-02
 49        -2.3980563375e-02
 50         1.0700315322e-02
 51         2.5169426040e-03