[Molden Format]
[Atoms] (AU)
C    1    6           2.0218793672         2.7116095427        -0.2153125063
C    2    6          -0.7887723389         2.3848781633        -0.1071329989
C    3    6          -2.0866093132         0.1912434289         0.0121780915
C    4    6          -0.9231087550        -2.3410024483         0.0704719095
O    5    8           1.3374669196        -2.7650504146         0.2199616993
H    6    1           2.9459225614         1.1828472611        -1.2712381749
H    7    1           2.5273469207         4.5664802178        -1.0089786951
H    8    1           2.8153850616         2.6201631066         1.7155037484
H    9    1          -2.3010723281        -3.9478739704        -0.0290617419
H   10    1          -4.1547829381         0.2438339589         0.0622186251
H   11    1          -1.9055665773         4.1317124021        -0.1041915646
[GTO]
  1 0
 s    8  1.00
     6665.0000000000         0.0006920000
     1000.0000000000         0.0053290000
      228.0000000000         0.0270770000
       64.7100000000         0.1017180000
       21.0600000000         0.2747400000
        7.4950000000         0.4485640000
        2.7970000000         0.2850740000
        0.5215000000         0.0152040000
 s    8  1.00
     6665.0000000000        -0.0001460000
     1000.0000000000        -0.0011540000
      228.0000000000        -0.0057250000
       64.7100000000        -0.0233120000
       21.0600000000        -0.0639550000
        7.4950000000        -0.1499810000
        2.7970000000        -0.1272620000
        0.5215000000         0.5445290000
 s    1  1.00
        0.1596000000         1.0000000000
 p    3  1.00
        9.4390000000         0.0381090000
        2.0020000000         0.2094800000
        0.5456000000         0.5085570000
 p    1  1.00
        0.1517000000         1.0000000000
 d    1  1.00
        0.5500000000         1.0000000000

  2 0
 s    8  1.00
     6665.0000000000         0.0006920000
     1000.0000000000         0.0053290000
      228.0000000000         0.0270770000
       64.7100000000         0.1017180000
       21.0600000000         0.2747400000
        7.4950000000         0.4485640000
        2.7970000000         0.2850740000
        0.5215000000         0.0152040000
 s    8  1.00
     6665.0000000000        -0.0001460000
     1000.0000000000        -0.0011540000
      228.0000000000        -0.0057250000
       64.7100000000        -0.0233120000
       21.0600000000        -0.0639550000
        7.4950000000        -0.1499810000
        2.7970000000        -0.1272620000
        0.5215000000         0.5445290000
 s    1  1.00
        0.1596000000         1.0000000000
 p    3  1.00
        9.4390000000         0.0381090000
        2.0020000000         0.2094800000
        0.5456000000         0.5085570000
 p    1  1.00
        0.1517000000         1.0000000000
 d    1  1.00
        0.5500000000         1.0000000000

  3 0
 s    8  1.00
     6665.0000000000         0.0006920000
     1000.0000000000         0.0053290000
      228.0000000000         0.0270770000
       64.7100000000         0.1017180000
       21.0600000000         0.2747400000
        7.4950000000         0.4485640000
        2.7970000000         0.2850740000
        0.5215000000         0.0152040000
 s    8  1.00
     6665.0000000000        -0.0001460000
     1000.0000000000        -0.0011540000
      228.0000000000        -0.0057250000
       64.7100000000        -0.0233120000
       21.0600000000        -0.0639550000
        7.4950000000        -0.1499810000
        2.7970000000        -0.1272620000
        0.5215000000         0.5445290000
 s    1  1.00
        0.1596000000         1.0000000000
 p    3  1.00
        9.4390000000         0.0381090000
        2.0020000000         0.2094800000
        0.5456000000         0.5085570000
 p    1  1.00
        0.1517000000         1.0000000000
 d    1  1.00
        0.5500000000         1.0000000000

  4 0
 s    8  1.00
     6665.0000000000         0.0006920000
     1000.0000000000         0.0053290000
      228.0000000000         0.0270770000
       64.7100000000         0.1017180000
       21.0600000000         0.2747400000
        7.4950000000         0.4485640000
        2.7970000000         0.2850740000
        0.5215000000         0.0152040000
 s    8  1.00
     6665.0000000000        -0.0001460000
     1000.0000000000        -0.0011540000
      228.0000000000        -0.0057250000
       64.7100000000        -0.0233120000
       21.0600000000        -0.0639550000
        7.4950000000        -0.1499810000
        2.7970000000        -0.1272620000
        0.5215000000         0.5445290000
 s    1  1.00
        0.1596000000         1.0000000000
 p    3  1.00
        9.4390000000         0.0381090000
        2.0020000000         0.2094800000
        0.5456000000         0.5085570000
 p    1  1.00
        0.1517000000         1.0000000000
 d    1  1.00
        0.5500000000         1.0000000000

  5 0
 s    8  1.00
    11720.0000000000         0.0007100000
     1759.0000000000         0.0054700000
      400.8000000000         0.0278370000
      113.7000000000         0.1048000000
       37.0300000000         0.2830620000
       13.2700000000         0.4487190000
        5.0250000000         0.2709520000
        1.0130000000         0.0154580000
 s    8  1.00
    11720.0000000000        -0.0001600000
     1759.0000000000        -0.0012630000
      400.8000000000        -0.0062670000
      113.7000000000        -0.0257160000
       37.0300000000        -0.0709240000
       13.2700000000        -0.1654110000
        5.0250000000        -0.1169550000
        1.0130000000         0.5573680000
 s    1  1.00
        0.3023000000         1.0000000000
 p    3  1.00
       17.7000000000         0.0430180000
        3.8540000000         0.2289130000
        1.0460000000         0.5087280000
 p    1  1.00
        0.2753000000         1.0000000000
 d    1  1.00
        1.1850000000         1.0000000000

  6 0
 s    3  1.00
       13.0100000000         0.0196850000
        1.9620000000         0.1379770000
        0.4446000000         0.4781480000
 s    1  1.00
        0.1220000000         1.0000000000
 p    1  1.00
        0.7270000000         1.0000000000

  7 0
 s    3  1.00
       13.0100000000         0.0196850000
        1.9620000000         0.1379770000
        0.4446000000         0.4781480000
 s    1  1.00
        0.1220000000         1.0000000000
 p    1  1.00
        0.7270000000         1.0000000000

  8 0
 s    3  1.00
       13.0100000000         0.0196850000
        1.9620000000         0.1379770000
        0.4446000000         0.4781480000
 s    1  1.00
        0.1220000000         1.0000000000
 p    1  1.00
        0.7270000000         1.0000000000

  9 0
 s    3  1.00
       13.0100000000         0.0196850000
        1.9620000000         0.1379770000
        0.4446000000         0.4781480000
 s    1  1.00
        0.1220000000         1.0000000000
 p    1  1.00
        0.7270000000         1.0000000000

  10 0
 s    3  1.00
       13.0100000000         0.0196850000
        1.9620000000         0.1379770000
        0.4446000000         0.4781480000
 s    1  1.00
        0.1220000000         1.0000000000
 p    1  1.00
        0.7270000000         1.0000000000

  11 0
 s    3  1.00
       13.0100000000         0.0196850000
        1.9620000000         0.1379770000
        0.4446000000         0.4781480000
 s    1  1.00
        0.1220000000         1.0000000000
 p    1  1.00
        0.7270000000         1.0000000000

[5D7F]
[9G]

[MO]
 Sym= A
 Ene=        -1.9134727790e+01
 Spin= Alpha
 Occup=         2.0000000000e+00
  1        -4.3801798439e-05
  2        -9.8765241923e-05
  3        -3.1098811120e-05
  4         6.5071079287e-05
  5         2.2768627699e-05
  6         1.4909044689e-05
  7        -9.4141583877e-07
  8         8.3461425320e-05
  9         1.8652590683e-04
 10         5.1182065198e-05
 11         2.7026782457e-05
 12         5.9593386266e-05
 13         5.8356670742e-05
 14        -1.0517339714e-04
 15        -2.3032532481e-04
 16        -4.0883790758e-04
 17         5.9083586918e-03
 18        -1.8919939876e-05
 19        -1.0368346810e-05
 20        -2.1570022724e-05
 21        -1.1124833223e-03
 22        -2.6090287111e-03
 23         1.9143066061e-04
 24        -4.4006834079e-05
 25        -9.1750194000e-06
 26         4.1153906662e-07
 27        -4.3929356717e-05
 28        -3.8848412039e-05
 29         2.2556571916e-04
 30         3.4697440222e-04
 31        -4.6245489188e-03
 32         2.0138091003e-05
 33         2.9219899428e-04
 34        -1.7032945652e-05
 35        -4.8264581866e-03
 36        -3.6354100171e-03
 37         4.7995220001e-05
 38         1.4568269144e-04
 39        -5.3364015786e-06
 40         5.6978922708e-05
 41        -3.2357712611e-04
 42         5.1297976283e-04
 43         4.4165227947e-04
 44         5.7670473879e-04
 45         5.4877985167e-03
 46        -1.1009038881e-04
 47        -1.7219439818e-04
 48        -6.9533179616e-06
 49         6.7016229514e-03
 50         6.4371962469e-04
 51         3.6103473131e-04
 52        -4.3215474779e-05
 53        -5.4194982288e-05
 54         2.7455820598e-05
 55        -1.1482684710e-03
 56         5.3009208013e-04
 57         1.0041709993e+00
 58         9.4720228986e-03
 59        -1.5167327521e-02
 60        -1.8281206832e-03
 61         3.6557655647e-04
 62        -1.3735054284e-04
 63         3.5004914964e-03
 64        -8.7118167481e-04
 65         2.5385514994e-04
 66        -2.0758607926e-05
 67         8.3323030349e-06
 68        -3.3569903974e-08
 69         6.5753827953e-05
 70         7.9287974373e-06
 71        -8.1223537503e-05
 72        -2.5213302468e-05
 73         5.5271482595e-05
 74         4.0752073886e-05
 75        -5.8123901867e-06
 76         1.0586896656e-04
 77         2.7778957874e-04
 78        -6.5957813019e-05
 79        -7.9904892833e-05
 80         2.7518401306e-05
 81        -5.4610472535e-05
 82        -2.3555954179e-04
 83         5.5856069153e-05
 84         3.5677175059e-05
 85         4.2961137868e-05
 86        -1.2575017628e-04
 87         9.6982665389e-04
 88        -7.6255573160e-04
 89         1.2142993763e-04
 90        -4.2352613377e-05
 91        -2.6957545819e-04
 92        -1.3641250591e-03
 93         1.8944083767e-04
 94         2.6151170262e-04
 95         1.0940369214e-05
 96        -1.7436292181e-04
 97         2.9806924083e-04
 98         5.7726357225e-05
 99         8.9647886044e-05
100        -1.1857321801e-05
 Sym= A
 Ene=        -1.0272799026e+01
 Spin= Alpha
 Occup=         2.0000000000e+00
  1        -3.3137036961e-04
  2        -4.2634099171e-04
  3         8.3491493667e-04
  4         2.9747568493e-04
  5         5.5669384098e-05
  6        -1.0487734685e-05
  7        -5.8143434559e-04
  8         2.9149607167e-04
  9         1.1543078372e-04
 10         1.7974342168e-05
 11        -1.2185486582e-05
 12         3.4113510723e-05
 13        -1.2663756242e-04
 14        -7.8814055399e-05
 15        -4.2592772136e-04
 16        -6.3011561192e-04
 17         7.0383266811e-03
 18        -2.6927601405e-04
 19        -2.7941795845e-05
 20         1.2101658999e-05
 21        -2.4024272961e-03
 22        -4.1341576429e-03
 23         2.3232495321e-04
 24        -4.4427635934e-04
 25        -7.4563070504e-05
 26        -4.6938917097e-05
 27         3.3874043955e-04
 28         3.9014810460e-04
 29         1.6292796063e-03
 30        -2.3528113122e-04
 31        -2.4611272150e-03
 32        -3.3944286277e-04
 33         7.4744840127e-04
 34        -1.2594171302e-05
 35        -2.8182233462e-03
 36        -6.3038258126e-03
 37         2.2495802221e-04
 38         1.0583387306e-03
 39        -4.6769082772e-05
 40         6.4107450739e-05
 41         1.1793414262e-03
 42         8.0162737133e-04
 43         1.0059259077e+00
 44         1.5250170979e-02
 45        -1.0837108607e-02
 46         7.1638751033e-04
 47        -4.9264375708e-04
 48         5.3153903892e-05
 49         5.4633935000e-03
 50        -2.1153192782e-03
 51         2.5093246484e-04
 52        -1.6419214832e-03
 53         2.6342789938e-04
 54         9.3445767160e-06
 55         8.1495865292e-04
 56         2.9519751391e-05
 57         3.6801473222e-04
 58         9.1500276073e-04
 59        -5.9502212634e-03
 60         7.3430961917e-04
 61        -2.2295734854e-04
 62         3.9157010456e-05
 63         3.3784169106e-03
 64        -2.4295179644e-04
 65         2.5754565912e-04
 66         5.5903728961e-04
 67        -1.0967263812e-04
 68         1.6399764584e-05
 69        -7.0553226060e-04
 70         2.7278051207e-04
 71        -7.5024059524e-05
 72         7.3845983447e-05
 73         7.8227166619e-05
 74         3.1770455193e-05
 75        -1.5047224777e-05
 76        -4.1867022269e-05
 77         2.6533607055e-04
 78        -5.8996828142e-05
 79        -4.6317756383e-05
 80        -2.8171908028e-06
 81        -4.9427856042e-05
 82        -6.1364973477e-05
 83         8.3105214834e-05
 84         2.0494261077e-05
 85        -2.3993380854e-05
 86        -1.6498349342e-03
 87         2.4987460728e-03
 88        -1.4644249244e-03
 89        -1.4444993604e-03
 90        -9.5063431529e-05
 91        -4.8337991272e-04
 92        -4.6554130643e-04
 93         6.7323025024e-05
 94         3.2694732938e-04
 95        -1.6714655640e-05
 96        -3.3800830448e-05
 97         6.5510040987e-04
 98         2.4034138802e-04
 99         1.0840707479e-04
100        -1.1640002849e-05
 Sym= A
 Ene=        -1.0222715208e+01
 Spin= Alpha
 Occup=         2.0000000000e+00
  1         3.3297244601e-03
  2        -4.5821015375e-04
  3         4.3624483916e-03
  4         7.4720159773e-04
  5         9.5413761621e-05
  6         5.7823851675e-05
  7        -2.3111682868e-03
  8        -1.1075652651e-03
  9        -4.9311947591e-04
 10         7.9643156722e-04
 11         1.2555376569e-04
 12        -6.5981469933e-06
 13        -1.0414959066e-03
 14        -2.3455646327e-06
 15         1.0062836893e+00
 16         1.6068629287e-02
 17        -1.9784715289e-02
 18        -5.4923383767e-04
 19         2.3536451020e-04
 20         3.6001136967e-05
 21        -2.1557961867e-03
 22         3.5728364061e-03
 23         5.7671691551e-05
 24        -1.0929359482e-03
 25        -2.3528153621e-06
 26        -4.0171896416e-05
 27        -5.1784573804e-04
 28        -2.1998361715e-04
 29         1.3061330350e-02
 30        -1.3034719683e-03
 31         4.6589695835e-03
 32        -7.8231074602e-04
 33        -1.1073699447e-03
 34         7.7187898153e-05
 35         2.6703429690e-03
 36         2.3237369143e-03
 37        -2.2294818675e-04
 38         8.9160060538e-04
 39         7.2085995665e-05
 40         1.1363390063e-04
 41         5.7488999030e-04
 42        -9.7587421407e-04
 43        -2.6104372974e-04
 44        -5.0914376187e-04
 45         1.0372241160e-03
 46        -4.1236671613e-05
 47        -2.0611824475e-04
 48         1.1240822943e-05
 49        -1.7277932413e-04
 50         1.0400820778e-03
 51         1.9290916720e-05
 52        -3.4278625939e-04
 53        -7.7219282367e-06
 54        -9.0871933262e-06
 55         1.9288005446e-04
 56        -1.0238982487e-04
 57        -3.2549040178e-05
 58        -7.1902127024e-05
 59        -2.5091229502e-04
 60         1.2480074519e-04
 61        -2.4774858030e-06
 62         1.7486958219e-05
 63        -4.2657853489e-05
 64        -2.5914450525e-04
 65        -6.2824776895e-07
 66         1.1516527335e-05
 67        -1.4327743252e-05
 68         4.2304021286e-06
 69        -1.2082469140e-05
 70         1.3975778176e-05
 71        -4.3140049300e-04
 72         1.2691415465e-04
 73        -2.5605046266e-05
 74         3.6840751151e-05
 75         7.8228335292e-05
 76        -3.5296691971e-04
 77         2.9433691596e-04
 78         7.3817518133e-05
 79         8.3045470650e-05
 80         6.4926068447e-05
 81        -4.7604144602e-04
 82         1.1996265681e-03
 83        -1.2783589198e-04
 84         1.7645954180e-05
 85         1.8142826504e-05
 86        -2.0536498443e-05
 87         4.1763359261e-04
 88         5.4476665720e-05
 89        -5.2511391469e-05
 90        -7.3597922552e-06
 91         9.6981311022e-05
 92         9.2471550075e-04
 93         1.2235019984e-04
 94        -2.3038318581e-04
 95         1.5084221110e-05
 96        -2.3331872395e-03
 97         1.2081630164e-03
 98        -1.2081678069e-03
 99         1.7743149030e-03
100         9.7633031500e-06
 Sym= A
 Ene=        -1.0197395823e+01
 Spin= Alpha
 Occup=         2.0000000000e+00
  1         1.6694088818e-03
  2         3.9595271150e-04
  3         7.6780362178e-06
  4        -8.3286632668e-05
  5        -1.1177213551e-04
  6         7.9280229070e-05
  7         7.1055907668e-04
  8        -1.9034140781e-04
  9        -1.2347917836e-04
 10         3.1468125476e-04
 11         7.5956309923e-05
 12        -2.3573642983e-05
 13        -8.6033631452e-05
 14         2.1976396790e-04
 15         1.4596433090e-02
 16         1.8079809626e-03
 17        -6.8300971148e-03
 18        -6.1085110556e-04
 19        -1.2148650700e-03
 20         6.6346867729e-05
 21         5.8111418112e-04
 22         4.1963268146e-03
 23        -1.3599246799e-04
 24        -9.3270548155e-04
 25        -4.5594537788e-05
 26        -9.6842443554e-05
 27        -5.1096988390e-04
 28         1.0308123923e-03
 29        -1.0064847763e+00
 30        -1.6553254946e-02
 31         2.1579357648e-02
 32         3.2436090347e-04
 33        -3.0692354160e-04
 34         3.2071837992e-05
 35         5.5832563767e-03
 36         3.5710101096e-04
 37        -1.7647360566e-04
 38         1.0884702945e-03
 39         7.9999777623e-05
 40         6.8069428726e-05
 41        -3.7401545921e-04
 42        -3.9068668305e-04
 43         1.9496220802e-03
 44         8.1045385585e-04
 45        -5.7869422196e-03
 46        -2.5302880985e-04
 47         7.4769230660e-04
 48        -3.2413081642e-08
 49        -6.8715277342e-04
 50        -3.5122997665e-03
 51         4.7808866012e-05
 52        -6.9204295171e-04
 53        -3.1876305808e-05
 54        -6.4228356245e-05
 55        -6.3953797956e-04
 56        -1.1891285804e-03
 57        -4.5599379753e-05
 58        -7.9154654036e-05
 59         9.2908974069e-04
 60        -2.6511398658e-05
 61         7.4706228445e-05
 62         2.2095206993e-05
 63         9.6950531075e-05
 64         5.9934193731e-04
 65        -4.7025466323e-05
 66         1.3198245387e-04
 67        -3.3179411186e-05
 68        -1.6431207653e-05
 69        -7.4601749213e-05
 70        -2.1796261736e-04
 71         1.6500551132e-04
 72        -3.9154843840e-04
 73        -2.5596207162e-05
 74        -4.1554394964e-05
 75         5.6767811933e-05
 76        -4.9774573391e-05
 77        -2.0617543997e-04
 78        -3.5057711366e-05
 79         6.9234031308e-05
 80         1.4054313066e-05
 81        -5.1636926512e-05
 82        -1.2578332613e-04
 83        -4.9898839075e-05
 84        -6.0569532746e-05
 85         1.3935236448e-04
 86         2.4621786462e-04
 87        -1.0071068783e-03
 88        -7.4085946654e-05
 89         2.0512521142e-04
 90        -2.2752567120e-05
 91         2.4473125929e-03
 92        -7.7489575735e-04
 93         2.1385829888e-03
 94        -1.7189397523e-04
 95        -4.4405611973e-05
 96        -9.8102214098e-05
 97        -1.0140917215e-03
 98        -2.6045645210e-04
 99         2.8805050608e-05
100         1.2269269549e-05
 Sym= A
 Ene=        -1.0192392390e+01
 Spin= Alpha
 Occup=         2.0000000000e+00
  1         1.0069824903e+00
  2         1.7419687851e-02
  3        -1.9448811330e-02
  4         4.5215087007e-04
  5         1.3151964752e-04
  6         1.3701667986e-04
  7         2.9370370339e-03
  8         1.8981318686e-04
  9        -5.5005014693e-04
 10         2.1991412440e-04
 11         3.1622611508e-05
 12        -5.4380056166e-05
 13        -5.8713752787e-04
 14        -1.4435589431e-04
 15        -3.5780404707e-03
 16        -3.0363860728e-04
 17         1.8215577360e-03
 18        -4.9596026084e-04
 19         5.8393598998e-05
 20         2.4221610792e-05
 21         4.5164529698e-03
 22         2.3522453687e-03
 23        -1.6601416091e-04
 24         6.1477715498e-04
 25         1.2598738430e-04
 26         2.1871380910e-05
 27        -1.3410978976e-03
 28        -5.7679255428e-04
 29         1.1032273149e-03
 30        -5.3474777275e-04
 31         3.4823824092e-03
 32        -1.9269224252e-04
 33         9.1808149340e-05
 34         1.0798485257e-05
 35         9.1916621761e-04
 36         2.6707074782e-03
 37        -1.6468974302e-04
 38        -3.4590566833e-04
 39         7.5970756289e-06
 40        -2.4543802535e-05
 41        -5.6387793441e-04
 42        -2.0582749007e-04
 43        -1.0323668470e-04
 44        -4.6137574945e-04
 45         6.5905036274e-04
 46        -3.2754003330e-05
 47        -2.7446427512e-04
 48        -8.6632563359e-06
 49        -1.1378671244e-04
 50         5.3180107236e-04
 51         3.9869526995e-05
 52        -1.5379417674e-05
 53        -2.2383405290e-05
 54         3.8166836122e-06
 55         4.2315523836e-05
 56         3.7157135223e-05
 57        -7.2476340564e-05
 58        -1.4466410917e-04
 59         1.6309358852e-04
 60         8.7309576154e-06
 61        -1.1545253268e-04
 62        -1.0245428238e-05
 63        -1.0902624862e-04
 64         2.2216296737e-04
 65         4.1130011410e-05
 66        -4.3165373927e-05
 67         1.5192715488e-06
 68         1.7147450968e-06
 69         1.6541642814e-06
 70        -4.5702781986e-07
 71        -1.2335830447e-03
 72         1.9174206673e-03
 73         6.9994810501e-04
 74        -1.4456551462e-03
 75        -1.0039820372e-03
 76        -1.3434590457e-03
 77         1.9268905948e-03
 78         4.3679059438e-04
 79         1.8040904208e-03
 80        -7.5705181049e-04
 81        -1.0945080255e-03
 82         2.3408280622e-03
 83         5.5758445631e-04
 84        -9.5429427951e-05
 85         1.8139655618e-03
 86         1.6534643673e-05
 87         3.8930381362e-04
 88         6.6367083948e-06
 89         6.9271007624e-05
 90        -7.5722360417e-06
 91         5.6150858144e-05
 92         3.6708154362e-04
 93         9.6875256286e-05
 94        -2.0598671235e-04
 95         1.0008142062e-05
 96        -4.3420831478e-04
 97         2.4121558497e-04
 98        -3.6861797735e-04
 99        -1.1463770189e-04
100         2.0151821605e-05
 Sym= A
 Ene=        -1.0387447255e+00
 Spin= Alpha
 Occup=         2.0000000000e+00
  1        -4.8248290550e-04
  2         6.3760009120e-03
  3         5.7095607468e-03
  4        -3.0640415250e-03
  5        -3.0559408684e-03
  6        -3.1245082872e-05
  7        -3.0573513665e-03
  8        -2.5793307044e-03
  9         1.0016818549e-03
 10        -6.1459036637e-04
 11        -1.9969220038e-04
 12        -2.2522276117e-04
 13         1.8356538059e-04
 14         9.2183879841e-04
 15         5.9958767352e-04
 16         1.6602185590e-02
 17        -1.3254716574e-02
 18        -1.7044499934e-04
 19        -1.0588404545e-02
 20         5.6273116244e-04
 21        -2.2066216819e-03
 22         1.0074745319e-02
 23        -5.8470269945e-04
 24        -4.4734066324e-04
 25        -1.1766045449e-04
 26        -2.5869918786e-04
 27        -1.6797652067e-03
 28         7.3647073201e-04
 29        -3.6342979097e-03
 30         3.6831176145e-02
 31         3.2854126953e-02
 32         2.0840625407e-02
 33        -2.0595357988e-02
 34         9.2133876810e-04
 35         2.0177446891e-02
 36         1.3959554747e-03
 37        -1.4981768090e-04
 38        -3.7929628063e-03
 39         2.3625433710e-04
 40        -5.8097558099e-04
 41        -1.0767868198e-03
 42        -9.0469102226e-03
 43        -1.4591033427e-02
 44         2.2488014520e-01
 45         9.4453566336e-02
 46         1.8417032768e-01
 47        -2.6043392973e-02
 48         1.2118208306e-02
 49         1.2061261506e-02
 50        -3.0823154689e-03
 51         1.0836951386e-03
 52        -1.3447745640e-02
 53         3.4671212233e-03
 54        -1.0436720237e-03
 55         3.0967500305e-02
 56        -1.4201771094e-02
 57        -9.1185090459e-03
 58         4.0222861485e-01
 59         3.6033072142e-01
 60        -1.5491268383e-01
 61         3.2140037587e-02
 62        -1.0654672435e-02
 63        -3.1645216716e-02
 64         7.2695204835e-03
 65        -2.5813896526e-03
 66        -5.2167451546e-03
 67         1.3842574293e-03
 68        -5.0283773805e-04
 69         1.2062955038e-02
 70        -5.1994442931e-03
 71         4.9268379347e-03
 72         2.9229765347e-03
 73        -6.4081311164e-04
 74        -4.8660186571e-04
 75         5.8847189782e-04
 76         9.7931656588e-04
 77         5.2227972632e-05
 78         2.6344507486e-05
 79         1.3262678987e-05
 80        -4.1027846464e-05
 81         1.8182998253e-03
 82         8.3791041027e-04
 83        -2.6614755508e-04
 84        -1.8909474923e-04
 85        -4.3851769507e-04
 86         3.9542424770e-02
 87        -3.6104375641e-03
 88         1.0186826215e-02
 89         5.8904442749e-03
 90         6.6622242341e-04
 91         7.2179001382e-03
 92         6.0344257571e-03
 93         9.6067810752e-04
 94        -1.9536905043e-03
 95        -1.5597943414e-05
 96         1.8014621036e-03
 97        -3.2954718292e-03
 98        -2.2704214198e-04
 99        -8.3635575452e-04
100         6.7602924165e-05
 Sym= A
 Ene=        -8.0918231849e-01
 Spin= Alpha
 Occup=         2.0000000000e+00
  1         1.0974142628e-02
  2        -1.8103632483e-01
  3        -7.4825470698e-02
  4         6.5474994672e-02
  5         1.3010754566e-02
  6        -4.7923528970e-03
  7         3.0366193573e-03
  8        -8.4603829105e-03
  9         1.0471818106e-03
 10         5.6237007074e-03
 11         8.2857834056e-04
 12         3.3316399363e-05
 13        -9.7811269523e-03
 14        -3.6276144484e-03
 15         1.9807547099e-02
 16        -2.9149920355e-01
 17        -2.0125015069e-01
 18        -4.0827545167e-04
 19         6.6032577545e-02
 20        -2.6096489501e-03
 21        -3.2484943157e-02
 22         2.0987502620e-02
 23         9.3667646266e-05
 24         9.9760915143e-03
 25         8.4456241557e-04
 26         8.5356222397e-04
 27        -2.6887811318e-03
 28        -1.1374941069e-02
 29         1.7104025197e-02
 30        -2.5439469760e-01
 31        -1.4200451254e-01
 32        -5.8218412608e-02
 33        -5.7638062747e-02
 34         4.5417387559e-03
 35        -3.0060471363e-03
 36        -2.4048644153e-02
 37         1.1744111792e-03
 38         6.9308469439e-03
 39         6.4199810311e-04
 40         8.7581497799e-04
 41         8.7484123940e-03
 42        -9.1719795557e-03
 43         2.4565030332e-03
 44        -6.3971462263e-02
 45        -5.1676769767e-02
 46         6.9014962394e-02
 47        -8.0432230814e-02
 48         5.2558431750e-03
 49         2.5085788870e-02
 50        -2.2472100788e-02
 51         1.3895543920e-03
 52         2.6484744580e-03
 53         6.5599774951e-04
 54         3.1679799514e-04
 55         1.3572193351e-02
 56         2.6482285311e-03
 57        -3.3537531815e-04
 58         7.5281941528e-02
 59         7.1710008002e-02
 60        -1.1394724221e-02
 61        -1.6162891721e-02
 62        -2.2506595062e-04
 63         1.6459836314e-03
 64        -6.6984332895e-03
 65         5.6668724749e-04
 66         1.8447247389e-04
 67         6.3578736233e-05
 68         1.7636624108e-04
 69         1.6066252408e-03
 70         1.5827572636e-03
 71        -6.6903555973e-02
 72        -3.3308909464e-03
 73         5.1006311315e-03
 74        -7.2296166087e-03
 75        -5.2848449501e-03
 76        -6.2826094664e-02
 77        -1.4905512695e-03
 78         4.0701182542e-03
 79         8.7425866824e-03
 80        -3.6954250285e-03
 81        -6.7565304708e-02
 82        -3.5959583137e-03
 83         4.7050349423e-03
 84         2.8453082000e-04
 85         9.0101880593e-03
 86        -1.8066120739e-02
 87         9.8231047983e-04
 88         2.5452572772e-05
 89        -3.3844720608e-03
 90         3.6146319629e-05
 91        -8.4500213680e-02
 92        -2.4841279983e-03
 93        -1.4406587961e-02
 94        -1.4462994332e-03
 95         4.6411078568e-04
 96        -1.0215237191e-01
 97        -1.2862532968e-02
 98        -7.1188693214e-03
 99         1.4286009641e-02
100        -2.7794545195e-05
 Sym= A
 Ene=        -7.1808730399e-01
 Spin= Alpha
 Occup=         2.0000000000e+00
  1         1.4022346877e-02
  2        -2.8728815743e-01
  3        -1.1943834157e-01
  4         1.9165450813e-02
  5        -1.0736671015e-02
  6        -4.8271806919e-03
  7        -1.7485055648e-02
  8        -8.5006554303e-03
  9         4.5578288512e-04
 10         1.4594460342e-03
 11         1.8840741359e-04
 12        -1.7993328272e-04
 13        -3.0893912872e-03
 14         2.2052361224e-03
 15         5.2899715570e-03
 16        -4.8312505283e-02
 17        -8.4595070923e-02
 18        -1.3892627888e-01
 19        -9.4968230520e-02
 20         6.9318889336e-03
 21        -9.3987192950e-02
 22        -9.1062562812e-03
 23         2.9063662837e-03
 24         3.8569723334e-03
 25         5.4833143896e-04
 26        -3.8278049096e-04
 27        -1.7124669289e-02
 28         3.0827041921e-03
 29        -1.3974687026e-02
 30         2.2817590789e-01
 31         1.6643743722e-01
 32        -5.8981174223e-03
 33        -5.4608198843e-02
 34         1.0506841247e-03
 35         3.6415202604e-02
 36        -4.0809537277e-02
 37         1.4554210156e-04
 38        -4.8187997202e-03
 39         1.4951963964e-04
 40        -3.3253786222e-04
 41        -1.0034328021e-02
 42        -4.9096135930e-03
 43        -3.0640793043e-03
 44         1.5159014190e-01
 45         6.1384804882e-02
 46        -1.0672002701e-01
 47         7.9039667283e-02
 48        -5.4078084283e-03
 49        -3.7331344825e-02
 50         7.8397478617e-03
 51        -1.7743818976e-03