[Molden Format]
[Atoms] (AU)
C    1    6           1.6437130996         3.0055585138         0.3026662008
C    2    6          -0.7916992614         2.4105953074        -0.1687869627
C    3    6          -2.0441273453        -0.0086254833         0.2922106296
C    4    6          -0.8899436660        -2.2828203952         0.1024382094
O    5    8           1.5795955047        -2.6793075374        -0.4086843684
H    6    1           2.3560719510        -1.0294795924        -0.6999772980
H    7    1           2.4292571699         4.8269617235        -0.2671864949
H    8    1           2.9023641083         1.7479070379         1.3586197051
H    9    1          -1.9187485711        -4.0655656854         0.2641983689
H   10    1          -4.0821181889        -0.0159465657         0.6250852630
H   11    1          -1.9654553444         3.8533158642        -1.0877153107
[GTO]
  1 0
 s    8  1.00
     6665.0000000000         0.0006920000
     1000.0000000000         0.0053290000
      228.0000000000         0.0270770000
       64.7100000000         0.1017180000
       21.0600000000         0.2747400000
        7.4950000000         0.4485640000
        2.7970000000         0.2850740000
        0.5215000000         0.0152040000
 s    8  1.00
     6665.0000000000        -0.0001460000
     1000.0000000000        -0.0011540000
      228.0000000000        -0.0057250000
       64.7100000000        -0.0233120000
       21.0600000000        -0.0639550000
        7.4950000000        -0.1499810000
        2.7970000000        -0.1272620000
        0.5215000000         0.5445290000
 s    1  1.00
        0.1596000000         1.0000000000
 p    3  1.00
        9.4390000000         0.0381090000
        2.0020000000         0.2094800000
        0.5456000000         0.5085570000
 p    1  1.00
        0.1517000000         1.0000000000
 d    1  1.00
        0.5500000000         1.0000000000

  2 0
 s    8  1.00
     6665.0000000000         0.0006920000
     1000.0000000000         0.0053290000
      228.0000000000         0.0270770000
       64.7100000000         0.1017180000
       21.0600000000         0.2747400000
        7.4950000000         0.4485640000
        2.7970000000         0.2850740000
        0.5215000000         0.0152040000
 s    8  1.00
     6665.0000000000        -0.0001460000
     1000.0000000000        -0.0011540000
      228.0000000000        -0.0057250000
       64.7100000000        -0.0233120000
       21.0600000000        -0.0639550000
        7.4950000000        -0.1499810000
        2.7970000000        -0.1272620000
        0.5215000000         0.5445290000
 s    1  1.00
        0.1596000000         1.0000000000
 p    3  1.00
        9.4390000000         0.0381090000
        2.0020000000         0.2094800000
        0.5456000000         0.5085570000
 p    1  1.00
        0.1517000000         1.0000000000
 d    1  1.00
        0.5500000000         1.0000000000

  3 0
 s    8  1.00
     6665.0000000000         0.0006920000
     1000.0000000000         0.0053290000
      228.0000000000         0.0270770000
       64.7100000000         0.1017180000
       21.0600000000         0.2747400000
        7.4950000000         0.4485640000
        2.7970000000         0.2850740000
        0.5215000000         0.0152040000
 s    8  1.00
     6665.0000000000        -0.0001460000
     1000.0000000000        -0.0011540000
      228.0000000000        -0.0057250000
       64.7100000000        -0.0233120000
       21.0600000000        -0.0639550000
        7.4950000000        -0.1499810000
        2.7970000000        -0.1272620000
        0.5215000000         0.5445290000
 s    1  1.00
        0.1596000000         1.0000000000
 p    3  1.00
        9.4390000000         0.0381090000
        2.0020000000         0.2094800000
        0.5456000000         0.5085570000
 p    1  1.00
        0.1517000000         1.0000000000
 d    1  1.00
        0.5500000000         1.0000000000

  4 0
 s    8  1.00
     6665.0000000000         0.0006920000
     1000.0000000000         0.0053290000
      228.0000000000         0.0270770000
       64.7100000000         0.1017180000
       21.0600000000         0.2747400000
        7.4950000000         0.4485640000
        2.7970000000         0.2850740000
        0.5215000000         0.0152040000
 s    8  1.00
     6665.0000000000        -0.0001460000
     1000.0000000000        -0.0011540000
      228.0000000000        -0.0057250000
       64.7100000000        -0.0233120000
       21.0600000000        -0.0639550000
        7.4950000000        -0.1499810000
        2.7970000000        -0.1272620000
        0.5215000000         0.5445290000
 s    1  1.00
        0.1596000000         1.0000000000
 p    3  1.00
        9.4390000000         0.0381090000
        2.0020000000         0.2094800000
        0.5456000000         0.5085570000
 p    1  1.00
        0.1517000000         1.0000000000
 d    1  1.00
        0.5500000000         1.0000000000

  5 0
 s    8  1.00
    11720.0000000000         0.0007100000
     1759.0000000000         0.0054700000
      400.8000000000         0.0278370000
      113.7000000000         0.1048000000
       37.0300000000         0.2830620000
       13.2700000000         0.4487190000
        5.0250000000         0.2709520000
        1.0130000000         0.0154580000
 s    8  1.00
    11720.0000000000        -0.0001600000
     1759.0000000000        -0.0012630000
      400.8000000000        -0.0062670000
      113.7000000000        -0.0257160000
       37.0300000000        -0.0709240000
       13.2700000000        -0.1654110000
        5.0250000000        -0.1169550000
        1.0130000000         0.5573680000
 s    1  1.00
        0.3023000000         1.0000000000
 p    3  1.00
       17.7000000000         0.0430180000
        3.8540000000         0.2289130000
        1.0460000000         0.5087280000
 p    1  1.00
        0.2753000000         1.0000000000
 d    1  1.00
        1.1850000000         1.0000000000

  6 0
 s    3  1.00
       13.0100000000         0.0196850000
        1.9620000000         0.1379770000
        0.4446000000         0.4781480000
 s    1  1.00
        0.1220000000         1.0000000000
 p    1  1.00
        0.7270000000         1.0000000000

  7 0
 s    3  1.00
       13.0100000000         0.0196850000
        1.9620000000         0.1379770000
        0.4446000000         0.4781480000
 s    1  1.00
        0.1220000000         1.0000000000
 p    1  1.00
        0.7270000000         1.0000000000

  8 0
 s    3  1.00
       13.0100000000         0.0196850000
        1.9620000000         0.1379770000
        0.4446000000         0.4781480000
 s    1  1.00
        0.1220000000         1.0000000000
 p    1  1.00
        0.7270000000         1.0000000000

  9 0
 s    3  1.00
       13.0100000000         0.0196850000
        1.9620000000         0.1379770000
        0.4446000000         0.4781480000
 s    1  1.00
        0.1220000000         1.0000000000
 p    1  1.00
        0.7270000000         1.0000000000

  10 0
 s    3  1.00
       13.0100000000         0.0196850000
        1.9620000000         0.1379770000
        0.4446000000         0.4781480000
 s    1  1.00
        0.1220000000         1.0000000000
 p    1  1.00
        0.7270000000         1.0000000000

  11 0
 s    3  1.00
       13.0100000000         0.0196850000
        1.9620000000         0.1379770000
        0.4446000000         0.4781480000
 s    1  1.00
        0.1220000000         1.0000000000
 p    1  1.00
        0.7270000000         1.0000000000

[5D7F]
[9G]

[MO]
 Sym= A
 Ene=        -1.9174572608e+01
 Spin= Alpha
 Occup=         2.0000000000e+00
  1        -7.9614361800e-05
  2        -1.3690161557e-04
  3         1.2342605602e-03
  4        -1.0372675541e-04
  5         7.5182488766e-05
  6         2.3136677801e-05
  7        -2.5214540660e-04
  8        -1.3552538026e-03
  9         1.5741128622e-04
 10        -7.0801314237e-05
 11         1.3153405515e-05
 12         4.2123865882e-05
 13        -4.9887963878e-05
 14         7.6227672512e-05
 15         2.1326111424e-04
 16         3.6714184004e-04
 17        -5.6126686596e-03
 18        -4.9119017517e-06
 19         5.5233718736e-06
 20         6.5307852376e-05
 21         2.1597255580e-04
 22         2.9714440758e-03
 23        -9.0162919368e-04
 24         6.8511851785e-05
 25        -1.2633214351e-04
 26         1.0341819164e-04
 27        -7.1363886531e-06
 28         2.0240561004e-05
 29        -1.9279145525e-04
 30        -2.8121396697e-04
 31         4.8266868115e-03
 32         5.3965725510e-05
 33        -2.6962031525e-04
 34         6.7065551333e-06
 35         4.6614028016e-03
 36         3.1194150842e-03
 37        -1.0686975276e-03
 38        -1.5911022032e-04
 39        -1.4078599953e-04
 40         6.6117754561e-05
 41         3.8492469532e-04
 42        -3.9667594304e-04
 43        -1.9678257768e-04
 44        -3.5820382793e-04
 45        -5.7125022584e-03
 46        -3.2801429720e-04
 47         2.1904386718e-04
 48         9.9780197408e-05
 49        -5.8525453454e-03
 50        -1.4931763681e-03
 51         1.2031796708e-03
 52         4.0451221940e-04
 53         4.5100588035e-06
 54         6.9668732934e-05
 55         7.1009785981e-04
 56        -4.0001310187e-04
 57        -1.0040820493e+00
 58        -9.3552091446e-03
 59         1.4056901591e-02
 60         8.9454565177e-04
 61        -1.4482321606e-03
 62        -6.2458249038e-05
 63        -3.2301381445e-03
 64         1.4216375147e-03
 65         6.0805172006e-04
 66         2.0038979067e-05
 67         6.5279867703e-07
 68         8.2295232413e-05
 69         1.4825781272e-04
 70        -2.6160408688e-04
 71        -2.6498519808e-04
 72        -3.4056386439e-04
 73        -2.2469124497e-04
 74        -9.7520286980e-04
 75         5.6285117850e-05
 76         5.4662885441e-05
 77         2.9937075491e-04
 78         3.7524175727e-05
 79         6.2654071342e-05
 80         7.7693280593e-06
 81        -2.3386048213e-04
 82        -1.9542975690e-04
 83         3.1600654649e-06
 84        -2.6889042159e-05
 85        -1.4528899718e-05
 86         4.0467507540e-04
 87        -9.0425637042e-04
 88         6.3421915561e-04
 89         1.4578524844e-04
 90        -1.2593694615e-04
 91         1.7000697295e-04
 92         1.2524261762e-03
 93        -2.2400065377e-04
 94        -2.0689924004e-04
 95         6.2789026452e-05
 96         8.8227417435e-05
 97        -6.1540820989e-04
 98        -3.4984967638e-05
 99        -1.0844390108e-04
100         2.8490743276e-05
 Sym= A
 Ene=        -1.0250768851e+01
 Spin= Alpha
 Occup=         2.0000000000e+00
  1        -2.7959368505e-04
  2        -3.4315522790e-04
  3         1.1030741332e-03
  4         1.4632788932e-04
  5         7.9741866049e-05
  6         7.2877905063e-05
  7        -1.2692665313e-03
  8         4.9902295899e-04
  9        -6.3678574435e-04
 10        -7.4917555890e-05
 11        -1.6637551337e-05
 12        -2.9148709881e-05
 13         5.4010630030e-05
 14        -3.8709753986e-05
 15        -4.9404728660e-04
 16        -7.0684455970e-04
 17         4.8901547740e-03
 18        -1.1818833102e-04
 19         1.3660328153e-05
 20         2.5091781305e-06
 21        -2.3949078839e-03
 22        -4.1529436511e-03
 23         7.6294910205e-04
 24        -3.5281696860e-04
 25        -9.7145783101e-05
 26        -1.0400758713e-04
 27         8.9054437955e-06
 28         1.8639452574e-04
 29         4.5434640719e-03
 30        -9.9599063967e-04
 31         8.6546198493e-05
 32        -5.7364326473e-04
 33         1.3469320724e-03
 34         9.5958249921e-05
 35        -1.9682083230e-03
 36        -6.4668898132e-03
 37         7.6897715747e-04
 38         1.0744204148e-03
 39         2.3925409094e-04
 40        -5.5527889030e-05
 41         5.7350574918e-04
 42         9.0475401957e-04
 43         1.0059131981e+00
 44         1.5294448163e-02
 45        -1.2530889932e-02
 46         5.7044564337e-04
 47        -4.7955585343e-04
 48        -1.8319792044e-04
 49         5.0475006856e-03
 50        -2.3510657893e-03
 51        -1.0084920117e-03
 52        -1.6339605650e-03
 53        -5.0705954365e-04
 54         3.8218792623e-05
 55        -3.1560607580e-04
 56        -5.2565590795e-06
 57         7.1993995898e-04
 58         1.2999061147e-03
 59        -4.9322524606e-03
 60         2.6521101399e-04
 61        -2.0754650420e-04
 62        -3.5123579860e-05
 63         3.2602668656e-03
 64        -2.6268800435e-04
 65        -6.9708412295e-04
 66         6.9617595817e-04
 67         4.3104173455e-04
 68        -1.8685722921e-05
 69        -7.6505528646e-04
 70         1.9638679617e-04
 71         5.2077182555e-04
 72        -4.3769121484e-04
 73        -6.2511675566e-04
 74        -2.6916788990e-05
 75         1.1941694412e-04
 76        -5.5248889892e-05
 77         1.6619592483e-04
 78        -2.5787708898e-05
 79        -5.4898655174e-05
 80         3.0698354491e-05
 81         6.6204565777e-06
 82         9.3972740874e-04
 83         1.0492139660e-05
 84         6.3480127767e-05
 85        -2.9337243880e-05
 86        -2.1755873644e-03
 87         2.3327224445e-03
 88        -1.5363740541e-03
 89        -1.5992751645e-03
 90         2.5975832863e-04
 91        -1.4496270662e-04
 92        -2.6644610534e-04
 93         3.0003770618e-04
 94         2.9313290995e-04
 95        -7.4651518487e-05
 96        -5.4176807676e-05
 97         5.5000836032e-04
 98         1.7238940568e-04
 99         1.3100504221e-04
100        -3.1556739893e-05
 Sym= A
 Ene=        -1.0206118506e+01
 Spin= Alpha
 Occup=         2.0000000000e+00
  1         2.1812073639e-02
  2        -1.1273007627e-03
  3         4.7844596008e-03
  4         1.3266832842e-03
  5         3.3766870306e-04
  6         1.6388548936e-04
  7        -2.0735370237e-03
  8        -1.8149437477e-03
  9         3.8431714662e-04
 10         7.6054365990e-04
 11        -5.4220054201e-04
 12        -2.8509056897e-05
 13        -1.0673333523e-03
 14        -4.0013567779e-04
 15         1.0061945731e+00
 16         1.6269800636e-02
 17        -1.9228143834e-02
 18        -1.2945946398e-04
 19         2.0595436047e-04
 20        -2.5012514993e-04
 21        -1.7054747494e-03
 22         3.2072879617e-03
 23        -1.7494696344e-03
 24        -7.5609775859e-04
 25         6.9706846890e-04
 26        -6.5048523072e-04
 27         2.2424483673e-04
 28        -2.6553273325e-05
 29         5.6622099974e-03
 30        -4.4537493377e-04
 31         1.1177475638e-03
 32        -4.6716624330e-04
 33        -6.3366948397e-04
 34         1.4566462716e-04
 35         7.7561974551e-04
 36         3.8804529345e-03
 37         2.7456471242e-04
 38         8.0054730882e-04
 39         3.8564584034e-05
 40         5.8371501081e-04
 41         1.0974083362e-03
 42        -9.5914834085e-04
 43        -3.5613903786e-04
 44        -7.0214658553e-04
 45         4.1146815093e-03
 46        -1.0499716517e-04
 47        -1.6097255613e-04
 48         1.2848658973e-04
 49        -6.1303947996e-04
 50         2.7876901142e-03
 51        -2.6479498071e-04
 52        -4.2888032912e-04
 53        -3.1618789490e-04
 54         6.1890863755e-05
 55         4.0810879759e-04
 56        -3.1203869398e-04
 57         8.9249316422e-05
 58         1.3076643138e-04
 59        -1.2277297219e-03
 60         1.6346389784e-04
 61        -4.0414704199e-05
 62        -2.6343821642e-05
 63         1.3485360182e-04
 64        -6.8816334453e-04
 65         8.6058515428e-05
 66         8.3165652317e-05
 67         2.4883670150e-05
 68         1.8822031613e-05
 69        -1.4882371260e-05
 70         1.6456196067e-05
 71         2.8941586284e-04
 72         6.0827205733e-04
 73        -2.7827716878e-04
 74        -8.0422558145e-05
 75        -1.9394582110e-05
 76        -5.1226390184e-05
 77         8.9991316027e-04
 78         1.4489645022e-04
 79        -1.1369143269e-04
 80         7.6776041622e-05
 81        -2.6309312958e-04
 82        -2.1621216639e-04
 83         3.8207552141e-05
 84         2.4434190770e-04
 85        -1.1267007289e-04
 86         1.0132488131e-04
 87         7.9999492033e-04
 88         1.8003344392e-04
 89        -5.5281450060e-05
 90         2.2047792326e-06
 91        -2.9365462806e-04
 92         4.1481763243e-04
 93        -6.9111031468e-05
 94        -3.8628284787e-04
 95        -5.8232366398e-05
 96        -2.2925080806e-03
 97         1.1995569630e-03
 98        -1.1546352079e-03
 99         1.5102971967e-03
100        -9.4039049360e-04
 Sym= A
 Ene=        -1.0190526142e+01
 Spin= Alpha
 Occup=         2.0000000000e+00
  1         1.0061913461e+00
  2         1.6364257600e-02
  3        -1.5240275448e-02
  4         2.8465628181e-04
  5        -4.9691178124e-05
  6         3.1559507159e-05
  7         2.1953266431e-03
  8         7.2871660874e-04
  9         7.3755808265e-04
 10        -1.0413510565e-03
 11         7.3160206303e-04
 12        -1.1862252740e-03
 13         5.0716318120e-05
 14         3.3038091505e-04
 15        -2.3030282640e-02
 16        -1.4407156969e-03
 17         9.5835984340e-04
 18        -1.3359094568e-03
 19        -3.3059401143e-04
 20        -2.7433810011e-04
 21         2.9110164757e-03
 22         2.5012268927e-03
 23        -4.6060580524e-05
 24         1.0026254498e-03
 25        -5.8572179601e-04
 26         1.8397858443e-04
 27        -9.9707382064e-04
 28        -7.7469177167e-04
 29        -1.0809995203e-03
 30        -5.1991787182e-04
 31         3.5331620498e-03
 32        -8.4386237622e-05
 33         5.3866148513e-05
 34        -6.7040182287e-05
 35         1.9439004933e-03
 36         2.4767281120e-03
 37        -5.0606212056e-04
 38        -3.7436214953e-04
 39         7.5813418611e-05
 40        -2.4602002364e-04
 41        -3.3805690575e-04
 42         3.0939721641e-05
 43         1.1014002211e-05
 44        -2.0557451894e-04
 45        -6.3920824583e-04
 46         1.2234171647e-07
 47        -1.3411357226e-04
 48        -5.1389517886e-05
 49        -1.3156051637e-03
 50        -1.6553023293e-04
 51         3.0170051553e-04
 52         6.0007413042e-05
 53         9.8425015619e-05
 54        -9.0124493279e-05
 55        -4.4799879495e-05
 56         1.0545318357e-04
 57         1.0386360876e-05
 58         3.4116671346e-05
 59         4.1110575311e-04
 60         1.2007563502e-04
 61         6.7365449997e-05
 62        -3.7638982307e-05
 63        -6.6237949884e-04
 64        -1.6937870458e-04
 65         1.0201261883e-04
 66        -3.1493010569e-05
 67        -3.3451646504e-05
 68        -2.7423931243e-05
 69         7.8431586873e-05
 70         5.5831317293e-05
 71         1.6750875803e-04
 72         1.2778561113e-03
 73        -1.2069621515e-04
 74         4.2561099558e-04
 75         8.7337671060e-05
 76        -2.3161092089e-03
 77         1.8964640661e-03
 78         7.4915167376e-04
 79         2.0201824300e-03
 80        -7.0183544845e-04
 81        -2.1351866034e-03
 82         1.4927179824e-03
 83         1.2203747705e-03
 84        -1.4864281252e-03
 85         1.2203727805e-03
 86        -8.1959728376e-05
 87        -3.8529062648e-05
 88         4.0510540086e-05
 89         1.9927415252e-05
 90        -2.0041112634e-05
 91         1.1012654367e-04
 92         5.8057410849e-04
 93         1.2210869304e-05
 94        -1.3172602212e-04
 95         4.4297106255e-05
 96         7.8528441465e-05
 97         2.4998670977e-04
 98         1.6741037806e-05
 99        -3.1616003681e-04
100         1.0692853435e-04
 Sym= A
 Ene=        -1.0182676502e+01
 Spin= Alpha
 Occup=         2.0000000000e+00
  1         3.6184427727e-04
  2        -4.5175766385e-04
  3         2.8092405817e-03
  4         7.3105509811e-05
  5         1.0512894573e-04
  6        -8.5895837835e-05
  7        -2.0967258055e-03
  8        -4.2773757611e-04
  9        -4.5049353942e-05
 10        -2.5525321836e-04
 11         5.2197226146e-04
 12        -3.0366913672e-04
 13         2.7378643241e-04
 14        -4.8037441085e-04
 15        -6.0551101018e-03
 16        -6.9951990313e-04
 17         3.0334703243e-03
 18         2.1608927556e-04
 19         7.0890236439e-04
 20        -1.7937324134e-04
 21        -2.0998521040e-03
 22        -3.8705655608e-03
 23        -4.0741512083e-05
 24         9.0662729609e-04
 25         4.9495438218e-04
 26         3.6090110555e-04
 27         5.6156121065e-04
 28        -1.3120470625e-03
 29         1.0066405416e+00
 30         1.6733115395e-02
 31        -2.1869981515e-02
 32        -2.2317977402e-04
 33        -1.4775712290e-04
 34        -1.1300209595e-04
 35        -5.1465080446e-03
 36        -2.6423217192e-04
 37         1.5806993240e-03
 38        -1.0738555222e-03
 39        -3.8772371749e-04
 40        -8.5115202304e-06
 41         2.8206249846e-04
 42        -1.9550603805e-04
 43        -5.7795179982e-03
 44        -1.5817537734e-03
 45         6.7253455194e-03
 46         6.3337095589e-04
 47        -1.2269479289e-03
 48        -9.2158753175e-05
 49         3.1991977214e-04
 50         4.2058151263e-03
 51        -3.4174085401e-04
 52         8.3895112858e-04
 53         1.6091091885e-04
 54        -2.0804865263e-04
 55         7.0019271589e-04
 56         1.0195741567e-03
 57         3.5154439934e-05
 58         5.0003564798e-05
 59        -9.7086150131e-04
 60         2.8714702646e-05
 61        -5.8740911920e-05
 62        -2.8908452807e-06
 63        -1.0443127305e-04
 64        -7.0838116982e-04
 65         6.8723680048e-05
 66        -5.7381976495e-05
 67        -4.1348481606e-05
 68        -1.0965779896e-05
 69         9.5983868008e-05
 70         8.2269166188e-05
 71         2.7253748663e-04
 72         3.7555237677e-05
 73        -1.3888513106e-04
 74        -1.6237097476e-04
 75         2.3593205561e-05
 76         1.1202480619e-04
 77         5.1117458003e-04
 78         1.4101525549e-04
 79        -1.4593643732e-04
 80         5.0628738338e-05
 81        -7.0327208367e-04
 82         5.0727400841e-04
 83         1.8998147388e-04
 84        -1.2209667049e-04
 85         1.2018558426e-04
 86         1.4556520343e-04
 87         1.2181200992e-03
 88         2.8623005806e-04
 89        -2.5094870965e-05
 90        -1.6868649828e-05
 91        -2.3740578724e-03
 92         8.3333357631e-04
 93        -2.1134385670e-03
 94        -5.4675889814e-05
 95         2.7177122607e-04
 96        -3.3372255627e-04
 97         7.0346512630e-04
 98         2.0490064738e-04
 99         2.8690231728e-04
100         7.3548617076e-05
 Sym= A
 Ene=        -1.0651973109e+00
 Spin= Alpha
 Occup=         2.0000000000e+00
  1         1.4348462227e-04
  2         8.4157291749e-03
  3        -4.3868698681e-03
  4        -1.8910192099e-03
  5        -5.0865659480e-03
  6        -6.6919221830e-04
  7         2.6407964410e-03
  8         5.1797470429e-03
  9        -1.9209632241e-03
 10        -2.5402701570e-04
 11        -5.5664531814e-04
 12         6.9762666141e-04
 13        -8.0576445528e-04
 14         9.6867170408e-04
 15        -9.1466288998e-05
 16         1.3116391324e-02
 17         1.9549803449e-03
 18         1.5384778694e-03
 19        -8.6358700841e-03
 20         9.6031793294e-04
 21         5.9795255163e-03
 22         3.2426734355e-03
 23         1.6325291316e-04
 24        -1.3761961359e-03
 25        -1.5126017235e-04
 26        -4.2427401894e-04
 27        -1.3268302030e-03
 28         4.0276659701e-04
 29        -1.3200601855e-03
 30         3.5100889015e-02
 31        -4.1179418059e-03
 32         2.1166416029e-02
 33        -1.8099847677e-02
 34        -4.2930372976e-03
 35         5.4193843138e-03
 36         1.4992494017e-02
 37        -2.0793359957e-03
 38        -2.2390733988e-03
 39        -1.0950981626e-03
 40         1.5354511479e-03
 41         2.1108805646e-03
 42        -8.0450247143e-03
 43        -1.2704780039e-02
 44         1.5424146070e-01
 45         8.5009838132e-02
 46         1.2614697353e-01
 47        -5.6229454262e-03
 48        -2.7141117025e-02
 49         5.1200676829e-03
 50         2.3961655375e-02
 51        -1.2145152293e-03
 52        -1.1095100885e-02
 53        -1.0770686842e-02
 54         8.8763053642e-04
 55         2.8354267146e-02
 56        -4.8051310069e-03
 57        -6.6791466550e-03
 58         4.2402362129e-01
 59         3.7293406669e-01
 60        -7.3322066863e-02
 61         9.0068004485e-02
 62         9.3766431524e-03
 63        -3.1133380812e-02
 64        -1.6327096431e-03
 65         6.7414832218e-03
 66        -6.3500388475e-03
 67        -3.3552943176e-03
 68        -3.4544621353e-04
 69         3.9867397668e-03
 70        -1.8084952002e-03
 71         1.7088303237e-01
 72         4.9363055651e-03
 73        -1.8776496804e-02
 74        -2.9718638521e-02
 75         6.8215127448e-03
 76         2.0940527976e-05
 77        -3.9315787382e-03
 78         5.5630924241e-05
 79         1.0701033797e-04
 80        -1.6004959538e-04
 81         7.4934351162e-03
 82         4.5914573085e-03
 83        -1.1401316611e-03
 84        -6.4398518721e-04
 85        -9.0975976312e-04
 86         3.4411732143e-02
 87         5.3811795921e-03
 88         8.2751563464e-03
 89         4.5090667086e-03
 90        -1.5116558976e-03
 91         5.0971684509e-03
 92         1.9854549845e-03
 93         4.4471621762e-04
 94        -2.2762295100e-03
 95         6.8486692940e-06
 96         1.6274440277e-03
 97        -1.1485492583e-03
 98        -3.0563433542e-04
 99        -4.4793598284e-04
100        -8.8416591863e-05
 Sym= A
 Ene=        -8.0176677435e-01
 Spin= Alpha
 Occup=         2.0000000000e+00
  1         1.4782008673e-02
  2        -1.9237885704e-01
  3        -1.0441036287e-01
  4         8.3027006401e-02
  5         2.9213760108e-02
  6         1.3875135672e-02
  7         8.6880324848e-03
  8        -2.8492654642e-03
  9         8.2830168713e-03
 10         4.8231500272e-03
 11        -2.3063122766e-03
 12        -3.3249361330e-03
 13        -7.8184000254e-03
 14        -6.0092608144e-03
 15         1.9404550431e-02
 16        -2.7842399560e-01
 17        -1.7829647466e-01
 18        -3.7840561911e-02
 19         4.0316922600e-02
 20        -1.9000100477e-02
 21        -1.8800426954e-02
 22         2.0731004962e-02
 23        -1.3787986069e-02
 24         1.0460093771e-02
 25        -8.4817678079e-04
 26         1.2948246386e-03
 27        -1.5409184806e-03
 28        -1.0990146107e-02
 29         1.8104579379e-02
 30        -2.4081319236e-01
 31        -1.4220186556e-01
 32        -5.4504477322e-02
 33        -1.6354194894e-02
 34         1.5375928133e-02
 35        -1.9100841320e-02
 36        -1.2008863163e-02
 37         9.5720132624e-03
 38         8.6540071965e-03
 39         1.7271789252e-03
 40         2.6135559277e-03
 41         9.4699476392e-03
 42        -5.3755325133e-03
 43         5.4284594824e-03
 44        -1.2341619242e-01
 45        -6.6507616715e-02
 46         6.0521558536e-02
 47        -8.5125160279e-02
 48        -1.0032887979e-02
 49         2.3247136084e-02
 50        -1.2676066168e-02
 51        -6.6752291351e-03
 52         3.3516038481e-03
 53        -1.6529109758e-03
 54        -5.1926460194e-04
 55         1.2095036343e-02
 56         4.0568013558e-03
 57         1.0889105341e-03
 58         8.7923141746e-02
 59         8.1210165255e-02
 60         2.6451248916e-02
 61         2.1550174184e-03
 62        -7.2210066823e-03
 63         1.6179232154e-02
 64        -7.8126352461e-03
 65        -3.2904064021e-03
 66         7.8712943025e-04
 67         3.9806410515e-04
 68        -6.9056058755e-04
 69        -1.0436748782e-03
 70         2.8942677796e-03
 71         3.3334004250e-02
 72         3.7148471057e-03
 73        -1.9415743245e-03
 74        -9.1076376134e-03
 75         2.6101244350e-04
 76        -5.9925741328e-02
 77        -5.6372606420e-04
 78         5.8653896244e-03
 79         8.8422102703e-03
 80        -2.1623856099e-03
 81        -6.9495328557e-02
 82        -4.6859306021e-03
 83         8.1747383966e-03
 84        -5.5658750479e-03
 85         5.8459320491e-03
 86        -3.2854999976e-02
 87         1.0408100850e-03
 88        -4.8775122233e-04
 89        -5.7953551067e-03
 90         2.1476886985e-04
 91        -8.1060538022e-02
 92        -8.4844432142e-03
 93        -1.3019282511e-02
 94        -9.5965918625e-04
 95         2.0386057435e-03
 96        -9.5687443782e-02
 97        -1.2252645876e-02
 98        -8.5122868387e-03
 99         1.0824132867e-02
100        -6.3713429307e-03
 Sym= A
 Ene=        -7.3120908221e-01
 Spin= Alpha
 Occup=         2.0000000000e+00
  1         1.6267499488e-02
  2        -2.2680048503e-01
  3        -1.2648366936e-01
  4         5.3907652590e-02
  5         9.0513381304e-03
  6         1.3725533559e-02
  7         2.5872526963e-03
  8         1.0720862989e-03
  9         2.8117767222e-03
 10         3.0821967510e-03
 11        -2.5742955172e-03
 12        -2.2409848493e-03
 13        -5.4367403210e-03
 14         7.2247832663e-05
 15         8.8176905302e-03
 16        -1.3348154438e-01
 17        -1.0066851659e-01
 18        -1.0944975883e-01
 19        -7.6835132323e-02
 20        -6.6362864749e-03
 21        -4.7841226221e-02
 22        -1.2771994052e-02
 23        -6.5439343988e-03
 24         2.3519634221e-03
 25        -4.1563951003e-03
 26        -2.5866931788e-03
 27        -1.4494583655e-02
 28         3.8967407707e-04
 29        -1.3306447872e-02
 30         1.9885267229e-01
 31         1.2986037552e-01
 32         9.8357583965e-03
 33        -1.1939383680e-01
 34        -4.5844990141e-03
 35         1.8584396378e-02
 36        -3.3606237911e-02
 37        -1.9203693602e-04
 38        -3.3929436595e-03
 39         1.7632771639e-04
 40         1.9843161414e-03
 41        -6.8624397444e-03
 42        -1.2064110530e-02
 43        -9.9770904180e-03
 44         2.5199132953e-01
 45         1.4046268317e-01
 46        -7.2923022689e-02
 47         5.8973698516e-02
 48         1.1281887222e-02
 49        -2.2488223491e-02
 50         9.9605016041e-03
 51         2.6151771006e-03