[Molden Format]
[Atoms] (AU)
C    1    6           1.8135182329         2.4395183958        -0.0777735490
C    2    6          -0.9089263489         2.3035020698        -0.0748732352
C    3    6          -2.1673304649         0.0713892233         0.4185829922
C    4    6          -0.7786284664        -2.2197288285         0.0703406714
O    5    8           1.5626703367        -2.3311681513        -0.2154860932
H    6    1           2.2032804446         0.1646824888        -0.7378380094
H    7    1           2.6515280358         4.1403351390        -0.9311856025
H    8    1           2.7523427703         1.9082644901         1.6971036019
H    9    1          -1.8732729604        -3.9789053033        -0.2260760995
H   10    1          -4.2270037615        -0.0284974478         0.4349237186
H   11    1          -2.0013790629         3.8970303870        -0.8209981288
[GTO]
  1 0
 s    8  1.00
     6665.0000000000         0.0006920000
     1000.0000000000         0.0053290000
      228.0000000000         0.0270770000
       64.7100000000         0.1017180000
       21.0600000000         0.2747400000
        7.4950000000         0.4485640000
        2.7970000000         0.2850740000
        0.5215000000         0.0152040000
 s    8  1.00
     6665.0000000000        -0.0001460000
     1000.0000000000        -0.0011540000
      228.0000000000        -0.0057250000
       64.7100000000        -0.0233120000
       21.0600000000        -0.0639550000
        7.4950000000        -0.1499810000
        2.7970000000        -0.1272620000
        0.5215000000         0.5445290000
 s    1  1.00
        0.1596000000         1.0000000000
 p    3  1.00
        9.4390000000         0.0381090000
        2.0020000000         0.2094800000
        0.5456000000         0.5085570000
 p    1  1.00
        0.1517000000         1.0000000000
 d    1  1.00
        0.5500000000         1.0000000000

  2 0
 s    8  1.00
     6665.0000000000         0.0006920000
     1000.0000000000         0.0053290000
      228.0000000000         0.0270770000
       64.7100000000         0.1017180000
       21.0600000000         0.2747400000
        7.4950000000         0.4485640000
        2.7970000000         0.2850740000
        0.5215000000         0.0152040000
 s    8  1.00
     6665.0000000000        -0.0001460000
     1000.0000000000        -0.0011540000
      228.0000000000        -0.0057250000
       64.7100000000        -0.0233120000
       21.0600000000        -0.0639550000
        7.4950000000        -0.1499810000
        2.7970000000        -0.1272620000
        0.5215000000         0.5445290000
 s    1  1.00
        0.1596000000         1.0000000000
 p    3  1.00
        9.4390000000         0.0381090000
        2.0020000000         0.2094800000
        0.5456000000         0.5085570000
 p    1  1.00
        0.1517000000         1.0000000000
 d    1  1.00
        0.5500000000         1.0000000000

  3 0
 s    8  1.00
     6665.0000000000         0.0006920000
     1000.0000000000         0.0053290000
      228.0000000000         0.0270770000
       64.7100000000         0.1017180000
       21.0600000000         0.2747400000
        7.4950000000         0.4485640000
        2.7970000000         0.2850740000
        0.5215000000         0.0152040000
 s    8  1.00
     6665.0000000000        -0.0001460000
     1000.0000000000        -0.0011540000
      228.0000000000        -0.0057250000
       64.7100000000        -0.0233120000
       21.0600000000        -0.0639550000
        7.4950000000        -0.1499810000
        2.7970000000        -0.1272620000
        0.5215000000         0.5445290000
 s    1  1.00
        0.1596000000         1.0000000000
 p    3  1.00
        9.4390000000         0.0381090000
        2.0020000000         0.2094800000
        0.5456000000         0.5085570000
 p    1  1.00
        0.1517000000         1.0000000000
 d    1  1.00
        0.5500000000         1.0000000000

  4 0
 s    8  1.00
     6665.0000000000         0.0006920000
     1000.0000000000         0.0053290000
      228.0000000000         0.0270770000
       64.7100000000         0.1017180000
       21.0600000000         0.2747400000
        7.4950000000         0.4485640000
        2.7970000000         0.2850740000
        0.5215000000         0.0152040000
 s    8  1.00
     6665.0000000000        -0.0001460000
     1000.0000000000        -0.0011540000
      228.0000000000        -0.0057250000
       64.7100000000        -0.0233120000
       21.0600000000        -0.0639550000
        7.4950000000        -0.1499810000
        2.7970000000        -0.1272620000
        0.5215000000         0.5445290000
 s    1  1.00
        0.1596000000         1.0000000000
 p    3  1.00
        9.4390000000         0.0381090000
        2.0020000000         0.2094800000
        0.5456000000         0.5085570000
 p    1  1.00
        0.1517000000         1.0000000000
 d    1  1.00
        0.5500000000         1.0000000000

  5 0
 s    8  1.00
    11720.0000000000         0.0007100000
     1759.0000000000         0.0054700000
      400.8000000000         0.0278370000
      113.7000000000         0.1048000000
       37.0300000000         0.2830620000
       13.2700000000         0.4487190000
        5.0250000000         0.2709520000
        1.0130000000         0.0154580000
 s    8  1.00
    11720.0000000000        -0.0001600000
     1759.0000000000        -0.0012630000
      400.8000000000        -0.0062670000
      113.7000000000        -0.0257160000
       37.0300000000        -0.0709240000
       13.2700000000        -0.1654110000
        5.0250000000        -0.1169550000
        1.0130000000         0.5573680000
 s    1  1.00
        0.3023000000         1.0000000000
 p    3  1.00
       17.7000000000         0.0430180000
        3.8540000000         0.2289130000
        1.0460000000         0.5087280000
 p    1  1.00
        0.2753000000         1.0000000000
 d    1  1.00
        1.1850000000         1.0000000000

  6 0
 s    3  1.00
       13.0100000000         0.0196850000
        1.9620000000         0.1379770000
        0.4446000000         0.4781480000
 s    1  1.00
        0.1220000000         1.0000000000
 p    1  1.00
        0.7270000000         1.0000000000

  7 0
 s    3  1.00
       13.0100000000         0.0196850000
        1.9620000000         0.1379770000
        0.4446000000         0.4781480000
 s    1  1.00
        0.1220000000         1.0000000000
 p    1  1.00
        0.7270000000         1.0000000000

  8 0
 s    3  1.00
       13.0100000000         0.0196850000
        1.9620000000         0.1379770000
        0.4446000000         0.4781480000
 s    1  1.00
        0.1220000000         1.0000000000
 p    1  1.00
        0.7270000000         1.0000000000

  9 0
 s    3  1.00
       13.0100000000         0.0196850000
        1.9620000000         0.1379770000
        0.4446000000         0.4781480000
 s    1  1.00
        0.1220000000         1.0000000000
 p    1  1.00
        0.7270000000         1.0000000000

  10 0
 s    3  1.00
       13.0100000000         0.0196850000
        1.9620000000         0.1379770000
        0.4446000000         0.4781480000
 s    1  1.00
        0.1220000000         1.0000000000
 p    1  1.00
        0.7270000000         1.0000000000

  11 0
 s    3  1.00
       13.0100000000         0.0196850000
        1.9620000000         0.1379770000
        0.4446000000         0.4781480000
 s    1  1.00
        0.1220000000         1.0000000000
 p    1  1.00
        0.7270000000         1.0000000000

[5D7F]
[9G]

[MO]
 Sym= A
 Ene=        -1.9146374214e+01
 Spin= Alpha
 Occup=         2.0000000000e+00
  1        -4.7905745611e-05
  2        -9.1650142016e-05
  3        -1.8858570589e-04
  4         8.7954855870e-05
  5         1.1216029917e-05
  6        -4.9644950254e-05
  7        -2.1945475035e-04
  8        -1.5154604247e-04
  9         4.3580956439e-04
 10         2.2120700570e-05
 11         6.6637642703e-05
 12         1.7322973293e-05
 13         3.6064308351e-05
 14        -1.5888173091e-04
 15        -8.4777863217e-05
 16        -1.5508423041e-04
 17         3.8070594907e-03
 18        -3.5476101413e-05
 19        -3.4986844370e-05
 20        -6.8720094677e-05
 21        -7.8131246232e-04
 22        -1.6343344854e-03
 23         5.6881937044e-04
 24         7.7683274251e-06
 25         8.0008404739e-05
 26        -7.1146419877e-05
 27        -3.1754151553e-05
 28        -1.9054769481e-05
 29         1.9719069622e-04
 30         2.9561248392e-04
 31        -4.2889405819e-03
 32        -4.6596514173e-05
 33         2.8071050504e-04
 34         3.4169274745e-05
 35        -4.2891943980e-03
 36        -2.4501200987e-03
 37         6.0668875537e-04
 38         1.1711822763e-04
 39         1.2875923742e-04
 40         7.5403405210e-05
 41        -4.6275926515e-04
 42         4.2429345428e-04
 43         3.9004811790e-04
 44         5.5500263022e-04
 45         6.5425585719e-03
 46         1.3916619969e-04
 47        -1.4679244504e-04
 48        -1.0379136779e-04
 49         5.5784422709e-03
 50         2.1847214047e-03
 51        -5.0241485266e-04
 52        -1.4650383710e-04
 53         1.0485073007e-04
 54         1.8198056670e-04
 55        -1.1111164109e-03
 56         3.9423395567e-04
 57         1.0042849712e+00
 58         9.7007018547e-03
 59        -1.5467735174e-02
 60        -1.6687761057e-03
 61         4.5011552222e-04
 62         7.8638210390e-05
 63         3.4094713772e-03
 64        -1.4267134936e-03
 65        -2.3484737960e-04
 66         1.1506886890e-04
 67         1.2134989897e-05
 68         4.3580186207e-05
 69         1.3537855460e-04
 70         3.3507821274e-05
 71         6.3246344461e-04
 72         5.6130823767e-04
 73        -2.2693992218e-04
 74        -6.1816817850e-04
 75         1.8201871058e-04
 76         2.0003735285e-04
 77         4.0685031171e-04
 78        -5.2609135589e-05
 79        -8.7171008914e-05
 80         2.1537824942e-05
 81        -1.8292056061e-04
 82        -3.3729148623e-04
 83         8.0218466931e-05
 84         9.4004244776e-05
 85         6.1174871355e-05
 86        -3.7692917664e-04
 87         9.4927245362e-04
 88        -7.2661819543e-04
 89        -1.3018853642e-04
 90         7.2615685129e-05
 91        -1.8821652943e-04
 92        -1.2727643767e-03
 93         1.8855087332e-04
 94         2.0556025961e-04
 95        -4.7956659031e-05
 96        -1.1610761003e-04
 97         2.0200539122e-04
 98         4.6711073484e-05
 99         5.9274502798e-05
100        -3.4920845600e-05
 Sym= A
 Ene=        -1.0271981887e+01
 Spin= Alpha
 Occup=         2.0000000000e+00
  1        -3.7608123634e-04
  2        -5.3332353809e-04
  3         1.2856560135e-03
  4         2.2719087818e-04
  5         4.3868482855e-05
  6        -2.3454751119e-05
  7        -8.2879929263e-04
  8        -2.9558018739e-04
  9        -4.8345573593e-05
 10        -1.1950192099e-04
 11        -1.1590907028e-04
 12         7.6843576657e-06
 13        -9.6595665184e-05
 14        -1.1519257351e-04
 15        -3.8360944214e-04
 16        -6.0544970796e-04
 17         4.8961914676e-03
 18        -1.3784390763e-04
 19        -9.7828856762e-06
 20         2.5824204597e-05
 21        -1.9431111601e-03
 22        -3.0019316926e-03
 23         7.2969322923e-04
 24        -3.0231506991e-04
 25        -2.0300848695e-04
 26        -8.4878879475e-05
 27         1.0032665876e-04
 28         1.3282292414e-04
 29         2.1457494202e-03
 30        -4.0629946307e-04
 31        -1.1279949783e-03
 32        -4.4390615789e-04
 33         9.5223389290e-04
 34         1.4890010344e-04
 35        -2.2464134962e-03
 36        -4.8374243260e-03
 37         4.3928417460e-04
 38         1.0358503048e-03
 39         2.2356926187e-04
 40        -1.6210737017e-04
 41         6.4739071670e-04
 42         1.0094552092e-03
 43         1.0059815322e+00
 44         1.5402926162e-02
 45        -1.0119635760e-02
 46         8.7311355892e-04
 47        -3.2180876044e-04
 48        -3.9148773425e-04
 49         4.9100998386e-03
 50        -1.2401611288e-03
 51        -5.5823930597e-04
 52        -1.6189989888e-03
 53        -2.2627045349e-04
 54         4.4120843228e-04
 55         5.1301573875e-04
 56         3.0332628423e-04
 57         5.5177805260e-04
 58         1.1574912930e-03
 59        -5.7827150820e-03
 60         6.3932788195e-04
 61        -5.8265090428e-05
 62        -8.8931725515e-05
 63         3.5194582159e-03
 64        -1.0333715356e-04
 65        -4.0954826373e-04
 66         6.6198520132e-04
 67         2.5959181014e-04
 68        -1.7634651283e-05
 69        -7.9052850703e-04
 70         5.4098946520e-05
 71         1.3645633060e-04
 72        -4.5686913597e-04
 73        -4.0398931287e-04
 74        -3.7986100684e-04
 75         3.2448089573e-05
 76        -1.2481765828e-05
 77         4.4248897238e-04
 78        -2.8281589866e-05
 79        -2.0420977653e-05
 80         2.9737199819e-05
 81        -7.9689414088e-05
 82         1.8878624158e-04
 83         6.1833466363e-05
 84         9.3224171450e-05
 85        -7.3774033599e-05
 86        -1.9735573974e-03
 87         2.4297838859e-03
 88        -1.3354935807e-03
 89        -1.6407137908e-03
 90        -2.7208244400e-04
 91        -3.3533775734e-04
 92        -4.9814655890e-04
 93         1.6273810593e-04
 94         2.6979532605e-04
 95        -2.6670315378e-05
 96        -9.2020783722e-05
 97         3.8863154538e-04
 98         1.7053172348e-04
 99         1.0915171609e-04
100        -4.9444383777e-05
 Sym= A
 Ene=        -1.0226453642e+01
 Spin= Alpha
 Occup=         2.0000000000e+00
  1         3.1742831697e-03
  2        -6.0111929069e-04
  3         4.7576740714e-03
  4         9.0151169358e-04
  5        -3.7046463712e-05
  6         1.9076690444e-05
  7        -2.5923401965e-03
  8        -6.8314176089e-04
  9         1.7564132741e-04
 10         8.7592277134e-04
 11         9.8119719364e-05
 12         4.2729165821e-05
 13        -1.0550662911e-03
 14        -1.7465581740e-04
 15         1.0064768399e+00
 16         1.6314805720e-02
 17        -1.9965653062e-02
 18        -3.6466993061e-04
 19         5.2137311546e-05
 20        -4.0855032794e-04
 21        -2.4737699875e-03
 22         3.7953317876e-03
 23        -8.1413812685e-04
 24        -7.7472606441e-04
 25         4.1580444090e-04
 26        -8.3991683843e-04
 27        -2.9325969516e-04
 28        -4.8524499895e-04
 29         7.2722533716e-03
 30        -8.8731412081e-04
 31         3.5823643393e-03
 32        -5.7034671995e-04
 33        -9.4596078809e-04
 34         1.8162080971e-04
 35         1.8039568719e-03
 36         2.6053076476e-03
 37        -1.1899737462e-04
 38         8.6268908190e-04
 39         1.6214948546e-04
 40         4.3264613259e-04
 41         4.9594705958e-04
 42        -1.0090487744e-03
 43        -3.7228944101e-04
 44        -6.5612252786e-04
 45         1.8799458347e-03
 46         3.7089618693e-05
 47        -1.9225707676e-04
 48         4.4214510223e-05
 49        -6.9765180659e-04
 50         1.4955354458e-03
 51        -9.7558726629e-05
 52        -3.3072510692e-04
 53        -1.8197417226e-04
 54        -5.4239403448e-05
 55         4.8099984205e-05
 56         1.5349060753e-04
 57         2.8804052740e-05
 58         4.1148609586e-05
 59        -4.7165112530e-04
 60         1.3147964763e-04
 61         3.2584074981e-05
 62         2.5301705814e-06
 63        -2.0690249187e-04
 64        -5.7955927254e-04
 65         8.0213785230e-05
 66         2.1222790884e-05
 67        -2.3841605501e-05
 68         4.7510261394e-06
 69         2.7343570156e-05
 70         2.8731988172e-05
 71        -1.4591499883e-04
 72         8.4487386203e-04
 73        -3.9599689519e-04
 74        -1.9352297208e-04
 75        -2.3307905827e-05
 76        -1.2132812026e-04
 77         3.8271334799e-04
 78         1.7534718621e-04
 79        -1.0586393758e-04
 80         9.6385063126e-05
 81        -5.3911814100e-04
 82         7.0860646957e-04
 83        -1.0206431315e-05
 84         3.5529468324e-05
 85        -3.6512370866e-05
 86        -1.6332430065e-04
 87         3.5744768061e-04
 88         5.5349648556e-05
 89        -1.3568669125e-04
 90        -2.8381507138e-05
 91         1.2735882782e-04
 92         6.0393731425e-04
 93         1.5859157390e-04
 94        -2.8709531740e-04
 95         1.7937150861e-05
 96        -2.5391644555e-03
 97         1.1062599153e-03
 98        -1.1766332721e-03
 99         1.6874579782e-03
100        -8.9206438695e-04
 Sym= A
 Ene=        -1.0190936677e+01
 Spin= Alpha
 Occup=         2.0000000000e+00
  1        -7.1672990478e-04
  2        -5.2806794490e-04
  3         1.2817375671e-03
  4         1.1667565133e-04
  5         1.0966670656e-04
  6        -1.3759911925e-04
  7        -1.2927281006e-03
  8        -2.9877664859e-04
  9         5.4121219242e-04
 10        -2.8500626125e-04
 11         2.1421345351e-05
 12        -1.3751371371e-04
 13         5.4828984721e-06
 14        -1.3468611302e-04
 15        -8.2011126738e-03
 16        -1.1838109288e-03
 17         4.7709455985e-03
 18         5.0631898109e-04
 19         9.9427005717e-04
 20        -2.2663835545e-04
 21        -1.6046999500e-03
 22        -2.8935597346e-03
 23         3.2501445029e-05
 24         8.5580602486e-04
 25         3.4300814441e-04
 26         5.6966456209e-04
 27         6.6431773985e-04
 28        -8.7289207091e-04
 29         1.0066626692e+00
 30         1.6795962066e-02
 31        -2.1179873291e-02
 32        -2.4505808253e-04
 33         6.7430588504e-05
 34        -5.3237293606e-04
 35        -4.7395596908e-03
 36        -1.6647354510e-04
 37         1.8960198472e-03
 38        -1.1069759629e-03
 39        -6.7743768001e-05
 40        -4.8598624199e-05
 41         7.1726003936e-04
 42         3.0489363993e-04
 43        -2.6310997043e-03
 44        -9.2003705721e-04
 45         5.9751068515e-03
 46         4.5052752846e-04
 47        -7.7200057431e-04
 48        -1.4752158185e-04
 49        -6.0320095008e-04
 50         3.3030698354e-03
 51        -1.4009323303e-07
 52         7.4051201725e-04
 53         2.9167861333e-04
 54        -3.5163582829e-04
 55         5.5564178043e-04
 56         1.1603317478e-03
 57         2.1725077140e-05
 58         3.5256239154e-05
 59        -6.3077371286e-04
 60         6.9541129366e-05
 61         4.4116689825e-06
 62        -5.1257040653e-05
 63        -1.5549975405e-04
 64        -7.4790031144e-04
 65         1.1368152722e-04
 66        -1.0544067468e-04
 67         2.9140814207e-06
 68         1.0113948646e-05
 69         2.6214960022e-05
 70         1.6749588118e-04
 71        -9.1612637395e-05
 72         4.6598316102e-04
 73        -1.1842654967e-04
 74        -1.6283520929e-04
 75        -1.0788015392e-05
 76         2.5120719098e-05
 77         4.9001011934e-04
 78         7.3009621969e-05
 79        -4.4878410150e-05
 80        -3.9304953153e-05
 81        -2.6618616359e-04
 82         1.6848330831e-04
 83         9.0530212643e-06
 84         1.2522014433e-04
 85        -5.0133593631e-05
 86        -2.0358040283e-04
 87         7.8350708536e-04
 88         2.3828950652e-04
 89        -1.3917041700e-04
 90         3.0755845702e-05
 91        -2.4965070412e-03
 92         1.0976809441e-03
 93        -2.2407569322e-03
 94        -5.5199289441e-05
 95        -1.8401516832e-04
 96        -6.8427572894e-05
 97         4.8286294474e-04
 98         3.1096631614e-04
 99         3.9868646192e-05
100         1.3768179102e-04
 Sym= A
 Ene=        -1.0177522599e+01
 Spin= Alpha
 Occup=         2.0000000000e+00
  1         1.0068491129e+00
  2         1.7179054092e-02
  3        -1.8955686726e-02
  4         1.3827633881e-04
  5         1.6378543408e-04
  6         5.3718212551e-04
  7         2.4895134188e-03
  8         2.1679245184e-03
  9        -3.9369019379e-04
 10        -7.8573533924e-05
 11         3.7104858840e-04
 12        -9.5360387114e-04
 13        -2.9190446230e-04
 14         5.2240421517e-04
 15        -3.5539966768e-03
 16        -4.6838699187e-04
 17         1.9112167856e-03
 18        -7.7145353713e-04
 19         3.6730585036e-05
 20        -1.8488069476e-05
 21         3.1819410095e-03
 22         1.4167749667e-03
 23        -1.1872359007e-04
 24         7.9999567800e-04
 25         1.3848364396e-04
 26         5.2649637663e-05
 27        -1.3650818218e-03
 28        -2.0713259798e-04
 29         3.8971043490e-05
 30        -5.9835646960e-04
 31         2.5846950688e-03
 32        -2.1812075124e-04
 33        -4.2529220450e-05
 34        -2.4291082235e-05
 35         1.3395112292e-03
 36         1.9704838628e-03
 37        -3.4565789190e-04
 38        -3.7678844419e-04
 39         3.8077363861e-05
 40        -1.3735187320e-04
 41        -2.9632358918e-04
 42        -1.7470885734e-04
 43        -1.6564494051e-04
 44        -4.9965486078e-04
 45        -7.4662265071e-04
 46        -1.6217740953e-04
 47        -2.0965236064e-04
 48        -7.8035376690e-05
 49        -9.6478507082e-04
 50         4.1255863380e-04
 51         2.0920907462e-04
 52        -3.4887709249e-05
 53        -2.0429236728e-05
 54        -5.3878479382e-05
 55        -1.1437017927e-04
 56         2.2452194138e-04
 57        -2.0798688081e-05
 58        -4.9399536633e-05
 59         1.9779115604e-04
 60         1.3010313360e-04
 61        -4.4856926005e-05
 62        -9.8039003116e-05
 63        -1.1521359072e-03
 64        -3.9787347045e-04
 65         5.4246003344e-04
 66        -3.3684049374e-05
 67         1.8272309548e-06
 68         1.2322471513e-04
 69         1.0836398037e-04
 70        -5.4677713957e-05
 71         2.3692060395e-04
 72         3.8778082716e-03
 73         1.8454459331e-04
 74        -1.1476741427e-03
 75        -3.8154042143e-04
 76        -2.0250523316e-03
 77         1.2751296172e-03
 78         8.7309979088e-04
 79         1.7383289096e-03
 80        -9.9019625915e-04
 81        -1.1990940015e-03
 82         2.1284026571e-03
 83         6.7046334608e-04
 84        -5.3366443449e-04
 85         1.8120243634e-03
 86        -5.3313848401e-05
 87         2.7904679354e-04
 88         2.7117024552e-05
 89        -2.7866674448e-05
 90        -3.9008200530e-05
 91         5.6214038553e-05
 92         4.9763612974e-04
 93         8.4008250464e-06
 94        -1.3948183925e-04
 95         3.5996941408e-05
 96        -2.0328310610e-04
 97         2.6419882034e-04
 98        -2.6821388787e-04
 99        -2.0648488223e-04
100         3.9728806417e-05
 Sym= A
 Ene=        -1.0513448182e+00
 Spin= Alpha
 Occup=         2.0000000000e+00
  1        -4.8866843045e-04
  2         2.0009038814e-02
  3        -2.9662764271e-04
  4        -5.0526259513e-03
  5        -1.1502801841e-02
  6        -1.4716076199e-04
  7         2.9956274886e-03
  8         4.2010229228e-03
  9        -4.0456175791e-03
 10        -6.2799311517e-04
 11        -5.4954769752e-04
 12         9.1182680968e-04
 13         8.8560484652e-05
 14        -6.9426588801e-05
 15        -8.7405568957e-04
 16         2.2625728778e-02
 17         2.7448146345e-03
 18         3.6693410279e-03
 19        -1.3889852933e-02
 20         1.1181717993e-03
 21         4.0466175366e-03
 22         3.4437133109e-03
 23         1.8359371230e-04
 24        -1.5580508689e-03
 25        -3.7997432156e-04
 26        -6.7356260157e-04
 27        -1.0945856645e-03
 28        -2.8076486696e-04
 29        -4.0918790589e-03
 30         4.1031308360e-02
 31         3.3191649046e-02
 32         2.6742687827e-02
 33        -1.8144076117e-02
 34        -6.3012511666e-03
 35         1.9721301715e-02
 36         6.2600346690e-04
 37        -4.2939746866e-03
 38        -3.7523609402e-03
 39        -2.2353960169e-03
 40         9.2129096627e-04
 41         1.4922482606e-03
 42        -8.6586842065e-03
 43        -1.4686253949e-02
 44         2.0987633710e-01
 45         8.2932045048e-02
 46         1.6986698183e-01
 47         5.1023168881e-03
 48        -2.1651595344e-02
 49         1.2884101877e-02
 50        -1.9761350782e-03
 51        -8.5791005707e-04
 52        -1.3725777163e-02
 53        -7.8853267434e-03
 54        -2.1062016458e-03
 55         3.1286661833e-02
 56        -2.9331224659e-03
 57        -9.2995466979e-03
 58         4.0235853753e-01
 59         3.7609251973e-01
 60        -1.4123075208e-01
 61         2.8445804226e-02
 62         1.2733978455e-02
 63        -3.3250575982e-02
 64         1.2404949652e-02
 65         1.9799900821e-03
 66        -6.4768166368e-03
 67        -2.6374994832e-03
 68        -1.5443418597e-03
 69         9.7156171390e-03
 70        -1.8497872400e-03
 71         4.9806405234e-02
 72         3.5623821913e-03
 73        -5.4123390309e-03
 74        -6.2722680869e-03
 75         3.1481652759e-03
 76         2.4182525560e-03
 77        -4.0369779797e-03
 78        -4.3191614083e-04
 79        -7.1512612423e-04
 80         3.5936958952e-04
 81         9.0371067045e-03
 82         3.7964189526e-03
 83        -1.1249413320e-03
 84        -1.1209870676e-03
 85        -1.1397457235e-03
 86         3.9124980620e-02
 87        -2.8173006782e-03
 88         8.7295192126e-03
 89         6.8868356401e-03
 90         3.5924047521e-04
 91         6.8092508349e-03
 92         6.1148997891e-03
 93         1.0246351418e-03
 94        -1.7099875589e-03
 95        -1.0418465633e-04
 96         2.7062621026e-03
 97        -7.4652221114e-04
 98        -1.4864657400e-04
 99        -7.1131392004e-04
100         3.6424875235e-05
 Sym= A
 Ene=        -8.1497612891e-01
 Spin= Alpha
 Occup=         2.0000000000e+00
  1         1.1431535626e-02
  2        -1.7763444905e-01
  3        -8.2722879822e-02
  4         7.7949335080e-02
  5         1.7447194224e-02
  6        -6.2871928597e-03
  7         4.2071726793e-03
  8        -7.2937976759e-03
  9         7.8690097481e-03
 10         6.3043301891e-03
 11         8.3173447313e-04
 12        -7.6211305574e-04
 13        -1.0530656438e-02
 14        -3.0591932488e-03
 15         1.9326458361e-02
 16        -2.8851853779e-01
 17        -1.9970951628e-01
 18        -1.6112002237e-02
 19         7.2500435947e-02
 20        -8.1853411493e-03
 21        -2.6243210654e-02
 22         2.9624966473e-02
 23        -9.6937502515e-03
 24         1.0464884952e-02
 25         2.2667550295e-03
 26         2.2442965567e-03
 27        -1.3154764637e-03
 28        -7.3624121470e-03
 29         1.7866688413e-02
 30        -2.4639021650e-01
 31        -1.3190354453e-01
 32        -6.4572393621e-02
 33        -4.7271495567e-02
 34         2.9088371957e-02
 35        -7.1727149080e-03
 36        -1.6276011867e-02
 37         7.7995425520e-03
 38         6.9086225078e-03
 39         3.4808057229e-03
 40         3.1557717420e-03
 41         7.8872819548e-03
 42        -7.9336557401e-03
 43         2.7464842901e-03
 44        -6.5260614324e-02
 45        -4.6273329238e-02
 46         9.0297344721e-02
 47        -8.5827391823e-02
 48        -1.2279635802e-02
 49         2.4935408314e-02
 50        -2.2236644012e-02
 51        -5.4085303545e-03
 52         2.6275400618e-03
 53        -1.1467371997e-03
 54        -1.3806530273e-03
 55         1.5519717448e-02
 56         3.8340016653e-03
 57        -2.9757829883e-04
 58         1.0126223800e-01
 59         1.0242477355e-01
 60        -1.6064980590e-02
 61        -2.6574550235e-02
 62         1.3193612550e-03
 63         1.2515524479e-03
 64        -9.9899186477e-03
 65        -3.8848141740e-04
 66         1.3134066757e-04
 67        -2.4489239717e-04
 68        -5.7852901985e-04
 69         1.7352345936e-03
 70         2.2975028476e-03
 71        -5.3239163748e-02
 72         2.6981983570e-03
 73         3.4597618045e-03
 74        -9.4272242040e-03
 75        -3.6622173677e-03
 76        -5.1968653908e-02
 77         2.0228855874e-03
 78         5.5294338591e-03
 79         6.6086768305e-03
 80        -3.7207193897e-03
 81        -6.5961264645e-02
 82        -4.3060851479e-03
 83         5.5969180377e-03
 84        -1.2990511207e-03
 85         7.9170884292e-03
 86        -1.5027008258e-02
 87        -8.2416711369e-04
 88         1.2237383999e-03
 89        -2.9154731410e-03
 90        -1.9651691660e-04
 91        -7.7518432444e-02
 92        -3.3236643231e-03
 93        -1.3251990775e-02
 94        -2.2519649463e-03
 95         7.4929514677e-04
 96        -9.5280138238e-02
 97        -1.3539085957e-02
 98        -6.9671778390e-03
 99         1.2199891687e-02
100        -4.8235736489e-03
 Sym= A
 Ene=        -7.2027528976e-01
 Spin= Alpha
 Occup=         2.0000000000e+00
  1         1.3295277412e-02
  2        -2.5741410505e-01
  3        -1.2185730106e-01
  4         3.3752726794e-02
  5         6.3375773325e-03
  6        -8.4330947797e-03
  7        -8.3932390487e-03
  8        -5.1099418312e-03
  9         6.2631455014e-03
 10         2.8368723087e-03
 11         3.0797985883e-05
 12        -1.5299641499e-03
 13        -3.1424909104e-03
 14         3.0668061872e-03
 15         5.9781822528e-03
 16        -8.1277428426e-02
 17        -9.2682714401e-02
 18        -1.3255486233e-01
 19        -7.7621973003e-02
 20         1.3717311426e-02
 21        -7.0829122507e-02
 22        -5.3292756963e-03
 23        -3.5879271300e-03
 24         2.9650706680e-03
 25        -6.5938766331e-04
 26        -1.3364647391e-03
 27        -1.7200756803e-02
 28         6.6665992053e-03
 29        -1.3478357236e-02
 30         2.2071039746e-01
 31         1.5037844004e-01
 32         3.1464762841e-03
 33        -8.5783113872e-02
 34        -1.6487146587e-02
 35         2.3415107516e-02
 36        -2.9221304070e-02
 37        -1.6852855587e-03
 38        -3.2976747922e-03
 39        -4.6867735927e-04
 40         3.0548861126e-03
 41        -8.3226955662e-03
 42        -9.4759425904e-03
 43        -5.4348083606e-03
 44         2.0606889531e-01
 45         1.1499122293e-01
 46        -1.0934061471e-01
 47         5.4691674769e-02
 48         1.3142198571e-02
 49        -3.6503337872e-02
 50         1.3915587953e-02
 51         2.1428888592e-03