Generated by Psi4
        SP                           RHF                       CC-PVDZ
Number of atoms                            I               11
Charge                                     I                0
Multiplicity                               I                1
Number of electrons                        I               38
Number of alpha electrons                  I               19
Number of beta electrons                   I               19
Number of basis functions                  I              100
Number of independent functions            I              100
Atomic numbers                             I   N=          11
           6           6           6           6           8           1
           1           1           1           1           1
Nuclear charges                            R   N=          11
  6.00000000e+00  6.00000000e+00  6.00000000e+00  6.00000000e+00  8.00000000e+00
  1.00000000e+00  1.00000000e+00  1.00000000e+00  1.00000000e+00  1.00000000e+00
  1.00000000e+00
Current cartesian coordinates              R   N=          33
  1.64443144e+00  3.00448919e+00  3.03159307e-01 -7.90424722e-01  2.41099165e+00
 -1.66489489e-01 -2.04561838e+00 -1.27428041e-02  2.91768945e-01 -8.90295802e-01
 -2.28176499e+00  1.02142884e-01  1.57910944e+00 -2.67541344e+00 -4.10118197e-01
  2.35620757e+00 -1.03003057e+00 -6.94548605e-01  2.43113024e+00  4.82623247e+00
 -2.69831978e-01  2.90248818e+00  1.74295393e+00  1.35724610e+00 -1.91889947e+00
 -4.07170443e+00  2.61107553e-01 -4.07955368e+00 -1.83873782e-02  6.28474696e-01
 -1.96407007e+00  3.85079731e+00 -1.09111912e+00
Integer atomic weights                     I   N=          11
          12          12          12          12          16           1
           1           1           1           1           1
Real atomic weights                        R   N=          11
  1.20000000e+01  1.20000000e+01  1.20000000e+01  1.20000000e+01  1.59949146e+01
  1.00782503e+00  1.00782503e+00  1.00782503e+00  1.00782503e+00  1.00782503e+00
  1.00782503e+00
Number of primitive shells                 I              140
Number of contracted shells                I               48
Pure/Cartesian d shells                    I                0
Pure/Cartesian f shells                    I                0
Highest angular momentum                   I                2
Largest degree of contraction              I                8
Shell types                                I   N=          48
           0           0           0           1           1          -2
           0           0           0           1           1          -2
           0           0           0           1           1          -2
           0           0           0           1           1          -2
           0           0           0           1           1          -2
           0           0           1           0           0           1
           0           0           1           0           0           1
           0           0           1           0           0           1
Number of primitives per shell             I   N=          48
           8           8           1           3           1           1
           8           8           1           3           1           1
           8           8           1           3           1           1
           8           8           1           3           1           1
           8           8           1           3           1           1
           3           1           1           3           1           1
           3           1           1           3           1           1
           3           1           1           3           1           1
Shell to atom map                          I   N=          48
           1           1           1           1           1           1
           2           2           2           2           2           2
           3           3           3           3           3           3
           4           4           4           4           4           4
           5           5           5           5           5           5
           6           6           6           7           7           7
           8           8           8           9           9           9
          10          10          10          11          11          11
Primitive exponents                        R   N=         140
  6.66500000e+03  1.00000000e+03  2.28000000e+02  6.47100000e+01  2.10600000e+01
  7.49500000e+00  2.79700000e+00  5.21500000e-01  6.66500000e+03  1.00000000e+03
  2.28000000e+02  6.47100000e+01  2.10600000e+01  7.49500000e+00  2.79700000e+00
  5.21500000e-01  1.59600000e-01  9.43900000e+00  2.00200000e+00  5.45600000e-01
  1.51700000e-01  5.50000000e-01  6.66500000e+03  1.00000000e+03  2.28000000e+02
  6.47100000e+01  2.10600000e+01  7.49500000e+00  2.79700000e+00  5.21500000e-01
  6.66500000e+03  1.00000000e+03  2.28000000e+02  6.47100000e+01  2.10600000e+01
  7.49500000e+00  2.79700000e+00  5.21500000e-01  1.59600000e-01  9.43900000e+00
  2.00200000e+00  5.45600000e-01  1.51700000e-01  5.50000000e-01  6.66500000e+03
  1.00000000e+03  2.28000000e+02  6.47100000e+01  2.10600000e+01  7.49500000e+00
  2.79700000e+00  5.21500000e-01  6.66500000e+03  1.00000000e+03  2.28000000e+02
  6.47100000e+01  2.10600000e+01  7.49500000e+00  2.79700000e+00  5.21500000e-01
  1.59600000e-01  9.43900000e+00  2.00200000e+00  5.45600000e-01  1.51700000e-01
  5.50000000e-01  6.66500000e+03  1.00000000e+03  2.28000000e+02  6.47100000e+01
  2.10600000e+01  7.49500000e+00  2.79700000e+00  5.21500000e-01  6.66500000e+03
  1.00000000e+03  2.28000000e+02  6.47100000e+01  2.10600000e+01  7.49500000e+00
  2.79700000e+00  5.21500000e-01  1.59600000e-01  9.43900000e+00  2.00200000e+00
  5.45600000e-01  1.51700000e-01  5.50000000e-01  1.17200000e+04  1.75900000e+03
  4.00800000e+02  1.13700000e+02  3.70300000e+01  1.32700000e+01  5.02500000e+00
  1.01300000e+00  1.17200000e+04  1.75900000e+03  4.00800000e+02  1.13700000e+02
  3.70300000e+01  1.32700000e+01  5.02500000e+00  1.01300000e+00  3.02300000e-01
  1.77000000e+01  3.85400000e+00  1.04600000e+00  2.75300000e-01  1.18500000e+00
  1.30100000e+01  1.96200000e+00  4.44600000e-01  1.22000000e-01  7.27000000e-01
  1.30100000e+01  1.96200000e+00  4.44600000e-01  1.22000000e-01  7.27000000e-01
  1.30100000e+01  1.96200000e+00  4.44600000e-01  1.22000000e-01  7.27000000e-01
  1.30100000e+01  1.96200000e+00  4.44600000e-01  1.22000000e-01  7.27000000e-01
  1.30100000e+01  1.96200000e+00  4.44600000e-01  1.22000000e-01  7.27000000e-01
  1.30100000e+01  1.96200000e+00  4.44600000e-01  1.22000000e-01  7.27000000e-01
Contraction coefficients                   R   N=         140
  6.91583963e-04  5.32579615e-03  2.70607210e-02  1.01656846e-01  2.74574824e-01
  4.48294319e-01  2.84902611e-01  1.51948592e-02 -2.93269653e-04 -2.31803547e-03
 -1.14997860e-02 -4.68267270e-02 -1.28466169e-01 -3.01266272e-01 -2.55630702e-01
  1.09379336e+00  1.00000000e+00  5.69792516e-02  3.13207212e-01  7.60376742e-01
  1.00000000e+00  1.00000000e+00  6.91583963e-04  5.32579615e-03  2.70607210e-02
  1.01656846e-01  2.74574824e-01  4.48294319e-01  2.84902611e-01  1.51948592e-02
 -2.93269653e-04 -2.31803547e-03 -1.14997860e-02 -4.68267270e-02 -1.28466169e-01
 -3.01266272e-01 -2.55630702e-01  1.09379336e+00  1.00000000e+00  5.69792516e-02
  3.13207212e-01  7.60376742e-01  1.00000000e+00  1.00000000e+00  6.91583963e-04
  5.32579615e-03  2.70607210e-02  1.01656846e-01  2.74574824e-01  4.48294319e-01
  2.84902611e-01  1.51948592e-02 -2.93269653e-04 -2.31803547e-03 -1.14997860e-02
 -4.68267270e-02 -1.28466169e-01 -3.01266272e-01 -2.55630702e-01  1.09379336e+00
  1.00000000e+00  5.69792516e-02  3.13207212e-01  7.60376742e-01  1.00000000e+00
  1.00000000e+00  6.91583963e-04  5.32579615e-03  2.70607210e-02  1.01656846e-01
  2.74574824e-01  4.48294319e-01  2.84902611e-01  1.51948592e-02 -2.93269653e-04
 -2.31803547e-03 -1.14997860e-02 -4.68267270e-02 -1.28466169e-01 -3.01266272e-01
 -2.55630702e-01  1.09379336e+00  1.00000000e+00  5.69792516e-02  3.13207212e-01
  7.60376742e-01  1.00000000e+00  1.00000000e+00  7.09645947e-04  5.46727229e-03
  2.78231186e-02  1.04747740e-01  2.82920846e-01  4.48495239e-01  2.70816885e-01
  1.54502916e-02 -3.14443412e-04 -2.48213768e-03 -1.23163554e-02 -5.05389173e-02
 -1.39384903e-01 -3.25077495e-01 -2.29848308e-01  1.09537935e+00  1.00000000e+00
  6.26791663e-02  3.33536566e-01  7.41239642e-01  1.00000000e+00  1.00000000e+00
  3.34987264e-02  2.34800801e-01  8.13682958e-01  1.00000000e+00  1.00000000e+00
  3.34987264e-02  2.34800801e-01  8.13682958e-01  1.00000000e+00  1.00000000e+00
  3.34987264e-02  2.34800801e-01  8.13682958e-01  1.00000000e+00  1.00000000e+00
  3.34987264e-02  2.34800801e-01  8.13682958e-01  1.00000000e+00  1.00000000e+00
  3.34987264e-02  2.34800801e-01  8.13682958e-01  1.00000000e+00  1.00000000e+00
  3.34987264e-02  2.34800801e-01  8.13682958e-01  1.00000000e+00  1.00000000e+00
Coordinates of each shell                  R   N=         144
  1.64443144e+00  3.00448919e+00  3.03159307e-01  1.64443144e+00  3.00448919e+00
  3.03159307e-01  1.64443144e+00  3.00448919e+00  3.03159307e-01  1.64443144e+00
  3.00448919e+00  3.03159307e-01  1.64443144e+00  3.00448919e+00  3.03159307e-01
  1.64443144e+00  3.00448919e+00  3.03159307e-01 -7.90424722e-01  2.41099165e+00
 -1.66489489e-01 -7.90424722e-01  2.41099165e+00 -1.66489489e-01 -7.90424722e-01
  2.41099165e+00 -1.66489489e-01 -7.90424722e-01  2.41099165e+00 -1.66489489e-01
 -7.90424722e-01  2.41099165e+00 -1.66489489e-01 -7.90424722e-01  2.41099165e+00
 -1.66489489e-01 -2.04561838e+00 -1.27428041e-02  2.91768945e-01 -2.04561838e+00
 -1.27428041e-02  2.91768945e-01 -2.04561838e+00 -1.27428041e-02  2.91768945e-01
 -2.04561838e+00 -1.27428041e-02  2.91768945e-01 -2.04561838e+00 -1.27428041e-02
  2.91768945e-01 -2.04561838e+00 -1.27428041e-02  2.91768945e-01 -8.90295802e-01
 -2.28176499e+00  1.02142884e-01 -8.90295802e-01 -2.28176499e+00  1.02142884e-01
 -8.90295802e-01 -2.28176499e+00  1.02142884e-01 -8.90295802e-01 -2.28176499e+00
  1.02142884e-01 -8.90295802e-01 -2.28176499e+00  1.02142884e-01 -8.90295802e-01
 -2.28176499e+00  1.02142884e-01  1.57910944e+00 -2.67541344e+00 -4.10118197e-01
  1.57910944e+00 -2.67541344e+00 -4.10118197e-01  1.57910944e+00 -2.67541344e+00
 -4.10118197e-01  1.57910944e+00 -2.67541344e+00 -4.10118197e-01  1.57910944e+00
 -2.67541344e+00 -4.10118197e-01  1.57910944e+00 -2.67541344e+00 -4.10118197e-01
  2.35620757e+00 -1.03003057e+00 -6.94548605e-01  2.35620757e+00 -1.03003057e+00
 -6.94548605e-01  2.35620757e+00 -1.03003057e+00 -6.94548605e-01  2.43113024e+00
  4.82623247e+00 -2.69831978e-01  2.43113024e+00  4.82623247e+00 -2.69831978e-01
  2.43113024e+00  4.82623247e+00 -2.69831978e-01  2.90248818e+00  1.74295393e+00
  1.35724610e+00  2.90248818e+00  1.74295393e+00  1.35724610e+00  2.90248818e+00
  1.74295393e+00  1.35724610e+00 -1.91889947e+00 -4.07170443e+00  2.61107553e-01
 -1.91889947e+00 -4.07170443e+00  2.61107553e-01 -1.91889947e+00 -4.07170443e+00
  2.61107553e-01 -4.07955368e+00 -1.83873782e-02  6.28474696e-01 -4.07955368e+00
 -1.83873782e-02  6.28474696e-01 -4.07955368e+00 -1.83873782e-02  6.28474696e-01
 -1.96407007e+00  3.85079731e+00 -1.09111912e+00 -1.96407007e+00  3.85079731e+00
 -1.09111912e+00 -1.96407007e+00  3.85079731e+00 -1.09111912e+00
Total Energy                               R     -2.312256319850331e+02
Alpha Orbital Energies                     R   N=         100
 -1.91742132e+01 -1.02507059e+01 -1.02062234e+01 -1.01907303e+01 -1.01824389e+01
 -1.06554884e+00 -8.01715768e-01 -7.31602840e-01 -6.28884662e-01 -5.79195508e-01
 -4.99252828e-01 -4.78288902e-01 -4.47487796e-01 -4.09513347e-01 -3.94529991e-01
 -3.76487347e-01 -3.47397804e-01 -2.99923014e-01 -2.18377768e-01 -2.56106218e-02
  5.63371864e-02  7.27582589e-02  8.06453719e-02  1.00763677e-01  1.25793413e-01
  1.41621323e-01  1.64737344e-01  2.21178279e-01  3.00780629e-01  3.21371676e-01
  3.49629394e-01  4.33822746e-01  4.45216898e-01  4.74694069e-01  4.78231241e-01
  4.94707046e-01  5.11596064e-01  5.34893625e-01  5.55126435e-01  5.65938925e-01
  5.81789654e-01  6.12675437e-01  6.27571041e-01  6.58067905e-01  6.74437556e-01
  7.19836242e-01  7.68476829e-01  7.94191619e-01  8.79817993e-01  9.07093321e-01
  9.40747223e-01  9.55391724e-01  9.63438443e-01  1.00120366e+00  1.03832579e+00
  1.05176525e+00  1.09448263e+00  1.10423078e+00  1.16322451e+00  1.19122422e+00
  1.22020658e+00  1.31929100e+00  1.36509815e+00  1.43385365e+00  1.45335883e+00
  1.48259680e+00  1.50489511e+00  1.52884219e+00  1.55532961e+00  1.58771655e+00
  1.60420514e+00  1.64631133e+00  1.68436125e+00  1.71605916e+00  1.73229484e+00
  1.75343003e+00  1.75814016e+00  1.82257693e+00  1.89572634e+00  1.92304862e+00
  1.98035226e+00  1.98754335e+00  2.03581387e+00  2.07800735e+00  2.09953774e+00
  2.17311568e+00  2.22151580e+00  2.26368664e+00  2.38784306e+00  2.39826093e+00
  2.42300383e+00  2.57429517e+00  2.73496220e+00  2.77938152e+00  2.87840812e+00
  2.95733006e+00  3.02137603e+00  3.17733186e+00  3.43740202e+00  3.69927837e+00
Alpha MO coefficients                      R   N=       10000
 -8.05224062e-05 -1.38547378e-04  1.23851910e-03 -1.03555719e-04  7.57936919e-05
  2.31301863e-05 -2.55985198e-04 -1.36271850e-03  1.57917614e-04 -7.08496190e-05
  1.32911585e-05  4.15878973e-05 -5.02479779e-05  7.71388852e-05  2.14260680e-04
  3.69205393e-04 -5.60364674e-03 -5.34914701e-06  4.57763463e-06  6.53299552e-05
  2.14547154e-04  2.97227687e-03 -8.97442021e-04  6.89134112e-05 -1.26292405e-04
  1.03318113e-04 -6.66140598e-06  2.06994752e-05 -1.90572522e-04 -2.77218652e-04
  4.80843535e-03  5.44709685e-05 -2.68468646e-04  7.36183146e-06  4.66446298e-03
  3.11983913e-03 -1.06841541e-03 -1.58992795e-04 -1.40565877e-04  6.73623673e-05
  3.89397931e-04 -3.96563554e-04 -1.95129456e-04 -3.54888804e-04 -5.72165475e-03
 -3.27965054e-04  2.15228997e-04  1.00519597e-04 -5.85336082e-03 -1.49899818e-03
  1.20448331e-03  4.03985245e-04  3.61299619e-06  7.00006523e-05  7.13352853e-04
 -4.00965124e-04 -1.00408501e+00 -9.36319495e-03  1.40437128e-02  8.88643588e-04
 -1.45580924e-03 -6.61769963e-05 -3.23222294e-03  1.40784843e-03  6.13492600e-04
  2.43938439e-05  1.31712278e-06  8.32164021e-05  1.50474302e-04 -2.66940174e-04
 -2.43464241e-04 -3.42620460e-04 -2.32462404e-04 -9.93602914e-04  5.60269920e-05
  5.54135867e-05  3.01755781e-04  3.76338528e-05  6.28536490e-05  7.98253008e-06
 -2.35198737e-04 -1.92851529e-04  2.97503402e-06 -2.77659282e-05 -1.56672143e-05
  4.02519601e-04 -8.98578942e-04  6.32862204e-04  1.47883062e-04 -1.25460827e-04
  1.66771703e-04  1.25758784e-03 -2.26377935e-04 -2.08233674e-04  6.29927865e-05
  8.86072343e-05 -6.16633275e-04 -3.47752612e-05 -1.08330583e-04  2.81618590e-05
 -2.79523814e-04 -3.42426904e-04  1.11161269e-03  1.45309933e-04  7.91194999e-05
  7.25267809e-05 -1.27146409e-03  5.01289315e-04 -6.37588287e-04 -7.46851594e-05
 -1.55163621e-05 -2.81197870e-05  5.46559664e-05 -3.86070706e-05 -4.95636538e-04
 -7.08176912e-04  4.85524510e-03 -1.16373254e-04  1.41150623e-05  1.80829609e-06
 -2.39812416e-03 -4.14344670e-03  7.55879720e-04 -3.52568143e-04 -9.48444145e-05
 -1.02978561e-04  5.32158186e-06  1.84992565e-04  4.60449130e-03 -1.01588099e-03
  1.62660239e-04 -5.77325441e-04  1.35694929e-03  9.53371102e-05 -1.94346081e-03
 -6.47568792e-03  7.58868364e-04  1.07475481e-03  2.39318853e-04 -5.53096099e-05
  5.65912594e-04  9.01793335e-04  1.00590610e+00  1.52824852e-02 -1.25505541e-02
  5.79777367e-04 -4.53281026e-04 -1.88492189e-04  5.06194309e-03 -2.37444180e-03
 -1.00771963e-03 -1.63306754e-03 -5.07220362e-04  4.34518482e-05 -3.14012286e-04
 -2.06189895e-05  7.18436416e-04  1.29717362e-03 -4.93299470e-03  2.65714935e-04
 -2.08800452e-04 -3.51572734e-05  3.26818361e-03 -2.49654259e-04 -7.04135255e-04
  6.95750318e-04  4.32134596e-04 -1.97755248e-05 -7.65921750e-04  1.93284145e-04
  5.16687338e-04 -4.46115525e-04 -6.25922433e-04 -2.44607678e-05  1.19874094e-04
 -5.57811635e-05  1.64575821e-04 -2.58184979e-05 -5.48667404e-05  3.06766966e-05
  6.32145972e-06  9.42268321e-04  1.03797233e-05  6.29338050e-05 -2.95093725e-05
 -2.14490273e-03  2.30760505e-03 -1.53021934e-03 -1.59297169e-03  2.55399808e-04
 -1.37465600e-04 -2.56817808e-04  3.05617597e-04  2.93039597e-04 -7.59955751e-05
 -5.51828282e-05  5.47272557e-04  1.71715315e-04  1.30613458e-04 -3.10325081e-05
  2.20712762e-02 -1.12933127e-03  4.79184785e-03  1.33145860e-03  3.37868110e-04
  1.63576417e-04 -2.07522988e-03 -1.81328804e-03  3.78864392e-04  7.60929666e-04
 -5.35406607e-04 -2.67934111e-05 -1.06567389e-03 -4.02233895e-04  1.00618457e+00
  1.62578191e-02 -1.92179241e-02 -1.21974693e-04  2.10619827e-04 -2.56805081e-04
 -1.71342209e-03  3.20284459e-03 -1.73290745e-03 -7.48003730e-04  7.03561180e-04
 -6.50209087e-04  2.34675989e-04 -2.94080492e-05  5.47160495e-03 -4.39382119e-04
  1.10946212e-03 -4.63318978e-04 -6.20765550e-04  1.42698931e-04  7.85249293e-04
  3.86395788e-03  2.72268626e-04  7.96228883e-04  3.41312693e-05  5.79491828e-04
  1.09921877e-03 -9.59677057e-04 -3.55065165e-04 -7.03217466e-04  4.10742542e-03
 -1.05990314e-04 -1.62895953e-04  1.28624451e-04 -6.15212643e-04  2.77385004e-03
 -2.63414122e-04 -4.29248170e-04 -3.16183322e-04  6.17691099e-05  4.12067761e-04
 -3.12775930e-04  8.78576552e-05  1.28060176e-04 -1.22546529e-03  1.63841638e-04
 -4.17414824e-05 -2.63469903e-05  1.35838559e-04 -6.82706587e-04  8.36003573e-05
  8.30429621e-05  2.53987888e-05  1.83923910e-05 -1.53134725e-05  1.58553180e-05
  2.88877073e-04  6.05974657e-04 -2.78342805e-04 -7.96503243e-05 -2.06001044e-05
 -5.01725612e-05  8.98028893e-04  1.43965438e-04 -1.14152759e-04  7.69399174e-05
 -2.66405698e-04 -2.12909668e-04  3.67522921e-05  2.41181560e-04 -1.10584528e-04
  1.01902773e-04  7.93591320e-04  1.79800094e-04 -5.34670580e-05  2.48486381e-06
 -2.98453816e-04  4.21179462e-04 -7.17288122e-05 -3.87314256e-04 -5.82405946e-05
 -2.29004485e-03  1.20256632e-03 -1.15066612e-03  1.50752772e-03 -9.47989762e-04
  1.00618121e+00  1.63553919e-02 -1.52617403e-02  2.78260594e-04 -5.49042862e-05
  2.92651390e-05  2.20635536e-03  7.36159608e-04  7.36267497e-04 -1.04165354e-03
  7.25174106e-04 -1.18804699e-03  4.97244082e-05  3.27838201e-04 -2.32975002e-02
 -1.44995908e-03  1.02336996e-03 -1.33867819e-03 -3.31820077e-04 -2.73160198e-04
  2.92238467e-03  2.47744435e-03 -3.44526431e-05  1.00059864e-03 -5.85874501e-04
  1.84642373e-04 -9.95285747e-04 -7.70336591e-04 -1.03831900e-03 -5.17420338e-04
  3.48431552e-03 -8.38751633e-05  5.12333384e-05 -6.56114115e-05  1.92520593e-03
  2.46165189e-03 -5.00929174e-04 -3.73239893e-04  7.61783928e-05 -2.43598316e-04
 -3.37698991e-04  3.10598115e-05  1.05527980e-05 -2.06297190e-04 -6.32374717e-04
 -1.96702633e-07 -1.33879331e-04 -5.10211240e-05 -1.31120318e-03 -1.60722346e-04
  3.00590314e-04  5.93778966e-05  9.87406892e-05 -8.96253172e-05 -4.65493229e-05
  1.05167174e-04  1.13082070e-05  3.57685245e-05  4.08410308e-04  1.20606131e-04
  6.75972305e-05 -3.71388043e-05 -6.61231092e-04 -1.69121841e-04  1.00932429e-04
 -3.19315140e-05 -3.33797394e-05 -2.71012742e-05  7.89087544e-05  5.62874930e-05
  1.68264724e-04  1.27453233e-03 -1.20038860e-04  4.27437318e-04  8.60841968e-05
 -2.30853037e-03  1.89164424e-03  7.49610239e-04  2.01643040e-03 -7.04219080e-04
 -2.12795490e-03  1.49167651e-03  1.21906553e-03 -1.48703754e-03  1.21646615e-03
 -8.17833681e-05 -3.61175858e-05  4.00765931e-05  1.92686260e-05 -1.99702102e-05
  1.10589183e-04  5.77103230e-04  1.28428109e-05 -1.30952831e-04  4.39901312e-05
  8.20862580e-05  2.58025947e-04  1.77263508e-05 -3.16775486e-04  1.08993621e-04
  3.25658359e-04 -4.48896448e-04  2.77429080e-03  7.34153552e-05  1.05476680e-04
 -8.60494686e-05 -2.07837122e-03 -4.13587131e-04 -4.38595099e-05 -2.54724613e-04
  5.20972654e-04 -3.01184719e-04  2.73087456e-04 -4.84257200e-04 -5.85365132e-03
 -6.84772417e-04  3.03702437e-03  2.08324106e-04  6.97630598e-04 -1.76619634e-04
 -2.07544437e-03 -3.86271679e-03 -3.36791938e-05  9.04405522e-04  4.95728426e-04
  3.53342907e-04  5.59750626e-04 -1.31064173e-03  1.00664840e+00  1.67492080e-02
 -2.18672848e-02 -2.32582709e-04 -1.64043100e-04 -1.02636093e-04 -5.15401051e-03
 -2.52754209e-04  1.56645618e-03 -1.07640342e-03 -3.95752188e-04 -3.66151156e-06
  2.93405149e-04 -2.15198403e-04 -5.86483116e-03 -1.59971395e-03  6.75959416e-03
  6.39734239e-04 -1.23725562e-03 -9.27730674e-05  3.09624046e-04  4.20503201e-03
 -3.34292335e-04  8.42089471e-04  1.60721170e-04 -2.05447610e-04  7.03120597e-04
  1.01421997e-03  3.36187963e-05  4.71934949e-05 -9.67254049e-04  2.92363694e-05
 -5.88689356e-05 -2.82437795e-06 -1.04594520e-04 -7.03157323e-04  6.62578275e-05
 -5.77259338e-05 -4.14763108e-05 -1.13627840e-05  9.46346685e-05  8.04154439e-05
  2.71671175e-04  3.91776129e-05 -1.39083343e-04 -1.60920658e-04  2.29277643e-05
  1.13511338e-04  5.05057367e-04  1.40288414e-04 -1.47238657e-04  5.05611705e-05
 -6.99920313e-04  5.07203695e-04  1.88184288e-04 -1.23408423e-04  1.19922388e-04
  1.50074146e-04  1.20872159e-03  2.86873389e-04 -2.06033248e-05 -1.64375440e-05
 -2.39839310e-03  8.38803708e-04 -2.12018187e-03 -5.80290140e-05  2.79759948e-04
 -3.39290869e-04  7.08654154e-04  2.00626724e-04  2.88659470e-04  7.18824134e-05
  1.53370544e-04  8.46298325e-03 -4.66763859e-03 -1.87999657e-03 -5.11529214e-03
 -6.68946525e-04  2.76476088e-03  5.30964618e-03 -1.91302801e-03 -2.47118946e-04
 -5.66984514e-04  6.97514276e-04 -8.11867009e-04  9.67111819e-04 -1.08799996e-04
  1.30873992e-02  2.29755405e-03  1.55101583e-03 -8.63058674e-03  9.47684327e-04
  6.20542386e-03  3.11319013e-03  2.41551352e-04 -1.39510191e-03 -1.50205556e-04
 -4.23129733e-04 -1.32352253e-03  4.13109671e-04 -1.28904750e-03  3.52271641e-02
 -4.88309625e-03  2.12574965e-02 -1.81201356e-02 -4.29726063e-03  5.11354673e-03
  1.52670623e-02 -2.06633520e-03 -2.22169362e-03 -1.08993409e-03  1.53754376e-03
  2.15551516e-03 -8.04699317e-03 -1.27059889e-02  1.54045368e-01  8.55208707e-02
  1.26052669e-01 -5.35517079e-03 -2.71542804e-02  4.96641253e-03  2.44232209e-02
 -1.13655140e-03 -1.11051776e-02 -1.07860035e-02  8.63352286e-04  2.83826323e-02
 -4.71547931e-03 -6.72123032e-03  4.23960959e-01  3.72156158e-01 -7.29104441e-02
  9.03617150e-02  9.60080993e-03 -3.11593292e-02 -1.98902869e-03  6.77005848e-03
 -6.35327991e-03 -3.35753202e-03 -3.23241489e-04  3.96368784e-03 -1.76666183e-03
  1.72029195e-01  4.99627615e-03 -1.89204772e-02 -2.98647283e-02  6.74789225e-03
  1.94847518e-05 -3.97491576e-03  5.29801721e-05  1.04383506e-04 -1.61605697e-04
  7.57069300e-03  4.59185262e-03 -1.14641389e-03 -6.37332139e-04 -9.07754397e-04
  3.41717791e-02  5.47507035e-03  8.25044124e-03  4.52009082e-03 -1.50001581e-03
  5.09321666e-03  1.91028703e-03  4.40875058e-04 -2.29306143e-03  1.13649326e-05
  1.64599815e-03 -1.07976495e-03 -3.04981281e-04 -4.47429027e-04 -8.83458840e-05
  1.47674595e-02 -1.92463894e-01 -1.04509734e-01  8.31056147e-02  2.92012839e-02
  1.38727278e-02  8.65026965e-03 -2.88266328e-03  8.28748093e-03  4.80988833e-03
 -2.30008086e-03 -3.31814980e-03 -7.81929877e-03 -6.00493038e-03  1.93565352e-02
 -2.77851265e-01 -1.77957126e-01 -3.82522555e-02  3.99685210e-02 -1.87683635e-02
 -1.87490462e-02  2.06458650e-02 -1.37789585e-02  1.04794489e-02 -8.44533892e-04
  1.27303709e-03 -1.54978955e-03 -1.09782073e-02  1.81986323e-02 -2.40795163e-01
 -1.42389909e-01 -5.44491821e-02 -1.53188652e-02  1.51500141e-02 -1.94983604e-02
 -1.19064949e-02  9.62237080e-03  8.65733413e-03  1.69803619e-03  2.57647132e-03
  9.46571430e-03 -5.30014809e-03  5.45946328e-03 -1.24288651e-01 -6.66573095e-02
  6.08359918e-02 -8.55824088e-02 -1.00941740e-02  2.34889000e-02 -1.23692031e-02
 -6.74081689e-03  3.35905608e-03 -1.65362079e-03 -5.36689232e-04  1.21074206e-02
  4.12238301e-03  1.09786163e-03  8.81826297e-02  8.11638040e-02  2.68670442e-02
  2.34045591e-03 -7.24565689e-03  1.63580440e-02 -7.91441564e-03 -3.32710988e-03
  7.91230720e-04  4.08294674e-04 -6.94400059e-04 -1.06666118e-03  2.92170903e-03
  3.39176034e-02  3.71793632e-03 -1.97517230e-03 -9.18743885e-03  2.52204001e-04
 -5.98627793e-02 -5.45736734e-04  5.87067850e-03  8.83238294e-03 -2.17340128e-03
 -6.94906123e-02 -4.66660779e-03  8.17539273e-03 -5.58318482e-03  5.83923746e-03
 -3.28119487e-02  1.16775954e-03 -4.85974275e-04 -5.80800310e-03  2.10655964e-04
 -8.14452674e-02 -8.67747679e-03 -1.30638194e-02 -9.29655546e-04  2.06435054e-03
 -9.54725727e-02 -1.22084176e-02 -8.50555771e-03  1.07733862e-02 -6.38890486e-03
  1.62718198e-02 -2.27053301e-01 -1.26676677e-01  5.43282068e-02  9.26478536e-03
  1.37765730e-02  2.57770987e-03  1.02083680e-03  2.84523748e-03  3.10348884e-03
 -2.58283374e-03 -2.24620981e-03 -5.46911170e-03  5.56850823e-05  8.85665197e-03
 -1.34316451e-01 -1.01376812e-01 -1.09576070e-01 -7.65315343e-02 -6.63073211e-03
 -4.77046850e-02 -1.26580024e-02 -6.56206921e-03  2.36430517e-03 -4.14608233e-03
 -2.56859584e-03 -1.45062650e-02  4.00351230e-04 -1.33868032e-02  1.98806009e-01
  1.29839153e-01  1.00831432e-02 -1.19681714e-01 -4.50581179e-03  1.88359218e-02
 -3.33889738e-02 -2.76013261e-04 -3.37307505e-03  1.78339844e-04  1.99413975e-03
 -6.80748453e-03 -1.21149188e-02 -9.96748395e-03  2.51783794e-01  1.40265847e-01
 -7.26382107e-02  5.95669762e-02  1.11458524e-02 -2.26314996e-02  9.52987531e-03
  2.67315427e-03 -5.34055235e-03 -3.28227496e-04  1.35089619e-03 -5.30335865e-03
 -1.10128986e-02 -1.96992563e-03 -8.76218894e-02 -7.71642327e-02 -1.09555452e-01
 -4.51969323e-02  2.53880639e-02 -5.02458992e-02 -3.18308311e-03  1.01405302e-02
 -1.51051069e-03 -1.44740107e-03  1.31952689e-03  5.98662057e-03 -5.06577333e-03
 -1.08791883e-01 -2.04254987e-02  4.93354764e-03  1.15902141e-02 -3.18958337e-03
 -9.58685049e-02 -9.60439720e-03  6.07550067e-03  1.25982624e-02 -3.51623416e-03
 -9.55962693e-02 -1.22962091e-02  9.12260138e-03 -6.70789911e-03  7.85122081e-03
  1.07989784e-01  9.37219776e-03  5.21143575e-03  1.39309097e-02 -7.71996623e-04
  9.00376782e-02  1.38166187e-02  1.22886481e-02 -3.06497134e-03 -2.23322270e-03
 -5.76342295e-02 -1.17461916e-02 -6.75675972e-03  3.46113304e-03 -3.60925695e-03
  1.04314107e-02 -1.88998249e-01 -1.22875727e-01 -2.22616696e-02 -3.04537183e-02
  2.35307813e-04 -2.13155934e-02  4.59629301e-03 -8.48814557e-03 -1.53369470e-03
 -3.12558955e-04  4.92605026e-04  4.82491827e-04  2.28159849e-03 -2.68641276e-03
  8.39464993e-02  4.13749616e-02 -1.46982541e-01 -9.47201456e-02 -8.94111487e-03
 -4.91522022e-02 -4.04362353e-02 -8.63255515e-04 -9.79886533e-04 -4.60466669e-03
 -2.60616772e-03 -9.52635997e-03  1.46483708e-03 -6.01922572e-03  1.58657867e-01
  9.25016749e-02 -1.76878400e-02  1.17960107e-01 -1.30582627e-02  5.10366435e-03
  4.37185999e-02 -5.19329519e-03 -8.15478036e-04 -1.08156771e-03 -4.06092319e-03
 -2.22240306e-03  7.45094814e-03  3.09367007e-03 -2.07599301e-01 -1.26534808e-01
 -4.96704201e-02  1.44322991e-01  4.76389449e-03 -1.97506413e-02  3.53627109e-02
  9.67620635e-04  1.98028726e-03  2.30796973e-03 -2.93947681e-03 -8.94424184e-03
  9.58959120e-03  5.14007285e-04  5.34903610e-02  5.18810204e-02  2.37473159e-01
  1.41879025e-01 -6.16068245e-02  1.03319677e-01  4.34415191e-02 -2.56432418e-02
  1.24433888e-03  2.83965529e-03 -1.64300399e-03 -1.19874628e-02  3.84289632e-03
  1.90781042e-01  3.83813848e-02 -8.24168102e-03 -2.34874064e-02  2.95201366e-03
 -1.22808062e-01 -2.65604332e-02  5.08993128e-03  1.26135851e-02 -4.30038863e-03
 -9.20236922e-02 -6.07175890e-03  6.44633317e-03 -9.38825690e-03  5.81967284e-03
 -1.62966464e-01 -3.05819910e-02 -9.41602261e-03 -1.40991592e-02  1.23369620e-03
  9.42395442e-02  2.02530468e-02  1.05792987e-02  2.65134615e-03 -2.11113280e-03
  5.65053472e-02  1.12167055e-02  4.86592003e-04 -6.33498830e-03  2.35884040e-03
  6.75240344e-03 -1.39265242e-01 -8.49448389e-02 -1.40532846e-01  2.23140362e-02
 -4.25982728e-02 -5.60768430e-02  1.28923075e-02 -1.45332490e-02 -3.09103728e-03
  3.43155434e-03 -1.95542336e-05  1.08913736e-02  2.94580837e-03 -4.30478133e-03
  2.12423515e-01  1.22092770e-01 -1.05762805e-01  5.06356231e-02 -4.10708023e-02
 -4.46389462e-02  7.45407862e-03 -1.19547888e-02  4.17869406e-03 -2.60172191e-03
 -6.41499298e-04 -2.19899685e-03 -1.87002888e-04  1.92258962e-03 -7.67562639e-02
 -2.02649199e-02 -4.92629574e-03  1.85825932e-01 -2.05020559e-02  1.69462549e-03
  4.21616727e-02 -9.11617017e-03 -1.41468305e-03 -1.37741529e-03 -4.78590058e-03
 -3.64893264e-03  6.14545606e-03  2.69336589e-03 -1.48755081e-02 -1.74588512e-02
  1.58457026e-01 -1.74138627e-01 -3.56292099e-02  4.74718673e-02 -6.26727514e-02
 -1.05614930e-02 -2.25958721e-03 -2.67375007e-03  1.14087194e-03  1.02202166e-02
 -9.90132452e-03  1.27388726e-03  3.89572373e-02  6.04045829e-02 -1.96629756e-01
 -1.75572464e-01  4.53637291e-02 -7.57936971e-02 -7.09784932e-02  1.49431564e-02
  1.03397003e-03 -1.34228389e-03  9.21567238e-04  1.06542575e-02 -1.71045946e-03
 -1.87711582e-01 -4.74256046e-02  5.95048458e-03  1.24987944e-02 -5.42906144e-03
 -9.58755738e-02 -2.31405994e-02  3.22260877e-04  1.02698987e-02 -4.10123657e-03
 -1.68676073e-01 -3.63273817e-02  7.32203512e-03 -7.08959499e-03  1.01449891e-02
  2.89911348e-02  3.46540399e-03  3.50686197e-03  2.89343836e-04 -7.49110254e-04
 -4.22230928e-02 -9.67080766e-03 -5.29448482e-03  3.90468571e-03  4.72866118e-04
  1.87150523e-01  3.96665293e-02  9.31423324e-03 -1.30171494e-02  8.53549365e-03
 -7.56849237e-04  3.64985749e-02  4.20782988e-02  6.53800415e-02  1.43133345e-01
 -2.82530653e-02  1.20170067e-02  5.78420616e-02 -1.17242542e-02  2.18343173e-03
 -1.41338081e-03 -2.34237990e-03 -5.28903291e-04 -3.90682450e-03 -3.33459030e-04
 -3.02804454e-02 -1.61173633e-02 -9.04497011e-02  1.49174712e-01 -4.91768192e-02
 -5.35208345e-02  4.62363606e-02 -1.17059073e-02  9.57475909e-04 -1.76752760e-03
 -8.83807147e-04  6.98451017e-03  8.55439211e-03 -4.20737522e-03  3.09471266e-02