[Molden Format]
[Atoms] (AU)
C    1    6           1.6674998362         2.8124805323         0.2012938835
C    2    6          -0.8368844103         2.3513915907        -0.0818087275
C    3    6          -2.1166444913        -0.0466716751         0.3867641721
C    4    6          -0.8612298276        -2.2644679187         0.0448101795
O    5    8           1.6290385238        -2.4480485001        -0.3749671758
H    6    1           2.2366621771        -0.7180166855        -0.6249922664
H    7    1           2.5972686170         4.3644329661        -0.7748498725
H    8    1           2.8556839214         1.6661507438         1.4386164227
H    9    1          -1.8092686318        -4.1027796040        -0.1155242761
H   10    1          -4.1758360023        -0.1103813537         0.5039681612
H   11    1          -1.9914898387         3.7859026291        -1.0375881333
[GTO]
  1 0
 s    8  1.00
     6665.0000000000         0.0006920000
     1000.0000000000         0.0053290000
      228.0000000000         0.0270770000
       64.7100000000         0.1017180000
       21.0600000000         0.2747400000
        7.4950000000         0.4485640000
        2.7970000000         0.2850740000
        0.5215000000         0.0152040000
 s    8  1.00
     6665.0000000000        -0.0001460000
     1000.0000000000        -0.0011540000
      228.0000000000        -0.0057250000
       64.7100000000        -0.0233120000
       21.0600000000        -0.0639550000
        7.4950000000        -0.1499810000
        2.7970000000        -0.1272620000
        0.5215000000         0.5445290000
 s    1  1.00
        0.1596000000         1.0000000000
 p    3  1.00
        9.4390000000         0.0381090000
        2.0020000000         0.2094800000
        0.5456000000         0.5085570000
 p    1  1.00
        0.1517000000         1.0000000000
 d    1  1.00
        0.5500000000         1.0000000000

  2 0
 s    8  1.00
     6665.0000000000         0.0006920000
     1000.0000000000         0.0053290000
      228.0000000000         0.0270770000
       64.7100000000         0.1017180000
       21.0600000000         0.2747400000
        7.4950000000         0.4485640000
        2.7970000000         0.2850740000
        0.5215000000         0.0152040000
 s    8  1.00
     6665.0000000000        -0.0001460000
     1000.0000000000        -0.0011540000
      228.0000000000        -0.0057250000
       64.7100000000        -0.0233120000
       21.0600000000        -0.0639550000
        7.4950000000        -0.1499810000
        2.7970000000        -0.1272620000
        0.5215000000         0.5445290000
 s    1  1.00
        0.1596000000         1.0000000000
 p    3  1.00
        9.4390000000         0.0381090000
        2.0020000000         0.2094800000
        0.5456000000         0.5085570000
 p    1  1.00
        0.1517000000         1.0000000000
 d    1  1.00
        0.5500000000         1.0000000000

  3 0
 s    8  1.00
     6665.0000000000         0.0006920000
     1000.0000000000         0.0053290000
      228.0000000000         0.0270770000
       64.7100000000         0.1017180000
       21.0600000000         0.2747400000
        7.4950000000         0.4485640000
        2.7970000000         0.2850740000
        0.5215000000         0.0152040000
 s    8  1.00
     6665.0000000000        -0.0001460000
     1000.0000000000        -0.0011540000
      228.0000000000        -0.0057250000
       64.7100000000        -0.0233120000
       21.0600000000        -0.0639550000
        7.4950000000        -0.1499810000
        2.7970000000        -0.1272620000
        0.5215000000         0.5445290000
 s    1  1.00
        0.1596000000         1.0000000000
 p    3  1.00
        9.4390000000         0.0381090000
        2.0020000000         0.2094800000
        0.5456000000         0.5085570000
 p    1  1.00
        0.1517000000         1.0000000000
 d    1  1.00
        0.5500000000         1.0000000000

  4 0
 s    8  1.00
     6665.0000000000         0.0006920000
     1000.0000000000         0.0053290000
      228.0000000000         0.0270770000
       64.7100000000         0.1017180000
       21.0600000000         0.2747400000
        7.4950000000         0.4485640000
        2.7970000000         0.2850740000
        0.5215000000         0.0152040000
 s    8  1.00
     6665.0000000000        -0.0001460000
     1000.0000000000        -0.0011540000
      228.0000000000        -0.0057250000
       64.7100000000        -0.0233120000
       21.0600000000        -0.0639550000
        7.4950000000        -0.1499810000
        2.7970000000        -0.1272620000
        0.5215000000         0.5445290000
 s    1  1.00
        0.1596000000         1.0000000000
 p    3  1.00
        9.4390000000         0.0381090000
        2.0020000000         0.2094800000
        0.5456000000         0.5085570000
 p    1  1.00
        0.1517000000         1.0000000000
 d    1  1.00
        0.5500000000         1.0000000000

  5 0
 s    8  1.00
    11720.0000000000         0.0007100000
     1759.0000000000         0.0054700000
      400.8000000000         0.0278370000
      113.7000000000         0.1048000000
       37.0300000000         0.2830620000
       13.2700000000         0.4487190000
        5.0250000000         0.2709520000
        1.0130000000         0.0154580000
 s    8  1.00
    11720.0000000000        -0.0001600000
     1759.0000000000        -0.0012630000
      400.8000000000        -0.0062670000
      113.7000000000        -0.0257160000
       37.0300000000        -0.0709240000
       13.2700000000        -0.1654110000
        5.0250000000        -0.1169550000
        1.0130000000         0.5573680000
 s    1  1.00
        0.3023000000         1.0000000000
 p    3  1.00
       17.7000000000         0.0430180000
        3.8540000000         0.2289130000
        1.0460000000         0.5087280000
 p    1  1.00
        0.2753000000         1.0000000000
 d    1  1.00
        1.1850000000         1.0000000000

  6 0
 s    3  1.00
       13.0100000000         0.0196850000
        1.9620000000         0.1379770000
        0.4446000000         0.4781480000
 s    1  1.00
        0.1220000000         1.0000000000
 p    1  1.00
        0.7270000000         1.0000000000

  7 0
 s    3  1.00
       13.0100000000         0.0196850000
        1.9620000000         0.1379770000
        0.4446000000         0.4781480000
 s    1  1.00
        0.1220000000         1.0000000000
 p    1  1.00
        0.7270000000         1.0000000000

  8 0
 s    3  1.00
       13.0100000000         0.0196850000
        1.9620000000         0.1379770000
        0.4446000000         0.4781480000
 s    1  1.00
        0.1220000000         1.0000000000
 p    1  1.00
        0.7270000000         1.0000000000

  9 0
 s    3  1.00
       13.0100000000         0.0196850000
        1.9620000000         0.1379770000
        0.4446000000         0.4781480000
 s    1  1.00
        0.1220000000         1.0000000000
 p    1  1.00
        0.7270000000         1.0000000000

  10 0
 s    3  1.00
       13.0100000000         0.0196850000
        1.9620000000         0.1379770000
        0.4446000000         0.4781480000
 s    1  1.00
        0.1220000000         1.0000000000
 p    1  1.00
        0.7270000000         1.0000000000

  11 0
 s    3  1.00
       13.0100000000         0.0196850000
        1.9620000000         0.1379770000
        0.4446000000         0.4781480000
 s    1  1.00
        0.1220000000         1.0000000000
 p    1  1.00
        0.7270000000         1.0000000000

[5D7F]
[9G]

[MO]
 Sym= A
 Ene=        -1.9170231159e+01
 Spin= Alpha
 Occup=         2.0000000000e+00
  1        -1.4889374604e-04
  2        -2.5674751987e-04
  3         1.7116162999e-03
  4        -9.6667893313e-05
  5         3.4868890496e-05
  6         2.2136711755e-05
  7        -2.0752145677e-04
  8        -1.2159816660e-03
  9         9.9251614534e-05
 10        -7.4113100071e-05
 11        -3.4666463517e-05
 12         5.7554170978e-05
 13        -1.3051659080e-04
 14         6.0342482331e-05
 15         1.8944882994e-04
 16         3.3269509343e-04
 17        -4.9289663856e-03
 18         3.5501548796e-05
 19         8.4893277960e-06
 20         8.8139795985e-05
 21         2.4661750195e-05
 22         2.5654131700e-03
 23        -9.2858647043e-04
 24         6.3886366247e-05
 25        -1.0577207516e-04
 26         1.0165557814e-04
 27        -7.6349960327e-07
 28         2.9117847342e-05
 29        -1.6096837166e-04
 30        -2.2407609981e-04
 31         4.6946953103e-03
 32         9.0227215488e-05
 33        -2.6352194399e-04
 34        -3.8642779176e-05
 35         4.3808241452e-03
 36         2.5612040273e-03
 37        -6.8611026894e-04
 38        -1.3448678455e-04
 39        -1.4509752535e-04
 40        -1.6604654279e-05
 41         4.1548516526e-04
 42        -3.6176482603e-04
 43        -1.9976250725e-04
 44        -3.4827646626e-04
 45        -6.0256992085e-03
 46        -3.2303025881e-04
 47         1.6954592070e-04
 48         1.1957923548e-04
 49        -5.2737968499e-03
 50        -1.9570924595e-03
 51         6.8015209031e-04
 52         3.7036088934e-04
 53        -3.6328357012e-05
 54        -1.3175861733e-04
 55         7.8433222144e-04
 56        -3.3824165767e-04
 57        -1.0040935920e+00
 58        -9.3896486644e-03
 59         1.4035580402e-02
 60         1.0484841208e-03
 61        -1.3244267094e-03
 62        -3.6372169232e-05
 63        -3.1907184225e-03
 64         1.1977074051e-03
 65         4.7260258297e-04
 66         2.0846049192e-05
 67        -3.1933112405e-07
 68         7.7354202835e-05
 69         1.7609756472e-04
 70        -2.2375972645e-04
 71        -3.5093050669e-04
 72        -7.5436198168e-04
 73        -1.2367261058e-04
 74        -1.0082630746e-03
 75         1.8388895527e-06
 76        -4.4940450967e-05
 77         1.3493067643e-04
 78         3.4850740901e-05
 79         7.8456365926e-05
 80         4.6897797467e-06
 81        -1.8772676461e-04
 82        -1.6752628389e-04
 83        -4.2084406656e-06
 84        -2.1718075624e-05
 85        -1.8715043666e-05
 86         4.5994652219e-04
 87        -8.4393690967e-04
 88         6.1658281630e-04
 89         1.9739646941e-04
 90        -7.0397081541e-05
 91         1.4771719188e-04
 92         1.1662683170e-03
 93        -2.1574539049e-04
 94        -1.9171497731e-04
 95         4.9140887498e-05
 96         4.7427695811e-05
 97        -5.9536315667e-04
 98        -2.6022674854e-05
 99        -7.8070674003e-05
100         3.8334355509e-05
 Sym= A
 Ene=        -1.0253971568e+01
 Spin= Alpha
 Occup=         2.0000000000e+00
  1        -2.9704970307e-04
  2        -3.6928776424e-04
  3         1.0726838735e-03
  4         1.4022027780e-04
  5         9.2351328565e-05
  6         4.8774881906e-05
  7        -1.0896411095e-03
  8         3.5934472800e-04
  9        -4.0501191148e-04
 10        -9.7485651596e-05
 11        -2.1682813322e-05
 12        -3.6615680607e-05
 13         3.5039404811e-05
 14        -3.9804330835e-05
 15        -4.8287012489e-04
 16        -7.0080499987e-04
 17         4.4484479348e-03
 18        -9.3723985025e-05
 19         1.8455441668e-05
 20        -6.0366768731e-06
 21        -2.0902696747e-03
 22        -3.5923171094e-03
 23         7.3889284529e-04
 24        -3.2696424173e-04
 25        -1.0549218185e-04
 26        -8.7181024529e-05
 27        -2.2884463185e-05
 28         1.1195495013e-04
 29         4.2011561093e-03
 30        -9.2561026915e-04
 31        -7.8756924670e-05
 32        -6.0124278565e-04
 33         1.2755907328e-03
 34         1.8680007725e-04
 35        -1.8720929701e-03
 36        -5.5104404890e-03
 37         4.3145662433e-04
 38         1.0604940690e-03
 39         2.8001960593e-04
 40        -1.4409923146e-04
 41         4.0459907788e-04
 42         9.6388894208e-04
 43         1.0058861120e+00
 44         1.5240653410e-02
 45        -1.1667238847e-02
 46         6.8310001843e-04
 47        -3.8025289236e-04
 48        -2.8543038032e-04
 49         4.6375690613e-03
 50        -1.7705372176e-03
 51        -8.4130675977e-04
 52        -1.6194871159e-03
 53        -3.4193586433e-04
 54         4.3130723855e-04
 55        -2.7647532164e-04
 56         1.0926969492e-04
 57         6.9679016032e-04
 58         1.2667218351e-03
 59        -4.8697715911e-03
 60         3.1047362255e-04
 61        -1.7658858267e-04
 62        -4.3493767464e-05
 63         3.2177813609e-03
 64        -1.1896430249e-04
 65        -5.0153056848e-04
 66         7.2883630576e-04
 67         3.5250541233e-04
 68        -5.0110475656e-06
 69        -7.8124918545e-04
 70         6.7757313351e-05
 71         5.9469397656e-04
 72        -2.8601747276e-04
 73        -5.9371946154e-04
 74        -1.3076488711e-04
 75         9.2155875438e-05
 76        -5.3225953878e-05
 77         1.8462489472e-04
 78        -1.5827432313e-05
 79        -4.0006904018e-05
 80         2.0576337781e-05
 81        -1.6744044799e-05
 82         6.5601351583e-04
 83         2.5077966688e-05
 84         5.0633849976e-05
 85        -3.4306413999e-05
 86        -2.2398587577e-03
 87         2.2872312060e-03
 88        -1.4491741416e-03
 89        -1.7020751792e-03
 90        -8.9220037600e-05
 91        -1.1106860808e-04
 92        -2.7916249200e-04
 93         3.1284343435e-04
 94         2.8334775029e-04
 95        -3.7052543877e-05
 96        -8.1864379624e-05
 97         4.7441022312e-04
 98         1.4989701990e-04
 99         1.2128697452e-04
100        -3.9231949763e-05
 Sym= A
 Ene=        -1.0209804016e+01
 Spin= Alpha
 Occup=         2.0000000000e+00
  1         1.5136648817e-02
  2        -1.1277299124e-03
  3         4.9793422618e-03
  4         1.3155921986e-03
  5         2.2704649410e-04
  6         4.2053532861e-05
  7        -2.4990861451e-03
  8        -1.5012128676e-03
  9         4.2400517288e-04
 10         8.8377693857e-04
 11        -2.6276292485e-04
 12         2.8404904858e-05
 13        -1.1068357904e-03
 14        -3.0863977305e-04
 15         1.0063339023e+00
 16         1.6275747428e-02
 17        -1.9285158993e-02
 18        -7.6923957785e-05
 19         1.5975150804e-04
 20        -3.8656038132e-04
 21        -2.2325511945e-03
 22         3.0962892837e-03
 23        -1.3210935462e-03
 24        -6.9819466518e-04
 25         6.6203847415e-04
 26        -7.4080769676e-04
 27         2.6591895783e-04
 28        -1.3786929780e-04
 29         5.4019130406e-03
 30        -4.1709821648e-04
 31         1.2524612178e-03
 32        -4.3826193067e-04
 33        -6.3902372181e-04
 34         1.3548238267e-04
 35         7.7743526545e-04
 36         3.1548494844e-03
 37         2.9200186080e-04
 38         7.9756083790e-04
 39         7.6221976137e-05
 40         4.9512540053e-04
 41         9.4816874391e-04
 42        -9.4460583072e-04
 43        -3.8702746698e-04
 44        -7.5279598485e-04
 45         3.6238713230e-03
 46        -4.1187367163e-05
 47        -2.0863659218e-04
 48         1.0286511683e-04
 49        -5.7229846798e-04
 50         2.5385116781e-03
 51        -6.7941921061e-05
 52        -4.0969761391e-04
 53        -3.0851786431e-04
 54        -4.3459526623e-07
 55         2.9485135019e-04
 56        -1.1406883463e-04
 57         7.1516181907e-05
 58         1.0108000315e-04
 59        -1.1272858058e-03
 60         1.5513945248e-04
 61        -4.1978663954e-05
 62         8.4187977870e-07
 63         1.1993562694e-04
 64        -6.1881838649e-04
 65         3.9412763117e-05
 66         6.6122511636e-05
 67        -2.0832422156e-06
 68         2.1279793229e-05
 69         1.1177018092e-05
 70         2.7640806440e-05
 71         2.8435479416e-04
 72         5.5355673475e-04
 73        -3.3068187404e-04
 74        -8.8640545613e-05
 75        -4.0333887052e-05
 76        -2.1315264448e-05
 77         9.1476804409e-04
 78         1.4573107495e-04
 79        -1.2186590162e-04
 80         1.6403923276e-04
 81        -2.8701686709e-04
 82         9.9632116356e-05
 83         4.6894251060e-05
 84         1.9032619502e-04
 85        -1.7420324195e-04
 86         2.7117324837e-05
 87         7.0585684605e-04
 88         1.3788997393e-04
 89        -8.2375213164e-05
 90        -7.5672903991e-06
 91        -1.7731908590e-04
 92         3.4538818038e-04
 93        -1.6864981002e-05
 94        -3.5747452771e-04
 95        -4.2140569371e-05
 96        -2.3245924408e-03
 97         1.2251042218e-03
 98        -1.1087963210e-03
 99         1.5018419681e-03
100        -1.0479406434e-03
 Sym= A
 Ene=        -1.0188574683e+01
 Spin= Alpha
 Occup=         2.0000000000e+00
  1         1.0065729934e+00
  2         1.6860303783e-02
  3        -1.6512039936e-02
  4         3.4252410241e-04
  5        -2.0488002384e-04
  6        -7.6668466388e-05
  7         2.3241178061e-03
  8         1.7079862353e-03
  9         5.6965156780e-04
 10        -4.9807945011e-04
 11         3.6034748778e-04
 12        -1.5588287080e-03
 13         5.0386108739e-04
 14         4.0850698500e-04
 15        -1.6297140893e-02
 16        -1.3417502115e-03
 17         1.8562871044e-03
 18        -1.3278228985e-03
 19        -2.4072245014e-04
 20        -1.9341646646e-04
 21         3.0334106851e-03
 22         1.8235660215e-03
 23        -9.4766127321e-05
 24         9.3483157898e-04
 25        -3.9969226486e-04
 26         2.3627477888e-04
 27        -1.1811191688e-03
 28        -7.2060921252e-04
 29        -1.6253872312e-03
 30        -5.4655032162e-04
 31         3.1921321004e-03
 32        -1.2368412898e-04
 33         1.2404738335e-05
 34        -5.6668277769e-05
 35         1.8774188389e-03
 36         2.0805494619e-03
 37        -3.8065745269e-04
 38        -3.8293628051e-04
 39         7.0610006647e-05
 40        -1.9507933525e-04
 41        -3.3488044088e-04
 42        -2.3987302757e-05
 43         1.1113089028e-05
 44        -2.2031760741e-04
 45        -1.2290043356e-03
 46        -6.8281913742e-05
 47        -1.3950601850e-04
 48        -5.3064384439e-05
 49        -1.3466736927e-03
 50        -3.3493548726e-04
 51         2.7399011981e-04
 52         5.4147246580e-05
 53         1.0511200341e-04
 54        -8.3640902980e-05
 55        -1.0351549476e-04
 56         1.1023679279e-04
 57         1.2746380774e-05
 58         4.2570843035e-05
 59         4.3344728522e-04
 60         1.6773033775e-04
 61         9.2486468027e-05
 62        -5.6115942760e-05
 63        -9.4101953590e-04
 64        -1.3259680956e-04
 65         1.4664328426e-04
 66        -6.9870816224e-05
 67        -3.4459191324e-05
 68        -3.0345375326e-05
 69         4.6624045933e-05
 70         7.0434698549e-05
 71         4.1859301887e-04
 72         2.0739505365e-03
 73        -8.7537312685e-05
 74         6.4715282919e-04
 75         9.7917212555e-05
 76        -2.3759061676e-03
 77         1.7238410077e-03
 78         9.2543751120e-04
 79         1.6985290885e-03
 80        -1.2122423447e-03
 81        -1.8523164461e-03
 82         1.6084774235e-03
 83         1.1045766278e-03
 84        -1.3535287719e-03
 85         1.4285379195e-03
 86        -6.6982538875e-05
 87        -3.9592361075e-05
 88         4.9062743597e-05
 89         1.0324038700e-05
 90        -2.9843135302e-05
 91         1.0944867402e-04
 92         6.0349743659e-04
 93         6.3265232067e-06
 94        -1.1837590486e-04
 95         5.0521729884e-05
 96         1.5103188979e-05
 97         3.3912853189e-04
 98        -3.5032640261e-05
 99        -2.8487263578e-04
100         7.5545928012e-05
 Sym= A
 Ene=        -1.0184348312e+01
 Spin= Alpha
 Occup=         2.0000000000e+00
  1         9.5105226575e-04
  2        -4.3699672490e-04
  3         2.3396023845e-03
  4         7.2035508340e-05
  5         1.1918425566e-04
  6        -5.9615175988e-05
  7        -1.8915431441e-03
  8        -3.7249849283e-04
  9         3.3438894129e-04
 10        -2.8720426532e-04
 11         4.3017266653e-04
 12        -2.5208206462e-04
 13         1.8696979883e-04
 14        -4.2997064132e-04
 15        -5.7756644135e-03
 16        -6.6995234365e-04
 17         3.3527914549e-03
 18         2.2715632805e-04
 19         6.8162589473e-04
 20        -1.5404945285e-04
 21        -2.0681032805e-03
 22        -3.4074305956e-03
 23        -8.6291524364e-05
 24         8.5964505660e-04
 25         4.9562630996e-04
 26         4.2491659041e-04
 27         5.6905794768e-04
 28        -1.1756923315e-03
 29         1.0066650504e+00
 30         1.6760611225e-02
 31        -2.1893735251e-02
 32        -2.2068940019e-04
 33        -1.6023280196e-04
 34        -3.8463931474e-04
 35        -5.0178477891e-03
 36        -1.3741483732e-04
 37         1.8962363650e-03
 38        -1.0899297092e-03
 39        -1.6355709645e-04
 40         5.1730689654e-05
 41         5.3184729927e-04
 42        -1.4603547408e-04
 43        -5.3270443632e-03
 44        -1.4691230625e-03
 45         6.8311722299e-03
 46         6.4386192293e-04
 47        -1.0987613677e-03
 48        -1.8982154935e-04
 49        -2.4748242847e-04
 50         4.0594880326e-03
 51        -1.9665263380e-05
 52         8.0594907962e-04
 53         2.5884455360e-04
 54        -3.9301504977e-04
 55         6.7395780548e-04
 56         1.0138845144e-03
 57         2.4911532395e-05
 58         2.9085793888e-05
 59        -9.4317478863e-04
 60         5.5923530894e-05
 61        -5.1667807849e-05
 62        -2.4252234541e-05
 63        -1.1563039230e-04
 64        -7.4460819391e-04
 65         8.0005861331e-05
 66        -5.6365907336e-05
 67        -1.5512980428e-05
 68         8.9180970182e-06
 69         7.7384080850e-05
 70         8.7081796272e-05
 71         2.6731814901e-04
 72         2.5126707502e-04
 73        -1.4714394487e-04
 74        -1.9557935496e-04
 75         4.2970786791e-05
 76         1.7515055757e-04
 77         5.5489752071e-04
 78         1.1568060217e-04
 79        -1.5490017381e-04
 80         4.0832541006e-05
 81        -6.4157694258e-04
 82         3.6613328492e-04
 83         1.4031388021e-04
 84        -5.5486700310e-05
 85         1.3021520110e-04
 86         1.1929045752e-04
 87         1.0686800557e-03
 88         3.3384260865e-04
 89        -1.5468502908e-05
 90         2.6488544020e-05
 91        -2.3933273626e-03
 92         9.4897363443e-04
 93        -2.1701762271e-03
 94        -1.2086223792e-04
 95        -4.1588072186e-05
 96        -3.5123635839e-04
 97         5.9221402972e-04
 98         2.1190050734e-04
 99         2.3764651536e-04
100         8.1824895506e-05
 Sym= A
 Ene=        -1.0681700658e+00
 Spin= Alpha
 Occup=         2.0000000000e+00
  1         3.1104177872e-04
  2         1.3642532749e-02
  3        -5.4748628266e-03
  4        -2.7220961340e-03
  5        -8.1057091651e-03
  6        -6.1912257718e-04
  7         3.1245087305e-03
  8         6.9357909597e-03
  9        -4.5104873622e-03
 10        -2.2794875640e-04
 11        -7.4377911933e-04
 12         7.0499136496e-04
 13        -6.2805907615e-04
 14         8.7436837720e-04
 15        -4.2560960082e-04
 16         1.6406824202e-02
 17         5.7400462729e-03
 18         3.1664311671e-03
 19        -1.0278458401e-02
 20         7.8101773754e-04
 21         5.8576887909e-03
 22         1.4071856155e-03
 23         8.5448541138e-04
 24        -1.5506914475e-03
 25        -2.2195905555e-04
 26        -5.8512169769e-04
 27        -1.0711609341e-03
 28        -6.2301400968e-06
 29        -1.5874587470e-03
 30         3.7269471927e-02
 31        -3.4045349466e-04
 32         2.3557804825e-02
 33        -1.7307910006e-02
 34        -5.8237360523e-03
 35         6.8031570689e-03
 36         1.1844590225e-02
 37        -1.4295439847e-03
 38        -2.4115134781e-03
 39        -1.8406106530e-03
 40         1.1504834995e-03
 41         2.5140975750e-03
 42        -7.7424877394e-03
 43        -1.2499297458e-02
 44         1.5954163357e-01
 45         8.1990308581e-02
 46         1.3107363755e-01
 47         6.1223022415e-03
 48        -2.2841350253e-02
 49         5.5114573125e-03
 50         2.1962727791e-02
 51         7.5401521657e-04
 52        -1.1825800229e-02
 53        -9.3697853073e-03
 54        -1.0747556759e-03
 55         2.9055954547e-02
 56        -1.8674078749e-04
 57        -6.7717144230e-03
 58         4.2090184038e-01
 59         3.6765408969e-01
 60        -8.5686461682e-02
 61         8.2058723525e-02
 62         8.3117752913e-03
 63        -3.1049426197e-02
 64        -3.9738823043e-03
 65         5.1547375890e-03
 66        -6.5173693150e-03
 67        -2.8247872668e-03
 68        -6.8678752601e-04
 69         4.6076972539e-03
 70        -1.3362126518e-03
 71         1.6824528223e-01
 72         4.9847244385e-03
 73        -1.5928120238e-02
 74        -3.0197770841e-02
 75         6.2131027890e-03
 76         6.7579129162e-04
 77        -4.8046966851e-03
 78        -2.5149730622e-05
 79        -2.2661244217e-04
 80        -2.5760764997e-05
 81         1.0648421150e-02
 82         6.8026952532e-03
 83        -1.4489899929e-03
 84        -6.6732589394e-04
 85        -1.1712190012e-03
 86         3.4423918662e-02
 87         4.8322236930e-03
 88         8.0234644019e-03
 89         5.2314664004e-03
 90        -2.5655090566e-04
 91         5.3159320757e-03
 92         2.5366186117e-03
 93         5.8434792841e-04
 94        -2.0645107165e-03
 95        -1.6136900596e-04
 96         2.0075467372e-03
 97        -8.5274211876e-04
 98        -2.4197886955e-04
 99        -4.4368911544e-04
100        -1.0829655711e-04
 Sym= A
 Ene=        -8.0402910239e-01
 Spin= Alpha
 Occup=         2.0000000000e+00
  1         1.5238444162e-02
  2        -1.9301866965e-01
  3        -1.0614728341e-01
  4         8.5093889200e-02
  5         2.6785390426e-02
  6         8.4836110097e-03
  7         7.7525503623e-03
  8        -1.9710881503e-03
  9         7.9525071130e-03
 10         6.1175884306e-03
 11        -1.2377766051e-03
 12        -3.2621548087e-03
 13        -7.7069775117e-03
 14        -5.1169631909e-03
 15         1.9434238548e-02
 16        -2.8094311844e-01
 17        -1.8246169292e-01
 18        -3.9448821401e-02
 19         4.6375884270e-02
 20        -1.1713850879e-02
 21        -2.0895327335e-02
 22         2.2436753747e-02
 23        -1.1843341273e-02
 24         1.1058745782e-02
 25         3.7480060392e-04
 26         1.5949572808e-03
 27        -2.3804416650e-03
 28        -9.7442224740e-03
 29         1.7855251987e-02
 30        -2.3747166784e-01
 31        -1.4011818299e-01
 32        -5.8219658309e-02
 33        -2.0693237798e-02
 34         2.2838861008e-02
 35        -1.7820709430e-02
 36        -1.2756383216e-02
 37         9.2878706639e-03
 38         8.2251243161e-03
 39         2.7207520278e-03
 40         2.2697458335e-03
 41         8.4770100340e-03
 42        -5.7828969927e-03
 43         4.7615267061e-03
 44        -1.1196102927e-01
 45        -6.0533215248e-02
 46         6.9266874503e-02
 47        -8.4539975290e-02
 48        -1.3672025434e-02
 49         2.3793671257e-02
 50        -1.2411204984e-02
 51        -6.2933825768e-03
 52         3.0433421086e-03
 53        -1.3770664036e-03
 54        -1.5558657412e-03
 55         1.2892110039e-02
 56         4.6761278918e-03
 57         8.2491567295e-04
 58         9.6669863441e-02
 59         9.2808011001e-02
 60         1.8071593345e-02
 61        -2.3235655376e-03
 62        -5.7412570649e-03
 63         1.3366684194e-02
 64        -8.4223373837e-03
 65        -2.6618251210e-03
 66         7.5463489266e-04
 67         3.6493556915e-04
 68        -5.6896945535e-04
 69        -7.9693886353e-04
 70         2.4455203795e-03
 71         2.2587274474e-02
 72         3.5888290404e-03
 73        -1.3634928791e-04
 74        -1.0815106194e-02
 75        -5.1931855595e-04
 76        -6.0177129336e-02
 77         1.3291263702e-04
 78         6.5106947947e-03
 79         7.6844716981e-03
 80        -4.0674136735e-03
 81        -7.0455677751e-02
 82        -2.8257441014e-03
 83         7.8851219687e-03
 84        -5.1232235343e-03
 85         6.7771082950e-03
 86        -2.7074398097e-02
 87         1.0488400647e-03
 88         2.4558703212e-04
 89        -4.9229081172e-03
 90        -3.6246274381e-04
 91        -7.7736922373e-02
 92        -7.4315261226e-03
 93        -1.2694668603e-02
 94        -1.4719612539e-03
 95         1.0119671923e-03
 96        -9.5814040550e-02
 97        -1.2345645611e-02
 98        -8.3511836157e-03
 99         1.0812773673e-02
100        -6.4602785398e-03
 Sym= A
 Ene=        -7.3243868135e-01
 Spin= Alpha
 Occup=         2.0000000000e+00
  1         1.6112568504e-02
  2        -2.2737230404e-01
  3        -1.2299495367e-01
  4         4.7341198836e-02
  5         1.1402586765e-02
  6         9.5628238661e-03
  7        -7.4738020982e-04
  8         5.8770162174e-04
  9         3.4262634607e-03
 10         3.9078246595e-03
 11        -1.4620974479e-03
 12        -2.8663435516e-03
 13        -3.8305636891e-03
 14         1.1650420188e-03
 15         8.0977812929e-03
 16        -1.1950965544e-01
 17        -9.7828734710e-02
 18        -1.1498851043e-01
 19        -7.2672486452e-02
 20         1.3990999313e-03
 21        -5.1467637817e-02
 22        -1.0540218924e-02
 23        -5.0844752631e-03
 24         2.5846399369e-03
 25        -2.4944450204e-03
 26        -1.7651734371e-03
 27        -1.5705000517e-02
 28         2.2907108146e-03
 29        -1.3444629772e-02
 30         2.0309492686e-01
 31         1.3414463416e-01
 32         1.4179885290e-02
 33        -1.1090471858e-01
 34        -1.4861972961e-02
 35         2.0571571899e-02
 36        -3.0693336008e-02
 37        -2.0057774209e-03
 38        -3.3208857673e-03
 39        -5.8417395736e-04
 40         3.3581450399e-03
 41        -6.6941943928e-03
 42        -1.2280473933e-02
 43        -9.7312410804e-03
 44         2.5219031616e-01
 45         1.4277217782e-01
 46        -7.2391545647e-02
 47         5.3070115618e-02
 48         1.1927506245e-02
 49        -2.2990201949e-02
 50         8.3441609867e-03
 51         2.2320310749e-03