[Molden Format]
[Atoms] (AU)
C    1    6           2.0168664382         2.6960141065        -0.2144743961
C    2    6          -0.7975466733         2.3856195795        -0.1144735100
C    3    6          -2.0929867379         0.1878416205         0.0295978114
C    4    6          -0.9151536275        -2.3394280786         0.0715357475
O    5    8           1.3482458270        -2.7468630090         0.2113117592
H    6    1           2.9296660453         1.1544767471        -1.2639781329
H    7    1           2.5410311119         4.5516115891        -1.0061951686
H    8    1           2.7920952873         2.5881592540         1.7200768267
H    9    1          -2.2862349503        -3.9531889375        -0.0500541258
H   10    1          -4.1632389671         0.2346586215         0.0963357572
H   11    1          -1.9117777628         4.1314216499        -0.1373097164
[GTO]
  1 0
 s    8  1.00
     6665.0000000000         0.0006920000
     1000.0000000000         0.0053290000
      228.0000000000         0.0270770000
       64.7100000000         0.1017180000
       21.0600000000         0.2747400000
        7.4950000000         0.4485640000
        2.7970000000         0.2850740000
        0.5215000000         0.0152040000
 s    8  1.00
     6665.0000000000        -0.0001460000
     1000.0000000000        -0.0011540000
      228.0000000000        -0.0057250000
       64.7100000000        -0.0233120000
       21.0600000000        -0.0639550000
        7.4950000000        -0.1499810000
        2.7970000000        -0.1272620000
        0.5215000000         0.5445290000
 s    1  1.00
        0.1596000000         1.0000000000
 p    3  1.00
        9.4390000000         0.0381090000
        2.0020000000         0.2094800000
        0.5456000000         0.5085570000
 p    1  1.00
        0.1517000000         1.0000000000
 d    1  1.00
        0.5500000000         1.0000000000

  2 0
 s    8  1.00
     6665.0000000000         0.0006920000
     1000.0000000000         0.0053290000
      228.0000000000         0.0270770000
       64.7100000000         0.1017180000
       21.0600000000         0.2747400000
        7.4950000000         0.4485640000
        2.7970000000         0.2850740000
        0.5215000000         0.0152040000
 s    8  1.00
     6665.0000000000        -0.0001460000
     1000.0000000000        -0.0011540000
      228.0000000000        -0.0057250000
       64.7100000000        -0.0233120000
       21.0600000000        -0.0639550000
        7.4950000000        -0.1499810000
        2.7970000000        -0.1272620000
        0.5215000000         0.5445290000
 s    1  1.00
        0.1596000000         1.0000000000
 p    3  1.00
        9.4390000000         0.0381090000
        2.0020000000         0.2094800000
        0.5456000000         0.5085570000
 p    1  1.00
        0.1517000000         1.0000000000
 d    1  1.00
        0.5500000000         1.0000000000

  3 0
 s    8  1.00
     6665.0000000000         0.0006920000
     1000.0000000000         0.0053290000
      228.0000000000         0.0270770000
       64.7100000000         0.1017180000
       21.0600000000         0.2747400000
        7.4950000000         0.4485640000
        2.7970000000         0.2850740000
        0.5215000000         0.0152040000
 s    8  1.00
     6665.0000000000        -0.0001460000
     1000.0000000000        -0.0011540000
      228.0000000000        -0.0057250000
       64.7100000000        -0.0233120000
       21.0600000000        -0.0639550000
        7.4950000000        -0.1499810000
        2.7970000000        -0.1272620000
        0.5215000000         0.5445290000
 s    1  1.00
        0.1596000000         1.0000000000
 p    3  1.00
        9.4390000000         0.0381090000
        2.0020000000         0.2094800000
        0.5456000000         0.5085570000
 p    1  1.00
        0.1517000000         1.0000000000
 d    1  1.00
        0.5500000000         1.0000000000

  4 0
 s    8  1.00
     6665.0000000000         0.0006920000
     1000.0000000000         0.0053290000
      228.0000000000         0.0270770000
       64.7100000000         0.1017180000
       21.0600000000         0.2747400000
        7.4950000000         0.4485640000
        2.7970000000         0.2850740000
        0.5215000000         0.0152040000
 s    8  1.00
     6665.0000000000        -0.0001460000
     1000.0000000000        -0.0011540000
      228.0000000000        -0.0057250000
       64.7100000000        -0.0233120000
       21.0600000000        -0.0639550000
        7.4950000000        -0.1499810000
        2.7970000000        -0.1272620000
        0.5215000000         0.5445290000
 s    1  1.00
        0.1596000000         1.0000000000
 p    3  1.00
        9.4390000000         0.0381090000
        2.0020000000         0.2094800000
        0.5456000000         0.5085570000
 p    1  1.00
        0.1517000000         1.0000000000
 d    1  1.00
        0.5500000000         1.0000000000

  5 0
 s    8  1.00
    11720.0000000000         0.0007100000
     1759.0000000000         0.0054700000
      400.8000000000         0.0278370000
      113.7000000000         0.1048000000
       37.0300000000         0.2830620000
       13.2700000000         0.4487190000
        5.0250000000         0.2709520000
        1.0130000000         0.0154580000
 s    8  1.00
    11720.0000000000        -0.0001600000
     1759.0000000000        -0.0012630000
      400.8000000000        -0.0062670000
      113.7000000000        -0.0257160000
       37.0300000000        -0.0709240000
       13.2700000000        -0.1654110000
        5.0250000000        -0.1169550000
        1.0130000000         0.5573680000
 s    1  1.00
        0.3023000000         1.0000000000
 p    3  1.00
       17.7000000000         0.0430180000
        3.8540000000         0.2289130000
        1.0460000000         0.5087280000
 p    1  1.00
        0.2753000000         1.0000000000
 d    1  1.00
        1.1850000000         1.0000000000

  6 0
 s    3  1.00
       13.0100000000         0.0196850000
        1.9620000000         0.1379770000
        0.4446000000         0.4781480000
 s    1  1.00
        0.1220000000         1.0000000000
 p    1  1.00
        0.7270000000         1.0000000000

  7 0
 s    3  1.00
       13.0100000000         0.0196850000
        1.9620000000         0.1379770000
        0.4446000000         0.4781480000
 s    1  1.00
        0.1220000000         1.0000000000
 p    1  1.00
        0.7270000000         1.0000000000

  8 0
 s    3  1.00
       13.0100000000         0.0196850000
        1.9620000000         0.1379770000
        0.4446000000         0.4781480000
 s    1  1.00
        0.1220000000         1.0000000000
 p    1  1.00
        0.7270000000         1.0000000000

  9 0
 s    3  1.00
       13.0100000000         0.0196850000
        1.9620000000         0.1379770000
        0.4446000000         0.4781480000
 s    1  1.00
        0.1220000000         1.0000000000
 p    1  1.00
        0.7270000000         1.0000000000

  10 0
 s    3  1.00
       13.0100000000         0.0196850000
        1.9620000000         0.1379770000
        0.4446000000         0.4781480000
 s    1  1.00
        0.1220000000         1.0000000000
 p    1  1.00
        0.7270000000         1.0000000000

  11 0
 s    3  1.00
       13.0100000000         0.0196850000
        1.9620000000         0.1379770000
        0.4446000000         0.4781480000
 s    1  1.00
        0.1220000000         1.0000000000
 p    1  1.00
        0.7270000000         1.0000000000

[5D7F]
[9G]

[MO]
 Sym= A
 Ene=        -1.9134913694e+01
 Spin= Alpha
 Occup=         2.0000000000e+00
  1        -4.8966604548e-05
  2        -1.0842331235e-04
  3        -3.3866107017e-06
  4         6.5137647721e-05
  5         2.7856210910e-05
  6         1.4932617244e-05
  7        -7.1510936113e-06
  8         3.6087627237e-05
  9         1.8948134608e-04
 10         5.5011633428e-05
 11         2.8422396495e-05
 12         5.6185512923e-05
 13         6.0661903720e-05
 14        -1.0401044874e-04
 15        -2.2483724835e-04
 16        -3.9978033418e-04
 17         5.7874777902e-03
 18        -2.1384462770e-05
 19        -1.2411247550e-05
 20        -2.6334507469e-05
 21        -1.0932673916e-03
 22        -2.5399991164e-03
 23         2.3137161283e-04
 24        -4.1516691541e-05
 25        -5.2352778867e-06
 26        -2.2120517510e-06
 27        -4.5030144365e-05
 28        -3.6227009790e-05
 29         2.2234024779e-04
 30         3.4098967120e-04
 31        -4.5529196777e-03
 32         1.7171478908e-05
 33         2.9317815383e-04
 34        -1.7262902239e-05
 35        -4.7795397162e-03
 36        -3.5791646265e-03
 37         8.3328875433e-05
 38         1.4431316017e-04
 39         1.2574534453e-06
 40         6.1100276206e-05
 41        -3.2597556708e-04
 42         5.0892455403e-04
 43         4.3995490758e-04
 44         5.7284658108e-04
 45         5.5190618675e-03
 46        -1.0940274253e-04
 47        -1.7084333591e-04
 48        -1.0658443195e-05
 49         6.6766500927e-03
 50         7.0509382494e-04
 51         3.3945756396e-04
 52        -4.1382047811e-05
 53        -4.7295749471e-05
 54         3.4950712316e-05
 55        -1.1535701476e-03
 56         5.1252905971e-04
 57         1.0041710395e+00
 58         9.4729180243e-03
 59        -1.5161884801e-02
 60        -1.8321529382e-03
 61         3.5273783735e-04
 62        -1.2966480068e-04
 63         3.5073608474e-03
 64        -8.5001996053e-04
 65         2.3813562863e-04
 66        -2.0698645035e-05
 67         7.7226653068e-06
 68        -3.7627366906e-07
 69         6.6090914133e-05
 70         9.2939853257e-06
 71        -8.9245862494e-05
 72        -4.1390584365e-05
 73         5.3295692638e-05
 74         3.6121429147e-05
 75        -2.9258162807e-06
 76         1.0922497853e-04
 77         2.9784137670e-04
 78        -6.7209430192e-05
 79        -7.9313945210e-05
 80         2.9903278732e-05
 81        -6.5328055662e-05
 82        -2.4401284105e-04
 83         5.8991495674e-05
 84         4.2213567231e-05
 85         4.6091256665e-05
 86        -1.2110037339e-04
 87         9.7337852690e-04
 88        -7.6261253500e-04
 89         1.1995273872e-04
 90        -3.7930548831e-05
 91        -2.7080421866e-04
 92        -1.3557530022e-03
 93         1.8685007445e-04
 94         2.5914428686e-04
 95         1.0190868433e-05
 96        -1.7332730643e-04
 97         2.8464175087e-04
 98         5.6946186957e-05
 99         8.7582228897e-05
100        -1.3959581005e-05
 Sym= A
 Ene=        -1.0273045642e+01
 Spin= Alpha
 Occup=         2.0000000000e+00
  1        -3.3557395883e-04
  2        -4.3327185720e-04
  3         8.4514157363e-04
  4         2.9526942656e-04
  5         5.7233083052e-05
  6        -8.0962087194e-06
  7        -5.8104511642e-04
  8         2.6024872671e-04
  9         9.9412019939e-05
 10         1.4057555417e-05
 11        -1.9224918727e-05
 12         2.9981543233e-05
 13        -1.2578229199e-04
 14        -7.4299296603e-05
 15        -4.2849811539e-04
 16        -6.3251169271e-04
 17         6.9255601538e-03
 18        -2.6687015425e-04
 19        -2.4316145020e-05
 20         1.6986266041e-05
 21        -2.3586483850e-03
 22        -4.0777630423e-03
 23         2.8278053051e-04
 24        -4.3768225096e-04
 25        -8.9353294141e-05
 26        -5.4035228573e-05
 27         3.3133545174e-04
 28         3.8223546249e-04
 29         1.6241353806e-03
 30        -2.3009875471e-04
 31        -2.3763768918e-03
 32        -3.3884495568e-04
 33         7.4388933000e-04
 34        -6.2360733424e-06
 35        -2.7802176405e-03
 36        -6.2327884362e-03
 37         2.5215367033e-04
 38         1.0531270039e-03
 39        -4.3104936306e-05
 40         5.5449981500e-05
 41         1.1597921521e-03
 42         8.1043800423e-04
 43         1.0059220688e+00
 44         1.5241801030e-02
 45        -1.0792897585e-02
 46         7.3251192641e-04
 47        -4.8650362411e-04
 48         3.4866280686e-05
 49         5.4549981933e-03
 50        -2.0725798839e-03
 51         2.2842375549e-04
 52        -1.6393073540e-03
 53         2.6495940192e-04
 54         3.4908253808e-05
 55         8.2570583019e-04
 56         4.7819093804e-05
 57         3.6522774783e-04
 58         9.1127378755e-04
 59        -5.9474618538e-03
 60         7.3675850735e-04
 61        -2.1839822482e-04
 62         3.5541263986e-05
 63         3.3864509628e-03
 64        -2.2321685518e-04
 65         2.4050011960e-04
 66         5.5973213428e-04
 67        -1.0109128096e-04
 68         1.1690303538e-05
 69        -7.0858666617e-04
 70         2.6540299131e-04
 71        -8.0848262014e-05
 72         4.8340889165e-05
 73         7.4481688106e-05
 74         2.9893370324e-05
 75        -1.6272097364e-05
 76        -4.4022197979e-05
 77         2.7699123387e-04
 78        -5.8907398467e-05
 79        -4.3342903184e-05
 80        -1.3069482463e-06
 81        -5.1339554717e-05
 82        -5.7639346661e-05
 83         8.6581760449e-05
 84         2.5381433545e-05
 85        -2.5791484663e-05
 86        -1.6478651909e-03
 87         2.4955956187e-03
 88        -1.4548041376e-03
 89        -1.4517078136e-03
 90        -1.1531471161e-04
 91        -4.8393830945e-04
 92        -4.6859286959e-04
 93         6.5731452423e-05
 94         3.2692387381e-04
 95        -1.8729538432e-05
 96        -3.3583955956e-05
 97         6.5208153274e-04
 98         2.3817460449e-04
 99         1.0790892599e-04
100        -1.4436398562e-05
 Sym= A
 Ene=        -1.0222808904e+01
 Spin= Alpha
 Occup=         2.0000000000e+00
  1         3.2847613536e-03
  2        -4.4718085524e-04
  3         4.3642655989e-03
  4         7.3689776885e-04
  5         8.7666132508e-05
  6         5.8827515255e-05
  7        -2.3233467332e-03
  8        -1.0653387959e-03
  9        -4.8339221875e-04
 10         7.8964336163e-04
 11         1.1748151532e-04
 12        -1.4059789531e-06
 13        -1.0310588306e-03
 14        -3.8494316491e-06
 15         1.0062880846e+00
 16         1.6068850426e-02
 17        -1.9796504500e-02
 18        -5.4877328909e-04
 19         2.4747441942e-04
 20         3.3466262169e-05
 21        -2.1753190375e-03
 22         3.5994127855e-03
 23        -8.9581566941e-06
 24        -1.0860251346e-03
 25         9.1376875537e-06
 26        -7.0721558906e-05
 27        -5.2977577271e-04
 28        -2.5448468845e-04
 29         1.2914602332e-02
 30        -1.2864705726e-03
 31         4.6874371749e-03
 32        -7.7283326801e-04
 33        -1.0950517910e-03
 34         8.9236244343e-05
 35         2.6731225006e-03
 36         2.3206914425e-03
 37        -2.2965713465e-04
 38         8.8596262486e-04
 39         8.2089537999e-05
 40         1.3948085018e-04
 41         5.6353777173e-04
 42        -9.7778644979e-04
 43        -2.6084042437e-04
 44        -5.1383903547e-04
 45         1.0046991937e-03
 46        -3.9232758303e-05
 47        -2.0895562871e-04
 48         1.5241688369e-05
 49        -1.9441197313e-04
 50         1.0216051743e-03
 51         9.2572756487e-06
 52        -3.3901908247e-04
 53        -1.9504104830e-05
 54        -9.0510826167e-06
 55         1.9103730267e-04
 56        -8.7144390100e-05
 57        -3.3999686794e-05
 58        -7.4274304615e-05
 59        -2.2989687780e-04
 60         1.2452949442e-04
 61        -1.0910922504e-06
 62         1.7951204155e-05
 63        -5.6862698387e-05
 64        -2.6161051742e-04
 65         1.6126439628e-06
 66         1.0423157433e-05
 67        -1.5850725382e-05
 68         4.0215251676e-06
 69        -9.8820571112e-06
 70         1.4215324395e-05
 71        -4.3385165676e-04
 72         1.5607387462e-04
 73        -3.4187724123e-05
 74         3.1201408135e-05
 75         7.4709953578e-05
 76        -3.4674537823e-04
 77         2.7602654627e-04
 78         7.9910390733e-05
 79         7.9076846364e-05
 80         6.3440172204e-05
 81        -4.7485729344e-04
 82         1.2043410504e-03
 83        -1.4234064761e-04
 84         1.4590010159e-05
 85         1.9546598427e-05
 86        -2.7012931517e-05
 87         4.0809801540e-04
 88         5.2991672170e-05
 89        -5.4618535398e-05
 90        -8.2542500672e-06
 91         9.9857212015e-05
 92         9.2202345711e-04
 93         1.2338945253e-04
 94        -2.3355637770e-04
 95         1.1889727440e-05
 96        -2.3620511094e-03
 97         1.2046024885e-03
 98        -1.2118569441e-03
 99         1.7842819611e-03
100        -1.5108042610e-05
 Sym= A
 Ene=        -1.0197577407e+01
 Spin= Alpha
 Occup=         2.0000000000e+00
  1         1.5714104239e-03
  2         4.0305884341e-04
  3         4.0486038505e-06
  4        -8.9428899847e-05
  5        -1.1526606788e-04
  6         8.2883352438e-05
  7         7.0858809720e-04
  8        -1.6434268801e-04
  9        -1.4077233530e-04
 10         3.1091697143e-04
 11         6.7266651154e-05
 12        -1.3698438533e-05
 13        -7.7797633222e-05
 14         2.1154204017e-04
 15         1.4425688869e-02
 16         1.7846179535e-03
 17        -6.7735468283e-03
 18        -6.0165681686e-04
 19        -1.2024176308e-03
 20         7.9466209329e-05
 21         5.7376964965e-04
 22         4.1522973581e-03
 23        -1.5005193039e-04
 24        -9.2723874042e-04
 25        -6.5035814015e-05
 26        -1.2143696196e-04
 27        -5.2009968200e-04
 28         1.0194657016e-03
 29        -1.0064745970e+00
 30        -1.6524325037e-02
 31         2.1521833150e-02
 32         3.2052803597e-04
 33        -2.9698237383e-04
 34         4.2410589521e-05
 35         5.5712008066e-03
 36         3.4373915313e-04
 37        -2.6717745497e-04
 38         1.0781373079e-03
 39         9.9343189798e-05
 40         7.3501633936e-05
 41        -3.8797758701e-04
 42        -3.8593746858e-04
 43         1.9405597965e-03
 44         8.0555536083e-04
 45        -5.8017791143e-03
 46        -2.5558322055e-04
 47         7.4060151133e-04
 48         6.4243451597e-06
 49        -6.4768044297e-04
 50        -3.5076716605e-03
 51         4.7370938216e-05
 52        -6.8882534473e-04
 53        -4.8394429773e-05
 54        -4.9956273811e-05
 55        -6.3134017335e-04
 56        -1.1878719507e-03
 57        -4.3517119401e-05
 58        -7.5074606164e-05
 59         9.2654578586e-04
 60        -3.0075449314e-05
 61         7.4164783053e-05
 62         2.4489715699e-05
 63         9.1507829073e-05
 64         5.9714253583e-04
 65        -4.8644280729e-05
 66         1.3123927284e-04
 67        -3.4310491564e-05
 68        -1.6258177617e-05
 69        -6.9036149772e-05
 70        -2.1746772069e-04
 71         1.5966701940e-04
 72        -3.7774936283e-04
 73        -2.5890045944e-05
 74        -4.5679641801e-05
 75         5.7048453837e-05
 76        -4.8034291728e-05
 77        -2.2218246627e-04
 78        -3.5229524609e-05
 79         6.6820603306e-05
 80         1.5675200975e-05
 81        -3.4809826425e-05
 82        -1.3132221068e-04
 83        -5.1310473526e-05
 84        -6.3914465704e-05
 85         1.3813276549e-04
 86         2.5025728699e-04
 87        -1.0003353610e-03
 88        -7.5159759283e-05
 89         2.0467828831e-04
 90        -2.4987221402e-05
 91         2.4421942999e-03
 92        -7.7235140604e-04
 93         2.1379538168e-03
 94        -1.6313426992e-04
 95        -5.6619703952e-05
 96        -9.8946417955e-05
 97        -1.0039161289e-03
 98        -2.6377583111e-04
 99         2.8274177819e-05
100         6.7367187863e-06
 Sym= A
 Ene=        -1.0192157155e+01
 Spin= Alpha
 Occup=         2.0000000000e+00
  1         1.0069801466e+00
  2         1.7412134336e-02
  3        -1.9448221452e-02
  4         4.4432037649e-04
  5         1.0425473846e-04
  6         1.6144382443e-04
  7         2.9589496427e-03
  8         2.3079215522e-04
  9        -5.5689347664e-04
 10         2.2950110585e-04
 11         2.8821988800e-05
 12        -6.3540374930e-05
 13        -6.0436581024e-04
 14        -1.3445924696e-04
 15        -3.5250042008e-03
 16        -2.9929622554e-04
 17         1.8950369550e-03
 18        -4.8895664452e-04
 19         5.9589493531e-05
 20         2.0871821671e-05
 21         4.4887445625e-03
 22         2.3067812265e-03
 23        -1.7938987140e-04
 24         6.0842724055e-04
 25         1.2267309899e-04
 26         1.6402017528e-05
 27        -1.3348456124e-03
 28        -5.5336827689e-04
 29         9.9586053281e-04
 30        -5.4756365236e-04
 31         3.4448979642e-03
 32        -1.9763599390e-04
 33         8.2588089827e-05
 34         8.3670556187e-06
 35         9.1942511060e-04
 36         2.6283722287e-03
 37        -1.9117507262e-04
 38        -3.4575303357e-04
 39         1.1120063190e-05
 40        -3.6635074544e-05
 41        -5.4559818722e-04
 42        -2.0689222094e-04
 43        -1.0555009156e-04
 44        -4.6589169651e-04
 45         6.2719867206e-04
 46        -3.8562148865e-05
 47        -2.7259775737e-04
 48        -1.2450788106e-05
 49        -1.1728581597e-04
 50         5.1773421845e-04
 51         5.1680981373e-05
 52        -1.7715180841e-05
 53        -2.2657821445e-05
 54        -1.0599272411e-06
 55         3.8940037846e-05
 56         3.5446910028e-05
 57        -7.8320485480e-05
 58        -1.5565967275e-04
 59         1.8774185374e-04
 60         1.0550676435e-05
 61        -1.1867298584e-04
 62        -1.1045015524e-05
 63        -1.2215268263e-04
 64         2.4077438484e-04
 65         4.1113778914e-05
 66        -4.6002531052e-05
 67         1.7376487305e-06
 68         1.7105081493e-06
 69         2.8596443955e-07
 70        -1.3967248716e-06
 71        -1.2166140615e-03
 72         1.9251180063e-03
 73         6.8855144699e-04
 74        -1.4519199262e-03
 75        -9.9467076539e-04
 76        -1.3392857714e-03
 77         1.8891610371e-03
 78         4.5284261905e-04
 79         1.7983529254e-03
 80        -7.5209416536e-04
 81        -1.0997918914e-03
 82         2.3569593159e-03
 83         5.4443808743e-04
 84        -1.1255524368e-04
 85         1.8230108685e-03
 86         1.6813033113e-05
 87         3.8473052008e-04
 88         6.3693085015e-06
 89         6.9104280402e-05
 90        -8.3524049553e-06
 91         5.0799245588e-05
 92         3.7222465075e-04
 93         9.3177128397e-05
 94        -2.0258258353e-04
 95         1.2083583581e-05
 96        -4.3352017987e-04
 97         2.3947428594e-04
 98        -3.7233024713e-04
 99        -1.1822399067e-04
100         2.0334621972e-05
 Sym= A
 Ene=        -1.0392840709e+00
 Spin= Alpha
 Occup=         2.0000000000e+00
  1        -4.8860315075e-04
  2         6.5802260918e-03
  3         5.6212703005e-03
  4        -3.0899928503e-03
  5        -3.1724032810e-03
  6        -3.0539755772e-05
  7        -3.0338818699e-03
  8        -2.4427841322e-03
  9         9.6086880234e-04
 10        -6.3523336764e-04
 11        -1.9346120767e-04
 12        -2.1362380042e-04
 13         1.6564072544e-04
 14         9.1187674998e-04
 15         5.7249327588e-04
 16         1.6600213873e-02
 17        -1.3018121177e-02
 18        -9.1532590518e-05
 19        -1.0582174937e-02
 20         6.3732217502e-04
 21        -2.1111870333e-03
 22         9.9358067455e-03
 23        -6.6390482880e-04
 24        -4.6327189246e-04
 25        -1.2618258534e-04
 26        -2.8604707786e-04
 27        -1.6560079006e-03
 28         7.2277482141e-04
 29        -3.6188340022e-03
 30         3.6795715017e-02
 31         3.2723864273e-02
 32         2.0976749736e-02
 33        -2.0491726077e-02
 34         7.0472704739e-04
 35         2.0137594047e-02
 36         1.4492426046e-03
 37        -3.8308180475e-04
 38        -3.8009705528e-03
 39         1.6484363541e-04
 40        -5.2467704422e-04
 41        -9.8864086572e-04
 42        -9.0347404055e-03
 43        -1.4589294020e-02
 44         2.2486225177e-01
 45         9.4400110675e-02
 46         1.8457851354e-01
 47        -2.4688665410e-02
 48         1.1346915777e-02
 49         1.2046747042e-02
 50        -3.0574854641e-03
 51         1.0871507132e-03
 52        -1.3504596154e-02
 53         3.1681062006e-03
 54        -1.0929873837e-03
 55         3.1168194013e-02
 56        -1.3731834299e-02
 57        -9.1448883446e-03
 58         4.0219332832e-01
 59         3.6023356720e-01
 60        -1.5523784308e-01
 61         3.1098237626e-02
 62        -1.0025313694e-02
 63        -3.1663518849e-02
 64         7.1486136015e-03
 65        -2.4948170331e-03
 66        -5.2479404429e-03
 67         1.2837649718e-03
 68        -5.3131833698e-04
 69         1.2145645282e-02
 70        -5.0245954168e-03
 71         5.2323342884e-03
 72         3.0336179596e-03
 73        -6.4599532776e-04
 74        -4.8697695384e-04
 75         6.0190175075e-04
 76         9.8943767590e-04
 77        -1.2514743321e-05
 78         2.9862060074e-05
 79         5.8956609977e-06
 80        -4.5235310039e-05
 81         1.9563725576e-03
 82         8.6161318650e-04
 83        -2.7772200643e-04
 84        -2.1757542348e-04
 85        -4.6017843834e-04
 86         3.9264679188e-02
 87        -3.6494757376e-03
 88         1.0148094287e-02
 89         5.8983291991e-03
 90         7.3150370733e-04
 91         7.1598206120e-03
 92         6.0298637217e-03
 93         9.6023256108e-04
 94        -1.9410728961e-03
 95        -2.5747802349e-05
 96         1.8049335927e-03
 97        -3.2460105191e-03
 98        -2.2456996493e-04
 99        -8.3199434636e-04
100         7.6452882799e-05
 Sym= A
 Ene=        -8.0879999650e-01
 Spin= Alpha
 Occup=         2.0000000000e+00
  1         1.0977051230e-02
  2        -1.8124963147e-01
  3        -7.5136145380e-02
  4         6.5720888872e-02
  5         1.3022061618e-02
  6        -4.9709867975e-03
  7         2.9488002481e-03
  8        -8.6744872689e-03
  9         1.2430224543e-03
 10         5.6264158270e-03
 11         7.9594741652e-04
 12         7.9585623585e-06
 13        -9.8510952759e-03
 14        -3.5119607187e-03
 15         1.9783137395e-02
 16        -2.9130826946e-01
 17        -2.0176846947e-01
 18        -9.4656406186e-04
 19         6.6145990309e-02
 20        -3.5077601219e-03
 21        -3.2516044964e-02
 22         2.1681798103e-02
 23        -4.0683319299e-04
 24         9.9715734390e-03
 25         8.8734745397e-04
 26         9.8152447476e-04
 27        -2.6783875462e-03
 28        -1.1166013985e-02
 29         1.6997808834e-02
 30        -2.5404907162e-01
 31        -1.4165518498e-01
 32        -5.8316810142e-02
 33        -5.7417273613e-02
 34         5.7330570648e-03
 35        -2.8493669707e-03
 36        -2.3737964164e-02
 37         1.5267016675e-03
 38         6.9416466173e-03
 39         7.5120411880e-04
 40         1.0307902542e-03
 41         8.7417428377e-03
 42        -9.1002427953e-03
 43         2.4534998102e-03
 44        -6.3846922121e-02
 45        -5.1548855323e-02
 46         6.9671598055e-02
 47        -8.0197358304e-02
 48         4.8703276099e-03
 49         2.5006111533e-02
 50        -2.2387432796e-02
 51         1.1002189987e-03
 52         2.6429751845e-03
 53         6.3923326281e-04
 54         2.4517945367e-04
 55         1.3569428265e-02
 56         2.7721183857e-03
 57        -3.3516720217e-04
 58         7.5540045560e-02
 59         7.2081137919e-02
 60        -1.1438658076e-02
 61        -1.6517492570e-02
 62        -1.8366416960e-04
 63         1.6179212726e-03
 64        -6.8795482208e-03
 65         5.8133317874e-04
 66         1.8669865612e-04
 67         5.8197186856e-05
 68         1.6471461387e-04
 69         1.6097805188e-03
 70         1.6103066302e-03
 71        -6.6998616807e-02
 72        -3.2537885783e-03
 73         5.0554253048e-03
 74        -7.2952746629e-03
 75        -5.2765206937e-03
 76        -6.2332143193e-02
 77        -1.3606588344e-03
 78         4.1472186637e-03
 79         8.6920759396e-03
 80        -3.6714400587e-03
 81        -6.8157105653e-02
 82        -3.5964101652e-03
 83         4.6458009989e-03
 84         2.1886173128e-04
 85         9.0886565813e-03
 86        -1.8075189377e-02
 87         8.8878256584e-04
 88         4.5331880625e-05
 89        -3.3838914021e-03
 90         1.7332729701e-05
 91        -8.4015325665e-02
 92        -2.4521875444e-03
 93        -1.4322095035e-02
 94        -1.4715162308e-03
 95         5.8713662975e-04
 96        -1.0216634382e-01
 97        -1.3102575981e-02
 98        -7.1055942874e-03
 99         1.4248616440e-02
100        -2.2734683473e-04
 Sym= A
 Ene=        -7.1747099609e-01
 Spin= Alpha
 Occup=         2.0000000000e+00
  1         1.3981828504e-02
  2        -2.8662566043e-01
  3        -1.2012543644e-01
  4         1.9244111407e-02
  5        -1.0121299120e-02
  6        -5.2259252737e-03
  7        -1.7337074092e-02
  8        -8.5481615866e-03
  9         5.0322160118e-04
 10         1.4499952579e-03
 11         1.4767314954e-04
 12        -1.8477893896e-04
 13        -3.0854745396e-03
 14         2.2308843707e-03
 15         5.3012556209e-03
 16        -4.8585012108e-02
 17        -8.4851490463e-02
 18        -1.3857915271e-01
 19        -9.4180974039e-02
 20         7.2687488302e-03
 21        -9.3229398264e-02
 22        -8.3674314062e-03
 23         2.7063730349e-03
 24         3.8490931409e-03
 25         3.7966445725e-04
 26        -4.8623016460e-04
 27        -1.7146760918e-02
 28         3.2715227376e-03
 29        -1.3899500132e-02
 30         2.2842169840e-01
 31         1.6744299038e-01
 32        -5.6296455330e-03
 33        -5.5345410134e-02
 34         4.3605843020e-04
 35         3.6289454734e-02
 36        -4.0257121656e-02
 37        -7.8945089480e-05
 38        -4.8095023820e-03
 39         1.2090230195e-04
 40        -2.6802354423e-04
 41        -9.9771031576e-03
 42        -5.0519968085e-03
 43        -3.0481427363e-03
 44         1.5278493489e-01
 45         6.2565328881e-02
 46        -1.0748355750e-01
 47         7.8351556571e-02
 48        -4.8662207186e-03
 49        -3.7675105074e-02
 50         7.7845138997e-03
 51        -1.7617307113e-03