[Molden Format]
[Atoms] (AU)
C    1    6           1.6442931551         3.0041049407         0.3032030653
C    2    6          -0.7899432104         2.4111881755        -0.1660562773
C    3    6          -2.0459809546        -0.0142772341         0.2916983749
C    4    6          -0.8903913380        -2.2808369343         0.1021429897
O    5    8           1.5791590766        -2.6745545507        -0.4104111690
H    6    1           2.3560226710        -1.0306049201        -0.6936033908
H    7    1           2.4314235560         4.8260806051        -0.2702863894
H    8    1           2.9025033474         1.7419805209         1.3570647373
H    9    1          -1.9191538944        -4.0731619454         0.2606436362
H   10    1          -4.0790106814        -0.0188845375         0.6289991059
H   11    1          -1.9639020988         3.8502756771        -1.0916795848
[GTO]
  1 0
 s    8  1.00
     6665.0000000000         0.0006920000
     1000.0000000000         0.0053290000
      228.0000000000         0.0270770000
       64.7100000000         0.1017180000
       21.0600000000         0.2747400000
        7.4950000000         0.4485640000
        2.7970000000         0.2850740000
        0.5215000000         0.0152040000
 s    8  1.00
     6665.0000000000        -0.0001460000
     1000.0000000000        -0.0011540000
      228.0000000000        -0.0057250000
       64.7100000000        -0.0233120000
       21.0600000000        -0.0639550000
        7.4950000000        -0.1499810000
        2.7970000000        -0.1272620000
        0.5215000000         0.5445290000
 s    1  1.00
        0.1596000000         1.0000000000
 p    3  1.00
        9.4390000000         0.0381090000
        2.0020000000         0.2094800000
        0.5456000000         0.5085570000
 p    1  1.00
        0.1517000000         1.0000000000
 d    1  1.00
        0.5500000000         1.0000000000

  2 0
 s    8  1.00
     6665.0000000000         0.0006920000
     1000.0000000000         0.0053290000
      228.0000000000         0.0270770000
       64.7100000000         0.1017180000
       21.0600000000         0.2747400000
        7.4950000000         0.4485640000
        2.7970000000         0.2850740000
        0.5215000000         0.0152040000
 s    8  1.00
     6665.0000000000        -0.0001460000
     1000.0000000000        -0.0011540000
      228.0000000000        -0.0057250000
       64.7100000000        -0.0233120000
       21.0600000000        -0.0639550000
        7.4950000000        -0.1499810000
        2.7970000000        -0.1272620000
        0.5215000000         0.5445290000
 s    1  1.00
        0.1596000000         1.0000000000
 p    3  1.00
        9.4390000000         0.0381090000
        2.0020000000         0.2094800000
        0.5456000000         0.5085570000
 p    1  1.00
        0.1517000000         1.0000000000
 d    1  1.00
        0.5500000000         1.0000000000

  3 0
 s    8  1.00
     6665.0000000000         0.0006920000
     1000.0000000000         0.0053290000
      228.0000000000         0.0270770000
       64.7100000000         0.1017180000
       21.0600000000         0.2747400000
        7.4950000000         0.4485640000
        2.7970000000         0.2850740000
        0.5215000000         0.0152040000
 s    8  1.00
     6665.0000000000        -0.0001460000
     1000.0000000000        -0.0011540000
      228.0000000000        -0.0057250000
       64.7100000000        -0.0233120000
       21.0600000000        -0.0639550000
        7.4950000000        -0.1499810000
        2.7970000000        -0.1272620000
        0.5215000000         0.5445290000
 s    1  1.00
        0.1596000000         1.0000000000
 p    3  1.00
        9.4390000000         0.0381090000
        2.0020000000         0.2094800000
        0.5456000000         0.5085570000
 p    1  1.00
        0.1517000000         1.0000000000
 d    1  1.00
        0.5500000000         1.0000000000

  4 0
 s    8  1.00
     6665.0000000000         0.0006920000
     1000.0000000000         0.0053290000
      228.0000000000         0.0270770000
       64.7100000000         0.1017180000
       21.0600000000         0.2747400000
        7.4950000000         0.4485640000
        2.7970000000         0.2850740000
        0.5215000000         0.0152040000
 s    8  1.00
     6665.0000000000        -0.0001460000
     1000.0000000000        -0.0011540000
      228.0000000000        -0.0057250000
       64.7100000000        -0.0233120000
       21.0600000000        -0.0639550000
        7.4950000000        -0.1499810000
        2.7970000000        -0.1272620000
        0.5215000000         0.5445290000
 s    1  1.00
        0.1596000000         1.0000000000
 p    3  1.00
        9.4390000000         0.0381090000
        2.0020000000         0.2094800000
        0.5456000000         0.5085570000
 p    1  1.00
        0.1517000000         1.0000000000
 d    1  1.00
        0.5500000000         1.0000000000

  5 0
 s    8  1.00
    11720.0000000000         0.0007100000
     1759.0000000000         0.0054700000
      400.8000000000         0.0278370000
      113.7000000000         0.1048000000
       37.0300000000         0.2830620000
       13.2700000000         0.4487190000
        5.0250000000         0.2709520000
        1.0130000000         0.0154580000
 s    8  1.00
    11720.0000000000        -0.0001600000
     1759.0000000000        -0.0012630000
      400.8000000000        -0.0062670000
      113.7000000000        -0.0257160000
       37.0300000000        -0.0709240000
       13.2700000000        -0.1654110000
        5.0250000000        -0.1169550000
        1.0130000000         0.5573680000
 s    1  1.00
        0.3023000000         1.0000000000
 p    3  1.00
       17.7000000000         0.0430180000
        3.8540000000         0.2289130000
        1.0460000000         0.5087280000
 p    1  1.00
        0.2753000000         1.0000000000
 d    1  1.00
        1.1850000000         1.0000000000

  6 0
 s    3  1.00
       13.0100000000         0.0196850000
        1.9620000000         0.1379770000
        0.4446000000         0.4781480000
 s    1  1.00
        0.1220000000         1.0000000000
 p    1  1.00
        0.7270000000         1.0000000000

  7 0
 s    3  1.00
       13.0100000000         0.0196850000
        1.9620000000         0.1379770000
        0.4446000000         0.4781480000
 s    1  1.00
        0.1220000000         1.0000000000
 p    1  1.00
        0.7270000000         1.0000000000

  8 0
 s    3  1.00
       13.0100000000         0.0196850000
        1.9620000000         0.1379770000
        0.4446000000         0.4781480000
 s    1  1.00
        0.1220000000         1.0000000000
 p    1  1.00
        0.7270000000         1.0000000000

  9 0
 s    3  1.00
       13.0100000000         0.0196850000
        1.9620000000         0.1379770000
        0.4446000000         0.4781480000
 s    1  1.00
        0.1220000000         1.0000000000
 p    1  1.00
        0.7270000000         1.0000000000

  10 0
 s    3  1.00
       13.0100000000         0.0196850000
        1.9620000000         0.1379770000
        0.4446000000         0.4781480000
 s    1  1.00
        0.1220000000         1.0000000000
 p    1  1.00
        0.7270000000         1.0000000000

  11 0
 s    3  1.00
       13.0100000000         0.0196850000
        1.9620000000         0.1379770000
        0.4446000000         0.4781480000
 s    1  1.00
        0.1220000000         1.0000000000
 p    1  1.00
        0.7270000000         1.0000000000

[5D7F]
[9G]

[MO]
 Sym= A
 Ene=        -1.9174096383e+01
 Spin= Alpha
 Occup=         2.0000000000e+00
  1        -8.0714571518e-05
  2        -1.3892486484e-04
  3         1.2381406407e-03
  4        -1.0336008913e-04
  5         7.5957305178e-05
  6         2.3160848463e-05
  7        -2.5623564144e-04
  8        -1.3640788867e-03
  9         1.5826129653e-04
 10        -7.0868858473e-05
 11         1.3214034152e-05
 12         4.1485053242e-05
 13        -5.0435919459e-05
 14         7.7357068472e-05
 15         2.1428880437e-04
 16         3.6935470461e-04
 17        -5.5969412127e-03
 18        -5.5887510961e-06
 19         4.3359208582e-06
 20         6.5334016702e-05
 21         2.1539882192e-04
 22         2.9707820764e-03
 23        -8.9601733162e-04
 24         6.8807917318e-05
 25        -1.2633193594e-04
 26         1.0329922345e-04
 27        -6.4295574378e-06
 28         2.1125633717e-05
 29        -1.8978128613e-04
 30        -2.7585811223e-04
 31         4.7943359091e-03
 32         5.4423564362e-05
 33        -2.6773090962e-04
 34         7.5214941098e-06
 35         4.6643726257e-03
 36         3.1225310835e-03
 37        -1.0683136906e-03
 38        -1.5892505573e-04
 39        -1.4074191008e-04
 40         6.7674394011e-05
 41         3.9170487054e-04
 42        -3.9660460821e-04
 43        -1.9468321144e-04
 44        -3.5416204770e-04
 45        -5.7200262817e-03
 46        -3.2836798719e-04
 47         2.1395923798e-04
 48         1.0072973471e-04
 49        -5.8568664130e-03
 50        -1.4957266946e-03
 51         1.2055248803e-03
 52         4.0376450767e-04
 53         3.4518732186e-06
 54         7.0201116981e-05
 55         7.1390412952e-04
 56        -4.0162866410e-04
 57        -1.0040858833e+00
 58        -9.3654858266e-03
 59         1.4039061089e-02
 60         8.8667733417e-04
 61        -1.4586555053e-03
 62        -6.6604416379e-05
 63        -3.2332769874e-03
 64         1.4040009579e-03
 65         6.1482724053e-04
 66         2.5680004286e-05
 67         1.5865170497e-06
 68         8.3661572318e-05
 69         1.5137496953e-04
 70        -2.6861921854e-04
 71        -2.3636118508e-04
 72        -3.4214496450e-04
 73        -2.3512615796e-04
 74        -9.9948300077e-04
 75         5.6498744028e-05
 76         5.5586106986e-05
 77         3.0222126379e-04
 78         3.7626121523e-05
 79         6.2886838411e-05
 80         7.9976789400e-06
 81        -2.3537840943e-04
 82        -1.9250383627e-04
 83         2.9344415496e-06
 84        -2.7842363937e-05
 85        -1.5841161471e-05
 86         4.0164343986e-04
 87        -8.9552424931e-04
 88         6.3243702687e-04
 89         1.4840798125e-04
 90        -1.2533895802e-04
 91         1.6552791153e-04
 92         1.2590162133e-03
 93        -2.2735418291e-04
 94        -2.0870146933e-04
 95         6.3134071186e-05
 96         8.8931808099e-05
 97        -6.1647485029e-04
 98        -3.4672520636e-05
 99        -1.0828534894e-04
100         2.8133499758e-05
 Sym= A
 Ene=        -1.0250646198e+01
 Spin= Alpha
 Occup=         2.0000000000e+00
  1        -2.7958016695e-04
  2        -3.4223306716e-04
  3         1.1160367415e-03
  4         1.4474104908e-04
  5         7.8947603817e-05
  6         7.2349257914e-05
  7        -1.2732292307e-03
  8         5.0099891375e-04
  9        -6.3802080676e-04
 10        -7.4743091193e-05
 11        -1.5069991749e-05
 12        -2.7818320203e-05
 13         5.5028049427e-05
 14        -3.8406374349e-05
 15        -4.9601680404e-04
 16        -7.0850153295e-04
 17         4.8403724421e-03
 18        -1.1583068489e-04
 19         1.4133787956e-05
 20         1.5250296973e-06
 21        -2.3995178472e-03
 22        -4.1399289730e-03
 23         7.5362085522e-04
 24        -3.5238827641e-04
 25        -9.4187561919e-05
 26        -1.0280533873e-04
 27         3.5985563065e-06
 28         1.8434121323e-04
 29         4.6419174631e-03
 30        -1.0254164003e-03
 31         1.9932247660e-04
 32        -5.7935871847e-04
 33         1.3620908645e-03
 34         9.5315146940e-05
 35        -1.9330064875e-03
 36        -6.4817133995e-03
 37         7.5593905514e-04
 38         1.0749725856e-03
 39         2.3964022136e-04
 40        -5.5063576930e-05
 41         5.6284529059e-04
 42         9.0039253411e-04
 43         1.0059042553e+00
 44         1.5279964551e-02
 45        -1.2566998846e-02
 46         5.8114788799e-04
 47        -4.4210431233e-04
 48        -1.8927702078e-04
 49         5.0688944023e-03
 50        -2.3876366300e-03
 51        -1.0083755935e-03
 52        -1.6327633111e-03
 53        -5.0719295260e-04
 54         4.5175366940e-05
 55        -3.1417320251e-04
 56        -2.8024747169e-05
 57         7.1821700056e-04
 58         1.2966725820e-03
 59        -4.9324851303e-03
 60         2.6553298531e-04
 61        -2.0918086551e-04
 62        -3.5069988416e-05
 63         3.2699819696e-03
 64        -2.4562927485e-04
 65        -7.0566882122e-04
 66         6.9556128010e-04
 67         4.3237796839e-04
 68        -1.9946316403e-05
 69        -7.6626608731e-04
 70         1.9270608088e-04
 71         5.1545598701e-04
 72        -4.4848182085e-04
 73        -6.2597478700e-04
 74        -2.3617207844e-05
 75         1.1988960745e-04
 76        -5.5807037151e-05
 77         1.6461313069e-04
 78        -2.5846326541e-05
 79        -5.4844071775e-05
 80         3.0669334868e-05
 81         6.1612747630e-06
 82         9.4282700674e-04
 83         1.0348962535e-05
 84         6.2768277335e-05
 85        -2.9571942178e-05
 86        -2.1330971280e-03
 87         2.2978608858e-03
 88        -1.5282661151e-03
 89        -1.5898806219e-03
 90         2.5450105284e-04
 91        -1.3447778426e-04
 92        -2.5349221376e-04
 93         3.0777536666e-04
 94         2.9284597499e-04
 95        -7.6410497730e-05
 96        -5.5628185986e-05
 97         5.4648780733e-04
 98         1.7133936008e-04
 99         1.3045764109e-04
100        -3.0934354872e-05
 Sym= A
 Ene=        -1.0206244013e+01
 Spin= Alpha
 Occup=         2.0000000000e+00
  1         2.2195933673e-02
  2        -1.1309306839e-03
  3         4.7958577752e-03
  4         1.3339345268e-03
  5         3.3815303867e-04
  6         1.6384972425e-04
  7        -2.0770833246e-03
  8        -1.8124514102e-03
  9         3.7705945306e-04
 10         7.6115858173e-04
 11        -5.3374909380e-04
 12        -2.6247071410e-05
 13        -1.0647232770e-03
 14        -4.0315350708e-04
 15         1.0061808672e+00
 16         1.6255206063e-02
 17        -1.9215055048e-02
 18        -1.1849409085e-04
 19         2.1299606989e-04
 20        -2.5802238306e-04
 21        -1.7172645629e-03
 22         3.2003379913e-03
 23        -1.7293843091e-03
 24        -7.4626795367e-04
 25         7.0579684966e-04
 26        -6.4954404660e-04
 27         2.3884580920e-04
 28        -3.1133632327e-05
 29         5.4109588732e-03
 30        -4.3634098921e-04
 31         1.0985551941e-03
 32        -4.6158531781e-04
 33        -6.1559674022e-04
 34         1.4162949500e-04
 35         7.8456657389e-04
 36         3.8608606615e-03
 37         2.7256752320e-04
 38         7.9460357433e-04
 39         3.2961081052e-05
 40         5.7854099565e-04
 41         1.0999997856e-03
 42        -9.5943934923e-04
 43        -3.5512977626e-04
 44        -7.0387120604e-04
 45         4.1125753792e-03
 46        -1.0656096879e-04
 47        -1.6352836708e-04
 48         1.2885507828e-04
 49        -6.1732190647e-04
 50         2.7729578340e-03
 51        -2.6329903637e-04
 52        -4.2966426013e-04
 53        -3.1650127540e-04
 54         6.1736867619e-05
 55         4.1340027634e-04
 56        -3.1305091609e-04
 57         8.7611365377e-05
 58         1.2755464872e-04
 59        -1.2254054874e-03
 60         1.6402312483e-04
 61        -4.2070493295e-05
 62        -2.6374159161e-05
 63         1.3613944738e-04
 64        -6.8217439359e-04
 65         8.3252590305e-05
 66         8.3113311407e-05
 67         2.5539729085e-05
 68         1.8320928207e-05
 69        -1.5442293458e-05
 70         1.5890215970e-05
 71         2.8923062777e-04
 72         6.0558854863e-04
 73        -2.7824434598e-04
 74        -7.9476123803e-05
 75        -2.0825982964e-05
 76        -4.9517211679e-05
 77         8.9763156558e-04
 78         1.4352681873e-04
 79        -1.1456405300e-04
 80         7.7015608897e-05
 81        -2.6692381033e-04
 82        -2.1133036750e-04
 83         3.6222836890e-05
 84         2.4032917420e-04
 85        -1.1015162797e-04
 86         1.0183642698e-04
 87         7.9212097708e-04
 88         1.7976394521e-04
 89        -5.3063437132e-05
 90         2.5554384001e-06
 91        -3.0043474979e-04
 92         4.2158859310e-04
 93        -7.2890947597e-05
 94        -3.8738519374e-04
 95        -5.8174078990e-05
 96        -2.2897007748e-03
 97         1.2030220752e-03
 98        -1.1497321119e-03
 99         1.5073780837e-03
100        -9.4938230102e-04
 Sym= A
 Ene=        -1.0190783958e+01
 Spin= Alpha
 Occup=         2.0000000000e+00
  1         1.0061775753e+00
  2         1.6354079489e-02
  3        -1.5267410569e-02
  4         2.7514017256e-04
  5        -5.6341082444e-05
  6         2.8791112823e-05
  7         2.2091864643e-03
  8         7.3767721804e-04
  9         7.3591328748e-04
 10        -1.0422070444e-03
 11         7.2471345016e-04
 12        -1.1876221011e-03
 13         5.1457424598e-05
 14         3.2779758062e-04
 15        -2.3426990262e-02
 16        -1.4555516311e-03
 17         1.0447749883e-03
 18        -1.3412056339e-03
 19        -3.3289601946e-04
 20        -2.7312520440e-04
 21         2.9241629380e-03
 22         2.4702841738e-03
 23        -3.1238040124e-05
 24         1.0003019598e-03
 25        -5.8604251768e-04
 26         1.8513924442e-04
 27        -9.9464002106e-04
 28        -7.6900912275e-04
 29        -1.0270245507e-03
 30        -5.1681174714e-04
 31         3.4684719597e-03
 32        -8.3692083794e-05
 33         5.0360864344e-05
 34        -6.5116467300e-05
 35         1.9201024341e-03
 36         2.4565957868e-03
 37        -4.9934574818e-04
 38        -3.7300653262e-04
 39         7.6214000045e-05
 40        -2.4292158308e-04
 41        -3.3743293081e-04
 42         3.1470485825e-05
 43         1.0425109801e-05
 44        -2.0656222044e-04
 45        -6.3095339193e-04
 46        -2.2667666451e-07
 47        -1.3379801090e-04
 48        -5.1037335064e-05
 49        -1.3102871486e-03
 50        -1.5870591398e-04
 51         3.0042270426e-04
 52         5.9107059582e-05
 53         9.8896215593e-05
 54        -8.9472673237e-05
 55        -4.7342238486e-05
 56         1.0506729326e-04
 57         1.1604667461e-05
 58         3.6299782710e-05
 59         4.0747573892e-04
 60         1.2072012500e-04
 61         6.7646519237e-05
 62        -3.7079847030e-05
 63        -6.6111764762e-04
 64        -1.6896861845e-04
 65         1.0077826376e-04
 66        -3.2000978696e-05
 67        -3.3397837973e-05
 68        -2.7049680374e-05
 69         7.9079099537e-05
 70         5.6286235266e-05
 71         1.6830179470e-04
 72         1.2740213275e-03
 73        -1.1980274624e-04
 74         4.2771818211e-04
 75         8.5871693545e-05
 76        -2.3056433129e-03
 77         1.8901017616e-03
 78         7.4924252125e-04
 79         2.0154068966e-03
 80        -7.0453971145e-04
 81        -2.1258573715e-03
 82         1.4911019611e-03
 83         1.2184728727e-03
 84        -1.4872026225e-03
 85         1.2157614762e-03
 86        -8.1646019303e-05
 87        -3.4975245217e-05
 88         3.9849371709e-05
 89         1.9094717741e-05
 90        -1.9911222026e-05
 91         1.1059805982e-04
 92         5.7604001432e-04
 93         1.2915406688e-05
 94        -1.3066383270e-04
 95         4.3921818870e-05
 96         8.3522475880e-05
 97         2.5992938490e-04
 98         1.8468127026e-05
 99        -3.1718201309e-04
100         1.0963870956e-04
 Sym= A
 Ene=        -1.0182368466e+01
 Spin= Alpha
 Occup=         2.0000000000e+00
  1         3.1602980258e-04
  2        -4.4805649262e-04
  3         2.7674076232e-03
  4         7.3433826932e-05
  5         1.0561514765e-04
  6        -8.6192420197e-05
  7        -2.0746115710e-03
  8        -4.0986860514e-04
  9        -4.3816900475e-05
 10        -2.5441740310e-04
 11         5.2109650352e-04
 12        -3.0075449043e-04
 13         2.7306479829e-04
 14        -4.8559668976e-04
 15        -5.7883780657e-03
 16        -6.7877271401e-04
 17         3.0328171657e-03
 18         2.0525352016e-04
 19         6.9280215891e-04
 20        -1.7561934529e-04
 21        -2.0696506783e-03
 22        -3.8601686401e-03
 23        -3.2436284583e-05
 24         9.0341517348e-04
 25         4.9625865200e-04
 26         3.5116429375e-04
 27         5.5858976277e-04
 28        -1.3103452071e-03
 29         1.0066512595e+00
 30         1.6755586187e-02
 31        -2.1870591074e-02
 32        -2.3404606434e-04
 33        -1.7134513160e-04
 34        -1.0050947143e-04
 35        -5.1571087857e-03
 36        -2.4720421471e-04
 37         1.5634319807e-03
 38        -1.0778368470e-03
 39        -3.9739016066e-04
 40        -1.6834795763e-06
 41         2.9627488591e-04
 42        -2.2441973263e-04
 43        -5.9144555355e-03
 44        -1.6091047504e-03
 45         6.7767751177e-03
 46         6.4303570442e-04
 47        -1.2426281184e-03
 48        -9.3198723174e-05
 49         3.0473019968e-04
 50         4.2059665391e-03
 51        -3.3240384419e-04
 52         8.4354724774e-04
 53         1.6081999745e-04
 54        -2.0466528840e-04
 55         7.0404220765e-04
 56         1.0120067563e-03
 57         3.3036878850e-05
 58         4.6151392104e-05
 59        -9.6475939919e-04
 60         2.9268061215e-05
 61        -5.8820457459e-05
 62        -2.7828432590e-06
 63        -1.0490160576e-04
 64        -7.0134986651e-04
 65         6.5844147388e-05
 66        -5.7872605483e-05
 67        -4.1552943636e-05
 68        -1.1356476310e-05
 69         9.4399155089e-05
 70         7.9671630082e-05
 71         2.7119033738e-04
 72         3.9501976054e-05
 73        -1.3890395496e-04
 74        -1.6052833940e-04
 75         2.2792392054e-05
 76         1.1396841003e-04
 77         5.0357805253e-04
 78         1.4008251668e-04
 79        -1.4767669664e-04
 80         5.0592900077e-05
 81        -6.9929852403e-04
 82         5.0730853823e-04
 83         1.8799709068e-04
 84        -1.2377916997e-04
 85         1.1999139571e-04
 86         1.5183043756e-04
 87         1.2054731645e-03
 88         2.8697068882e-04
 89        -1.8502065283e-05
 90        -1.6374753001e-05
 91        -2.4045514905e-03
 92         8.3974529979e-04
 93        -2.1221809146e-03
 94        -5.9430448053e-05
 95         2.8135791221e-04
 96        -3.4116548239e-04
 97         7.0940724196e-04
 98         1.9929029059e-04
 99         2.8948232899e-04
100         7.1248395488e-05
 Sym= A
 Ene=        -1.0656119037e+00
 Spin= Alpha
 Occup=         2.0000000000e+00
  1         1.5580948680e-04
  2         8.4791820222e-03
  3        -4.7550412262e-03
  4        -1.8776389590e-03
  5        -5.1243892434e-03
  6        -6.6932190607e-04
  7         2.8005417614e-03
  8         5.3517908780e-03
  9        -1.9107030880e-03
 10        -2.4532371372e-04
 11        -5.7145636619e-04
 12         6.9815904770e-04
 13        -8.1503841262e-04
 14         9.6782422248e-04
 15        -1.1499112475e-04
 16         1.3081666365e-02
 17         2.4167606041e-03
 18         1.5554650250e-03
 19        -8.6307282553e-03
 20         9.4577877085e-04
 21         6.2695085676e-03
 22         3.0651536922e-03
 23         2.6516215566e-04
 24        -1.4026540133e-03
 25        -1.5114421146e-04
 26        -4.2368642821e-04
 27        -1.3221918372e-03
 28         4.2070515803e-04
 29        -1.2799645829e-03
 30         3.5284197996e-02
 31        -5.1594578431e-03
 32         2.1296738282e-02
 33        -1.8129340371e-02
 34        -4.3019951590e-03
 35         5.0121900986e-03
 36         1.5359880876e-02
 37        -2.0575734115e-03
 38        -2.2139327577e-03
 39        -1.0907448478e-03
 40         1.5394813589e-03
 41         2.1833641605e-03
 42        -8.0503064252e-03
 43        -1.2706409666e-02
 44         1.5395364851e-01
 45         8.5714966192e-02
 46         1.2597080882e-01
 47        -5.2936130853e-03
 48        -2.7146549224e-02
 49         4.9021965101e-03
 50         2.4568317669e-02
 51        -1.1158454116e-03
 52        -1.1106008026e-02
 53        -1.0789169736e-02
 54         8.6226244075e-04
 55         2.8387232691e-02
 56        -4.7105135709e-03
 57        -6.7339730158e-03
 58         4.2393907192e-01
 59         3.7193099403e-01
 60        -7.2741595544e-02
 61         9.0500884551e-02
 62         9.6163431094e-03
 63        -3.1162842470e-02
 64        -2.0876015927e-03
 65         6.7795602768e-03
 66        -6.3542806734e-03
 67        -3.3568833481e-03
 68        -3.1979426756e-04
 69         3.9495390892e-03
 70        -1.7590046377e-03
 71         1.7243627481e-01
 72         5.0170041892e-03
 73        -1.8961683526e-02
 74        -2.9916255044e-02
 75         6.7427867909e-03
 76         1.8637587971e-05
 77        -3.9885113017e-03
 78         5.2228042684e-05
 79         1.0388317391e-04
 80        -1.6233982590e-04
 81         7.5920136705e-03
 82         4.5959836022e-03
 83        -1.1488464428e-03
 84        -6.3584819130e-04
 85        -9.0876075558e-04
 86         3.4090850125e-02
 87         5.4984281374e-03
 88         8.2418151065e-03
 89         4.5253026269e-03
 90        -1.4967987102e-03
 91         5.0874942005e-03
 92         1.8867373308e-03
 93         4.3657968880e-04
 94        -2.2995153519e-03
 95         1.2927078975e-05
 96         1.6531133540e-03
 97        -1.0596844026e-03
 98        -3.0407708127e-04
 99        -4.4734677905e-04
100        -8.7893670833e-05
 Sym= A
 Ene=        -8.0175488675e-01
 Spin= Alpha
 Occup=         2.0000000000e+00
  1         1.4766251054e-02
  2        -1.9247822050e-01
  3        -1.0448840148e-01
  4         8.3148522015e-02
  5         2.9195753837e-02
  6         1.3879132831e-02
  7         8.6290706059e-03
  8        -2.9030671020e-03
  9         8.2859577660e-03
 10         4.8043223073e-03
 11        -2.2971225380e-03
 12        -3.3175187425e-03
 13        -7.8190371081e-03
 14        -6.0025701958e-03
 15         1.9345899562e-02
 16        -2.7758861160e-01
 17        -1.7782549233e-01
 18        -3.8433946413e-02
 19         3.9826843182e-02
 20        -1.8721368297e-02
 21        -1.8745646493e-02
 22         2.0637025230e-02
 23        -1.3777850236e-02
 24         1.0484233566e-02
 25        -8.4633493832e-04
 26         1.2676899487e-03
 27        -1.5507275023e-03
 28        -1.0973558571e-02
 29         1.8237889257e-02
 30        -2.4081766295e-01
 31        -1.4244692826e-01
 32        -5.4462506433e-02
 33        -1.4855898800e-02
 34         1.5093964484e-02
 35        -1.9615212672e-02
 36        -1.1847147844e-02
 37         9.6323406961e-03
 38         8.6592576793e-03
 39         1.6906969776e-03
 40         2.5637128665e-03
 41         9.4690341211e-03
 42        -5.2655178419e-03
 43         5.4805125129e-03
 44        -1.2469989377e-01
 45        -6.6740714183e-02
 46         6.0981075648e-02
 47        -8.5816560855e-02
 48        -1.0119720032e-02
 49         2.3564651244e-02
 50        -1.2271797821e-02
 51        -6.7601354929e-03
 52         3.3626788015e-03
 53        -1.6549337968e-03
 54        -5.4162889815e-04
 55         1.2114575689e-02
 56         4.1459510213e-03
 57         1.1027248341e-03
 58         8.8304766136e-02
 59         8.1171882998e-02
 60         2.7003841520e-02
 61         2.4168972293e-03
 62        -7.2674645183e-03
 63         1.6421591620e-02
 64        -7.9541457026e-03
 65        -3.3401915705e-03
 66         7.9335295374e-04
 67         4.1144553317e-04
 68        -6.9644533986e-04
 69        -1.0753336068e-03
 70         2.9320437721e-03
 71         3.4140362841e-02
 72         3.7203188934e-03
 73        -1.9860983703e-03
 74        -9.2158326347e-03
 75         2.5347337849e-04
 76        -5.9830059497e-02
 77        -5.3839231350e-04
 78         5.8727603385e-03
 79         8.8296078736e-03
 80        -2.1744659193e-03
 81        -6.9463224277e-02
 82        -4.6581570972e-03
 83         8.1766105472e-03
 84        -5.5853972655e-03
 85         5.8370619650e-03
 86        -3.2824559686e-02
 87         1.2069630174e-03
 88        -4.8753097551e-04
 89        -5.8188375273e-03
 90         2.1025256228e-04
 91        -8.1548147328e-02
 92        -8.7302453276e-03
 93        -1.3080643611e-02
 94        -9.1410455926e-04
 95         2.0699116960e-03
 96        -9.5363492726e-02
 97        -1.2198574785e-02
 98        -8.5038696096e-03
 99         1.0754648677e-02
100        -6.3877149771e-03
 Sym= A
 Ene=        -7.3179445639e-01
 Spin= Alpha
 Occup=         2.0000000000e+00
  1         1.6286560891e-02
  2        -2.2718836334e-01
  3        -1.2679071339e-01
  4         5.4544755832e-02
  5         9.3208006535e-03
  6         1.3810761976e-02
  7         2.6105804228e-03
  8         1.0176740454e-03
  9         2.8614931745e-03
 10         3.1128471611e-03
 11        -2.5877625368e-03
 12        -2.2491710876e-03
 13        -5.4866922535e-03
 14         4.6182455114e-05
 15         8.8780394725e-03
 16        -1.3473845320e-01
 17        -1.0163220844e-01
 18        -1.0964649437e-01
 19        -7.6445465336e-02
 20        -6.6553759964e-03
 21        -4.7619663896e-02
 22        -1.2632816640e-02
 23        -6.5642151867e-03
 24         2.3673321455e-03
 25        -4.1446462167e-03
 26        -2.5660077842e-03
 27        -1.4516720457e-02
 28         3.9526811484e-04
 29        -1.3418851896e-02
 30         1.9881421654e-01
 31         1.2979720069e-01
 32         1.0219513244e-02
 33        -1.1987843746e-01
 34        -4.4956369239e-03
 35         1.8881273134e-02
 36        -3.3318258616e-02
 37        -2.9447337895e-04
 38        -3.3643097214e-03
 39         1.7976026991e-04
 40         1.9989009947e-03
 41        -6.7904108346e-03
 42        -1.2139839296e-02
 43        -9.9773305487e-03
 44         2.5165551546e-01
 45         1.4015418974e-01
 46        -7.2638460618e-02
 47         5.9894959531e-02
 48         1.1129748736e-02
 49        -2.2670742948e-02
 50         9.4273386689e-03
 51         2.6878489718e-03