Generated by Psi4
        SP                           RHF                       CC-PVDZ
Number of atoms                            I               11
Charge                                     I                0
Multiplicity                               I                1
Number of electrons                        I               38
Number of alpha electrons                  I               19
Number of beta electrons                   I               19
Number of basis functions                  I              100
Number of independent functions            I              100
Atomic numbers                             I   N=          11
           6           6           6           6           8           1
           1           1           1           1           1
Nuclear charges                            R   N=          11
  6.00000000e+00  6.00000000e+00  6.00000000e+00  6.00000000e+00  8.00000000e+00
  1.00000000e+00  1.00000000e+00  1.00000000e+00  1.00000000e+00  1.00000000e+00
  1.00000000e+00
Current cartesian coordinates              R   N=          33
  1.64416071e+00  3.00540143e+00  3.02858344e-01 -7.91521921e-01  2.41061140e+00
 -1.68091302e-01 -2.04446976e+00 -9.19495916e-03  2.92069255e-01 -8.90054755e-01
 -2.28313576e+00  1.02296079e-01  1.57932322e+00 -2.67826366e+00 -4.09098393e-01
  2.35630823e+00 -1.02917498e+00 -6.98245217e-01  2.42988311e+00  4.82675324e+00
 -2.68032152e-01  2.90240786e+00  1.74644744e+00  1.35812881e+00 -1.91857866e+00
 -4.06713955e+00  2.63141063e-01 -4.08142216e+00 -1.66460359e-02  6.26233059e-01
 -1.96494736e+00  3.85259992e+00 -1.08882574e+00
Integer atomic weights                     I   N=          11
          12          12          12          12          16           1
           1           1           1           1           1
Real atomic weights                        R   N=          11
  1.20000000e+01  1.20000000e+01  1.20000000e+01  1.20000000e+01  1.59949146e+01
  1.00782503e+00  1.00782503e+00  1.00782503e+00  1.00782503e+00  1.00782503e+00
  1.00782503e+00
Number of primitive shells                 I              140
Number of contracted shells                I               48
Pure/Cartesian d shells                    I                0
Pure/Cartesian f shells                    I                0
Highest angular momentum                   I                2
Largest degree of contraction              I                8
Shell types                                I   N=          48
           0           0           0           1           1          -2
           0           0           0           1           1          -2
           0           0           0           1           1          -2
           0           0           0           1           1          -2
           0           0           0           1           1          -2
           0           0           1           0           0           1
           0           0           1           0           0           1
           0           0           1           0           0           1
Number of primitives per shell             I   N=          48
           8           8           1           3           1           1
           8           8           1           3           1           1
           8           8           1           3           1           1
           8           8           1           3           1           1
           8           8           1           3           1           1
           3           1           1           3           1           1
           3           1           1           3           1           1
           3           1           1           3           1           1
Shell to atom map                          I   N=          48
           1           1           1           1           1           1
           2           2           2           2           2           2
           3           3           3           3           3           3
           4           4           4           4           4           4
           5           5           5           5           5           5
           6           6           6           7           7           7
           8           8           8           9           9           9
          10          10          10          11          11          11
Primitive exponents                        R   N=         140
  6.66500000e+03  1.00000000e+03  2.28000000e+02  6.47100000e+01  2.10600000e+01
  7.49500000e+00  2.79700000e+00  5.21500000e-01  6.66500000e+03  1.00000000e+03
  2.28000000e+02  6.47100000e+01  2.10600000e+01  7.49500000e+00  2.79700000e+00
  5.21500000e-01  1.59600000e-01  9.43900000e+00  2.00200000e+00  5.45600000e-01
  1.51700000e-01  5.50000000e-01  6.66500000e+03  1.00000000e+03  2.28000000e+02
  6.47100000e+01  2.10600000e+01  7.49500000e+00  2.79700000e+00  5.21500000e-01
  6.66500000e+03  1.00000000e+03  2.28000000e+02  6.47100000e+01  2.10600000e+01
  7.49500000e+00  2.79700000e+00  5.21500000e-01  1.59600000e-01  9.43900000e+00
  2.00200000e+00  5.45600000e-01  1.51700000e-01  5.50000000e-01  6.66500000e+03
  1.00000000e+03  2.28000000e+02  6.47100000e+01  2.10600000e+01  7.49500000e+00
  2.79700000e+00  5.21500000e-01  6.66500000e+03  1.00000000e+03  2.28000000e+02
  6.47100000e+01  2.10600000e+01  7.49500000e+00  2.79700000e+00  5.21500000e-01
  1.59600000e-01  9.43900000e+00  2.00200000e+00  5.45600000e-01  1.51700000e-01
  5.50000000e-01  6.66500000e+03  1.00000000e+03  2.28000000e+02  6.47100000e+01
  2.10600000e+01  7.49500000e+00  2.79700000e+00  5.21500000e-01  6.66500000e+03
  1.00000000e+03  2.28000000e+02  6.47100000e+01  2.10600000e+01  7.49500000e+00
  2.79700000e+00  5.21500000e-01  1.59600000e-01  9.43900000e+00  2.00200000e+00
  5.45600000e-01  1.51700000e-01  5.50000000e-01  1.17200000e+04  1.75900000e+03
  4.00800000e+02  1.13700000e+02  3.70300000e+01  1.32700000e+01  5.02500000e+00
  1.01300000e+00  1.17200000e+04  1.75900000e+03  4.00800000e+02  1.13700000e+02
  3.70300000e+01  1.32700000e+01  5.02500000e+00  1.01300000e+00  3.02300000e-01
  1.77000000e+01  3.85400000e+00  1.04600000e+00  2.75300000e-01  1.18500000e+00
  1.30100000e+01  1.96200000e+00  4.44600000e-01  1.22000000e-01  7.27000000e-01
  1.30100000e+01  1.96200000e+00  4.44600000e-01  1.22000000e-01  7.27000000e-01
  1.30100000e+01  1.96200000e+00  4.44600000e-01  1.22000000e-01  7.27000000e-01
  1.30100000e+01  1.96200000e+00  4.44600000e-01  1.22000000e-01  7.27000000e-01
  1.30100000e+01  1.96200000e+00  4.44600000e-01  1.22000000e-01  7.27000000e-01
  1.30100000e+01  1.96200000e+00  4.44600000e-01  1.22000000e-01  7.27000000e-01
Contraction coefficients                   R   N=         140
  6.91583963e-04  5.32579615e-03  2.70607210e-02  1.01656846e-01  2.74574824e-01
  4.48294319e-01  2.84902611e-01  1.51948592e-02 -2.93269653e-04 -2.31803547e-03
 -1.14997860e-02 -4.68267270e-02 -1.28466169e-01 -3.01266272e-01 -2.55630702e-01
  1.09379336e+00  1.00000000e+00  5.69792516e-02  3.13207212e-01  7.60376742e-01
  1.00000000e+00  1.00000000e+00  6.91583963e-04  5.32579615e-03  2.70607210e-02
  1.01656846e-01  2.74574824e-01  4.48294319e-01  2.84902611e-01  1.51948592e-02
 -2.93269653e-04 -2.31803547e-03 -1.14997860e-02 -4.68267270e-02 -1.28466169e-01
 -3.01266272e-01 -2.55630702e-01  1.09379336e+00  1.00000000e+00  5.69792516e-02
  3.13207212e-01  7.60376742e-01  1.00000000e+00  1.00000000e+00  6.91583963e-04
  5.32579615e-03  2.70607210e-02  1.01656846e-01  2.74574824e-01  4.48294319e-01
  2.84902611e-01  1.51948592e-02 -2.93269653e-04 -2.31803547e-03 -1.14997860e-02
 -4.68267270e-02 -1.28466169e-01 -3.01266272e-01 -2.55630702e-01  1.09379336e+00
  1.00000000e+00  5.69792516e-02  3.13207212e-01  7.60376742e-01  1.00000000e+00
  1.00000000e+00  6.91583963e-04  5.32579615e-03  2.70607210e-02  1.01656846e-01
  2.74574824e-01  4.48294319e-01  2.84902611e-01  1.51948592e-02 -2.93269653e-04
 -2.31803547e-03 -1.14997860e-02 -4.68267270e-02 -1.28466169e-01 -3.01266272e-01
 -2.55630702e-01  1.09379336e+00  1.00000000e+00  5.69792516e-02  3.13207212e-01
  7.60376742e-01  1.00000000e+00  1.00000000e+00  7.09645947e-04  5.46727229e-03
  2.78231186e-02  1.04747740e-01  2.82920846e-01  4.48495239e-01  2.70816885e-01
  1.54502916e-02 -3.14443412e-04 -2.48213768e-03 -1.23163554e-02 -5.05389173e-02
 -1.39384903e-01 -3.25077495e-01 -2.29848308e-01  1.09537935e+00  1.00000000e+00
  6.26791663e-02  3.33536566e-01  7.41239642e-01  1.00000000e+00  1.00000000e+00
  3.34987264e-02  2.34800801e-01  8.13682958e-01  1.00000000e+00  1.00000000e+00
  3.34987264e-02  2.34800801e-01  8.13682958e-01  1.00000000e+00  1.00000000e+00
  3.34987264e-02  2.34800801e-01  8.13682958e-01  1.00000000e+00  1.00000000e+00
  3.34987264e-02  2.34800801e-01  8.13682958e-01  1.00000000e+00  1.00000000e+00
  3.34987264e-02  2.34800801e-01  8.13682958e-01  1.00000000e+00  1.00000000e+00
  3.34987264e-02  2.34800801e-01  8.13682958e-01  1.00000000e+00  1.00000000e+00
Coordinates of each shell                  R   N=         144
  1.64416071e+00  3.00540143e+00  3.02858344e-01  1.64416071e+00  3.00540143e+00
  3.02858344e-01  1.64416071e+00  3.00540143e+00  3.02858344e-01  1.64416071e+00
  3.00540143e+00  3.02858344e-01  1.64416071e+00  3.00540143e+00  3.02858344e-01
  1.64416071e+00  3.00540143e+00  3.02858344e-01 -7.91521921e-01  2.41061140e+00
 -1.68091302e-01 -7.91521921e-01  2.41061140e+00 -1.68091302e-01 -7.91521921e-01
  2.41061140e+00 -1.68091302e-01 -7.91521921e-01  2.41061140e+00 -1.68091302e-01
 -7.91521921e-01  2.41061140e+00 -1.68091302e-01 -7.91521921e-01  2.41061140e+00
 -1.68091302e-01 -2.04446976e+00 -9.19495916e-03  2.92069255e-01 -2.04446976e+00
 -9.19495916e-03  2.92069255e-01 -2.04446976e+00 -9.19495916e-03  2.92069255e-01
 -2.04446976e+00 -9.19495916e-03  2.92069255e-01 -2.04446976e+00 -9.19495916e-03
  2.92069255e-01 -2.04446976e+00 -9.19495916e-03  2.92069255e-01 -8.90054755e-01
 -2.28313576e+00  1.02296079e-01 -8.90054755e-01 -2.28313576e+00  1.02296079e-01
 -8.90054755e-01 -2.28313576e+00  1.02296079e-01 -8.90054755e-01 -2.28313576e+00
  1.02296079e-01 -8.90054755e-01 -2.28313576e+00  1.02296079e-01 -8.90054755e-01
 -2.28313576e+00  1.02296079e-01  1.57932322e+00 -2.67826366e+00 -4.09098393e-01
  1.57932322e+00 -2.67826366e+00 -4.09098393e-01  1.57932322e+00 -2.67826366e+00
 -4.09098393e-01  1.57932322e+00 -2.67826366e+00 -4.09098393e-01  1.57932322e+00
 -2.67826366e+00 -4.09098393e-01  1.57932322e+00 -2.67826366e+00 -4.09098393e-01
  2.35630823e+00 -1.02917498e+00 -6.98245217e-01  2.35630823e+00 -1.02917498e+00
 -6.98245217e-01  2.35630823e+00 -1.02917498e+00 -6.98245217e-01  2.42988311e+00
  4.82675324e+00 -2.68032152e-01  2.42988311e+00  4.82675324e+00 -2.68032152e-01
  2.42988311e+00  4.82675324e+00 -2.68032152e-01  2.90240786e+00  1.74644744e+00
  1.35812881e+00  2.90240786e+00  1.74644744e+00  1.35812881e+00  2.90240786e+00
  1.74644744e+00  1.35812881e+00 -1.91857866e+00 -4.06713955e+00  2.63141063e-01
 -1.91857866e+00 -4.06713955e+00  2.63141063e-01 -1.91857866e+00 -4.06713955e+00
  2.63141063e-01 -4.08142216e+00 -1.66460359e-02  6.26233059e-01 -4.08142216e+00
 -1.66460359e-02  6.26233059e-01 -4.08142216e+00 -1.66460359e-02  6.26233059e-01
 -1.96494736e+00  3.85259992e+00 -1.08882574e+00 -1.96494736e+00  3.85259992e+00
 -1.08882574e+00 -1.96494736e+00  3.85259992e+00 -1.08882574e+00
Total Energy                               R     -2.312256644646212e+02
Alpha Orbital Energies                     R   N=         100
 -1.91745197e+01 -1.02508015e+01 -1.02061475e+01 -1.01905777e+01 -1.01826337e+01
 -1.06530183e+00 -8.01714764e-01 -7.31230879e-01 -6.29059553e-01 -5.79057268e-01
 -4.99211316e-01 -4.78304773e-01 -4.47627323e-01 -4.09566501e-01 -3.94467454e-01
 -3.76508630e-01 -3.47568392e-01 -2.99968631e-01 -2.18044128e-01 -2.59335596e-02
  5.62810885e-02  7.25069913e-02  8.06421422e-02  1.01007356e-01  1.25803004e-01
  1.41663361e-01  1.64497443e-01  2.21225777e-01  3.00643557e-01  3.21526217e-01
  3.49353454e-01  4.33949396e-01  4.45260673e-01  4.74905539e-01  4.78720075e-01
  4.94647865e-01  5.11468976e-01  5.34965748e-01  5.54674909e-01  5.65743521e-01
  5.81675778e-01  6.12628489e-01  6.27541951e-01  6.57575105e-01  6.74666175e-01
  7.19583844e-01  7.68676742e-01  7.94512039e-01  8.80135749e-01  9.05886440e-01
  9.40919638e-01  9.54726632e-01  9.63185383e-01  1.00120531e+00  1.03860262e+00
  1.05138021e+00  1.09442708e+00  1.10407993e+00  1.16301678e+00  1.19069780e+00
  1.21978839e+00  1.31984210e+00  1.36524530e+00  1.43452379e+00  1.45369809e+00
  1.48287810e+00  1.50489867e+00  1.52870755e+00  1.55529671e+00  1.58792835e+00
  1.60418316e+00  1.64610288e+00  1.68434311e+00  1.71672082e+00  1.73215179e+00
  1.75352761e+00  1.75870466e+00  1.82238547e+00  1.89542195e+00  1.92237779e+00
  1.97979688e+00  1.98726213e+00  2.03539434e+00  2.07814712e+00  2.09978999e+00
  2.17313861e+00  2.21845220e+00  2.26497536e+00  2.38747931e+00  2.40060367e+00
  2.42280774e+00  2.57416109e+00  2.73543442e+00  2.77940773e+00  2.87778677e+00
  2.95564669e+00  3.02221434e+00  3.17774514e+00  3.43575605e+00  3.69634613e+00
Alpha MO coefficients                      R   N=       10000
 -7.98717369e-05 -1.37341824e-04  1.23674262e-03 -1.03828572e-04  7.53204591e-05
  2.31089407e-05 -2.53772824e-04 -1.35756016e-03  1.57304255e-04 -7.08060810e-05
  1.32898272e-05  4.19694451e-05 -4.98875772e-05  7.64579335e-05  2.13699284e-04
  3.67964342e-04 -5.61449337e-03 -4.89738970e-06  5.30348867e-06  6.53157281e-05
  2.14396528e-04  2.97316258e-03 -9.00956614e-04  6.87976300e-05 -1.26278888e-04
  1.03387917e-04 -7.12936338e-06  2.00673235e-05 -1.92456798e-04 -2.80555258e-04
  4.83091685e-03  5.42799165e-05 -2.69750977e-04  6.86544278e-06  4.66292675e-03
  3.11713914e-03 -1.06865602e-03 -1.59110451e-04 -1.40529342e-04  6.64179666e-05
  3.84937474e-04 -3.96576390e-04 -1.96371710e-04 -3.57260897e-04 -5.71828071e-03
 -3.27680913e-04  2.18386826e-04  9.99487614e-05 -5.84977932e-03 -1.49885972e-03
  1.20283586e-03  4.04508890e-04  4.25485329e-06  6.96359041e-05  7.11084636e-04
 -3.99869333e-04 -1.00408262e+00 -9.35678119e-03  1.40549560e-02  8.93560119e-04
 -1.44915424e-03 -6.38538616e-05 -3.23009811e-03  1.41877270e-03  6.09380352e-04
  2.08902397e-05  6.99973571e-07  8.22993670e-05  1.48470565e-04 -2.62554281e-04
 -2.61466464e-04 -3.42083177e-04 -2.25861786e-04 -9.78381405e-04  5.56785943e-05
  5.48565442e-05  3.00066392e-04  3.75817699e-05  6.27186107e-05  7.85875546e-06
 -2.34328079e-04 -1.94491099e-04  3.11055417e-06 -2.72418689e-05 -1.49150340e-05
  4.04493487e-04 -9.04324091e-04  6.33937716e-04  1.46322769e-04 -1.25814858e-04
  1.69617750e-04  1.25345895e-03 -2.24229447e-04 -2.07075722e-04  6.27550575e-05
  8.81011234e-05 -6.16137813e-04 -3.49759766e-05 -1.08430504e-04  2.83612940e-05
 -2.79490226e-04 -3.42969351e-04  1.10310665e-03  1.46347822e-04  7.95979231e-05
  7.28666919e-05 -1.26872199e-03  5.00395965e-04 -6.36771461e-04 -7.47575099e-05
 -1.65076091e-05 -2.89332039e-05  5.39908254e-05 -3.88351143e-05 -4.94436246e-04
 -7.07189596e-04  4.88711360e-03 -1.17825364e-04  1.38533475e-05  2.43108810e-06
 -2.39512163e-03 -4.15169605e-03  7.61679530e-04 -3.52861354e-04 -9.66529506e-05
 -1.03684246e-04  8.72953083e-06  1.86307390e-04  4.53982455e-03 -9.97081264e-04
  9.00927506e-05 -5.73640819e-04  1.34719626e-03  9.57064633e-05 -1.96575183e-03
 -6.46592903e-03  7.66812136e-04  1.07437668e-03  2.39017950e-04 -5.56588765e-05
  5.72628767e-04  9.04578238e-04  1.00591158e+00  1.52912271e-02 -1.25264218e-02
  5.73385509e-04 -4.77103959e-04 -1.84928085e-04  5.04790978e-03 -2.35059284e-03
 -1.00753182e-03 -1.63385715e-03 -5.07107338e-04  3.91609008e-05 -3.14996305e-04
 -5.90839465e-06  7.19427258e-04  1.29905976e-03 -4.93256706e-03  2.65547669e-04
 -2.07765296e-04 -3.52113809e-05  3.26213303e-03 -2.60086326e-04 -6.98955001e-04
  6.96125762e-04  4.31319209e-04 -1.90532441e-05 -7.65147468e-04  1.95441649e-04
  5.19877777e-04 -4.39428650e-04 -6.25422892e-04 -2.65139920e-05  1.19613054e-04
 -5.54748000e-05  1.65388929e-04 -2.57784751e-05 -5.49044731e-05  3.06924562e-05
  6.63438499e-06  9.40420083e-04  1.04624245e-05  6.33692948e-05 -2.93620319e-05
 -2.17191953e-03  2.32961663e-03 -1.53527060e-03 -1.59908595e-03  2.58517299e-04
 -1.44071377e-04 -2.64794737e-04  3.00743976e-04  2.93223525e-04 -7.49176273e-05
 -5.42449574e-05  5.49449693e-04  1.72398672e-04  1.30956143e-04 -3.13990079e-05
  2.18335690e-02 -1.12673892e-03  4.78431111e-03  1.32677493e-03  3.37518679e-04
  1.63502361e-04 -2.07269404e-03 -1.81496424e-03  3.83396040e-04  7.60515994e-04
 -5.40484483e-04 -2.81820590e-05 -1.06738808e-03 -4.00292942e-04  1.00619294e+00
  1.62666307e-02 -1.92262089e-02 -1.28973608e-04  2.05942234e-04 -2.52154274e-04
 -1.70578340e-03  3.20759819e-03 -1.74489872e-03 -7.53847328e-04  6.98128544e-04
 -6.50949100e-04  2.25435636e-04 -2.63141447e-05  5.62975864e-03 -4.45270763e-04
  1.12335690e-03 -4.66908971e-04 -6.32231560e-04  1.45231615e-04  7.80723087e-04
  3.87580878e-03  2.73227264e-04  7.99976216e-04  3.75101354e-05  5.82590715e-04
  1.09762775e-03 -9.59593992e-04 -3.55614776e-04 -7.02063722e-04  4.10709987e-03
 -1.04994053e-04 -1.61284476e-04  1.28362742e-04 -6.12260103e-04  2.78219641e-03
 -2.64219961e-04 -4.28686993e-04 -3.15918176e-04  6.18845262e-05  4.08799469e-04
 -3.12195116e-04  8.88304924e-05  1.29973679e-04 -1.22672994e-03  1.63480328e-04
 -4.07337642e-05 -2.63220667e-05  1.35069636e-04 -6.86105215e-04  8.52030902e-05
  8.30517249e-05  2.50002692e-05  1.86798613e-05 -1.49781799e-05  1.61495455e-05
  2.88835934e-04  6.07566812e-04 -2.78409693e-04 -8.02103299e-05 -1.97663164e-05
 -5.13123384e-05  8.99424081e-04  1.44845647e-04 -1.13531048e-04  7.67804157e-05
 -2.64190824e-04 -2.16075531e-04  3.79910415e-05  2.43606682e-04 -1.12068680e-04
  1.01689654e-04  7.98348587e-04  1.79967842e-04 -5.47752696e-05  2.27323639e-06
 -2.94162459e-04  4.17416899e-04 -6.93392956e-05 -3.86685664e-04 -5.82873606e-05
 -2.29162282e-03  1.20051705e-03 -1.15359377e-03  1.50910565e-03 -9.42723239e-04
  1.00618958e+00  1.63613080e-02 -1.52454625e-02  2.84382076e-04 -5.09307070e-05
  3.08724802e-05  2.19805579e-03  7.30942263e-04  7.37300193e-04 -1.04102861e-03
  7.28990402e-04 -1.18743807e-03  4.87924987e-05  3.29259920e-04 -2.30513506e-02
 -1.44034424e-03  9.69966734e-04 -1.33501117e-03 -3.30225840e-04 -2.73822454e-04
  2.91484875e-03  2.49651197e-03 -4.34953145e-05  1.00194511e-03 -5.85664658e-04
  1.83870333e-04 -9.96785087e-04 -7.73814448e-04 -1.07174442e-03 -5.19305558e-04
  3.52452264e-03 -8.43072253e-05  5.34038278e-05 -6.68074359e-05  1.93972697e-03
  2.47427936e-03 -5.05076011e-04 -3.74062451e-04  7.59530548e-05 -2.45493020e-04
 -3.38120398e-04  3.06572873e-05  1.09062113e-05 -2.05666947e-04 -6.37180937e-04
  8.93908903e-09 -1.34065939e-04 -5.12097278e-05 -1.31442636e-03 -1.65114073e-04
  3.01338955e-04  5.99585970e-05  9.84334630e-05 -9.00330283e-05 -4.49105741e-05
  1.05397291e-04  1.05486116e-05  3.44088814e-05  4.10702009e-04  1.20220569e-04
  6.74393153e-05 -3.74513329e-05 -6.61924178e-04 -1.69381009e-04  1.01632750e-04
 -3.16415600e-05 -3.33975425e-05 -2.73172013e-05  7.84917458e-05  5.60495690e-05
  1.67836975e-04  1.27674634e-03 -1.20600497e-04  4.26238713e-04  8.69339151e-05
 -2.31508642e-03  1.89551934e-03  7.49687135e-04  2.01931355e-03 -7.02684842e-04
 -2.13361174e-03  1.49269626e-03  1.22027943e-03 -1.48657765e-03  1.21915568e-03
 -8.20026481e-05 -3.84610990e-05  4.05164740e-05  1.97741041e-05 -2.00644613e-05
  1.10328682e-04  5.79870912e-04  1.24391935e-05 -1.31615046e-04  4.42114471e-05
  7.89645115e-05  2.52043148e-04  1.65725492e-05 -3.16107950e-04  1.07346628e-04
  3.54038872e-04 -4.51146312e-04  2.79895049e-03  7.32154151e-05  1.05172999e-04
 -8.58547154e-05 -2.09149260e-03 -4.24421766e-04 -4.45094082e-05 -2.55291093e-04
  5.21409234e-04 -3.02884097e-04  2.73493520e-04 -4.81000676e-04 -6.02178319e-03
 -6.98059532e-04  3.03902176e-03  2.15180969e-04  7.07921952e-04 -1.78988989e-04
 -2.09346622e-03 -3.86930084e-03 -3.85311418e-05  9.06454609e-04  4.94862543e-04
  3.59300808e-04  5.61694163e-04 -1.31167063e-03  1.00664164e+00  1.67349690e-02
 -2.18664353e-02 -2.25974024e-04 -1.49063881e-04 -1.10092613e-04 -5.14746819e-03
 -2.63628130e-04  1.57679963e-03 -1.07378626e-03 -3.90005625e-04 -7.98377266e-06
  2.84574446e-04 -1.96638081e-04 -5.77678501e-03 -1.58211660e-03  6.72661087e-03
  6.33489095e-04 -1.22716530e-03 -9.20884817e-05  3.19495265e-04  4.20494621e-03
 -3.39922831e-04  8.39128115e-04  1.60750365e-04 -2.07537955e-04  7.00754508e-04
  1.01900234e-03  3.49505712e-05  4.96113214e-05 -9.71349876e-04  2.89308065e-05
 -5.88350090e-05 -2.90068368e-06 -1.04242055e-04 -7.07515408e-04  6.79323000e-05
 -5.74158353e-05 -4.13409145e-05 -1.11558495e-05  9.55680823e-05  8.20490847e-05
  2.72528809e-04  3.80249153e-05 -1.39142004e-04 -1.62045440e-04  2.34006115e-05
  1.12327359e-04  5.09645487e-04  1.40851234e-04 -1.46159680e-04  5.05663142e-05
 -7.02257729e-04  5.07158437e-04  1.89307537e-04 -1.22389050e-04  1.19996723e-04
  1.46170674e-04  1.21673980e-03  2.86460660e-04 -2.48235937e-05 -1.67222908e-05
 -2.37960960e-03  8.34891847e-04 -2.11469926e-03 -5.50108006e-05  2.74090970e-04
 -3.34662070e-04  7.05273809e-04  2.04074482e-04  2.86990388e-04  7.33305859e-05
  1.45860520e-04  8.42384536e-03 -4.43991008e-03 -1.88819033e-03 -5.09213010e-03
 -6.68752017e-04  2.66694615e-03  5.20278169e-03 -1.91939031e-03 -2.52407590e-04
 -5.57470990e-04  6.96984957e-04 -8.05753461e-04  9.67333206e-04 -9.42144858e-05
  1.31086239e-02  2.01007705e-03  1.54057323e-03 -8.63374664e-03  9.56149927e-04
  6.02764134e-03  3.22443017e-03  1.78998319e-04 -1.37840799e-03 -1.49934686e-04
 -4.23283429e-04 -1.32665361e-03  4.00846028e-04 -1.31389726e-03  3.51127084e-02
 -4.22846946e-03  2.11759800e-02 -1.81030650e-02 -4.29123296e-03  5.36684481e-03
  1.50371445e-02 -2.08110210e-03 -2.23785049e-03 -1.09197165e-03  1.53472590e-03
  2.10684330e-03 -8.04316985e-03 -1.27051471e-02  1.54232555e-01  8.50771144e-02
  1.26171992e-01 -5.55251425e-03 -2.71528001e-02  5.10568530e-03  2.40464974e-02
 -1.19606131e-03 -1.10989294e-02 -1.07745560e-02  8.77333012e-04  2.83627859e-02
 -4.76869521e-03 -6.68675185e-03  4.24014722e-01  3.72781179e-01 -7.32815230e-02
  9.00783004e-02  9.47007167e-03 -3.11432675e-02 -1.70791248e-03  6.74604205e-03
 -6.35073919e-03 -3.35683730e-03 -3.37963596e-04  3.98854043e-03 -1.79593743e-03
  1.71044140e-01  4.94601184e-03 -1.88057230e-02 -2.97393716e-02  6.79021622e-03
  2.10892867e-05 -3.93961153e-03  5.50397984e-05  1.06206743e-04 -1.60108264e-04
  7.51083463e-03  4.58766020e-03 -1.14091441e-03 -6.42138573e-04 -9.07871587e-04
  3.43741775e-02  5.40383235e-03  8.27106218e-03  4.51036162e-03 -1.50899881e-03
  5.10071466e-03  1.97104191e-03  4.46910978e-04 -2.27815947e-03  7.54831655e-06
  1.62987179e-03 -1.13417526e-03 -3.06118834e-04 -4.47802218e-04 -8.87774915e-05
  1.47758064e-02 -1.92399878e-01 -1.04469874e-01  8.30248386e-02  2.92140808e-02
  1.38681013e-02  8.68804641e-03 -2.84638677e-03  8.28592194e-03  4.82185031e-03
 -2.30599380e-03 -3.32229045e-03 -7.81879508e-03 -6.00953550e-03  1.93917176e-02
 -2.78380893e-01 -1.78248156e-01 -3.78729391e-02  4.02831500e-02 -1.89335715e-02
 -1.87803558e-02  2.06993670e-02 -1.37846288e-02  1.04648872e-02 -8.44867108e-04
  1.28940574e-03 -1.54347411e-03 -1.09883100e-02  1.81145649e-02 -2.40793022e-01
 -1.42243832e-01 -5.44715028e-02 -1.62708418e-02  1.53210842e-02 -1.91825463e-02
 -1.20124848e-02  9.58675334e-03  8.65421449e-03  1.72000801e-03  2.60735404e-03
  9.46572688e-03 -5.37038504e-03  5.42519991e-03 -1.23470897e-01 -6.65077562e-02
  6.05448056e-02 -8.51404264e-02 -1.00401566e-02  2.32931705e-02 -1.26201261e-02
 -6.68902054e-03  3.35203564e-03 -1.65214405e-03 -5.23133557e-04  1.20955014e-02
  4.06646699e-03  1.08901392e-03  8.79443402e-02  8.11904630e-02  2.65239361e-02
  2.17345087e-03 -7.21244598e-03  1.62068556e-02 -7.82531861e-03 -3.29594050e-03
  7.87248872e-04  4.00130086e-04 -6.90542073e-04 -1.04682461e-03  2.89803956e-03
  3.34084359e-02  3.71461082e-03 -1.94751598e-03 -9.12001601e-03  2.55575418e-04
 -5.99212560e-02 -5.61522236e-04  5.86588495e-03  8.83957541e-03 -2.16647324e-03
 -6.95145215e-02 -4.68366044e-03  8.17378251e-03 -5.57178211e-03  5.84453187e-03
 -3.28254122e-02  1.06509332e-03 -4.85467656e-04 -5.79213990e-03  2.13156764e-04
 -8.11452551e-02 -8.52654662e-03 -1.30251753e-02 -9.58967219e-04  2.04580511e-03
 -9.56778411e-02 -1.22400518e-02 -8.51021588e-03  1.08165952e-02 -6.38040594e-03
  1.62570872e-02 -2.26803938e-01 -1.26479200e-01  5.39182489e-02  9.10444252e-03
  1.37200860e-02  2.55632740e-03  1.05196039e-03  2.81374336e-03  3.08422879e-03
 -2.57402315e-03 -2.24090769e-03 -5.43671391e-03  7.23500014e-05  8.81787679e-03
 -1.33511931e-01 -1.00775896e-01 -1.09447203e-01 -7.67655386e-02 -6.61311602e-03
 -4.78478126e-02 -1.27405714e-02 -6.55012822e-03  2.35542201e-03 -4.15257715e-03
 -2.58041723e-03 -1.44913581e-02  3.98350529e-04 -1.33150676e-02  1.98816178e-01
  1.29876497e-01  9.83277158e-03 -1.19364913e-01 -4.55734198e-03  1.86549163e-02
 -3.35666883e-02 -2.14072051e-04 -3.39121497e-03  1.76211046e-04  1.98494088e-03
 -6.85265108e-03 -1.20664352e-02 -9.96480232e-03  2.52006190e-01  1.40469340e-01
 -7.27967294e-02  5.89658425e-02  1.12344982e-02 -2.25202014e-02  9.85533020e-03
  2.62933893e-03 -5.32365119e-03 -3.05416085e-04  1.33406688e-03 -5.34034002e-03
 -1.09592035e-02 -1.97138701e-03 -8.80428250e-02 -7.79641325e-02 -1.09565881e-01
 -4.50957170e-02  2.55354658e-02 -5.03558046e-02 -3.32097502e-03  1.01949272e-02
 -1.52177977e-03 -1.44312439e-03  1.32478322e-03  5.98933034e-03 -5.04354955e-03
 -1.08578694e-01 -2.05039311e-02  4.92641258e-03  1.15951566e-02 -3.22313790e-03
 -9.60369535e-02 -9.68758245e-03  6.06307360e-03  1.26112843e-02 -3.51030492e-03
 -9.56187650e-02 -1.23442019e-02  9.11154810e-03 -6.70848429e-03  7.85894539e-03
  1.09026864e-01  9.67549318e-03  5.26748976e-03  1.39926569e-02 -7.91191540e-04
  9.00102198e-02  1.37649239e-02  1.22800493e-02 -3.03429361e-03 -2.21563631e-03
 -5.74923345e-02 -1.17744980e-02 -6.74214326e-03  3.44935749e-03 -3.58519228e-03
  1.05035859e-02 -1.90022499e-01 -1.23383047e-01 -2.26932710e-02 -3.04476277e-02
  1.19707333e-04 -2.14647052e-02  4.52119781e-03 -8.44329786e-03 -1.55390451e-03
 -3.07901515e-04  4.83360749e-04  5.24884193e-04  2.31178874e-03 -2.69807346e-03
  8.46367240e-02  4.13052634e-02 -1.47553888e-01 -9.51196162e-02 -8.86432694e-03
 -4.93218613e-02 -4.03634318e-02 -9.82078911e-04 -9.53753603e-04 -4.65541072e-03
 -2.61931122e-03 -9.56063131e-03  1.46827002e-03 -5.99215260e-03  1.58405549e-01
  9.28359528e-02 -1.71966177e-02  1.18950457e-01 -1.34408654e-02  5.34676160e-03
  4.39416482e-02 -5.26180555e-03 -8.07415864e-04 -1.10572114e-03 -4.08510786e-03
 -2.17044982e-03  7.44318585e-03  3.14823907e-03 -2.07853351e-01 -1.26482968e-01
 -4.77894062e-02  1.43955589e-01  4.22545953e-03 -1.93271984e-02  3.47546269e-02
  8.34326509e-04  1.93191834e-03  2.23245889e-03 -2.91503611e-03 -8.78285136e-03
  9.47767486e-03  5.40848522e-04  5.41379382e-02  5.29953136e-02  2.35587967e-01
  1.40472647e-01 -6.14481486e-02  1.02798167e-01  4.31753858e-02 -2.56072627e-02
  1.27427151e-03  2.82293240e-03 -1.64313015e-03 -1.19079517e-02  3.77579052e-03
  1.88949427e-01  3.80991850e-02 -8.21674187e-03 -2.33638492e-02  2.97788054e-03
 -1.23494910e-01 -2.66344985e-02  5.10160600e-03  1.26983817e-02 -4.31860896e-03
 -9.29561903e-02 -6.28125705e-03  6.49901841e-03 -9.42343027e-03  5.89011267e-03
 -1.63997640e-01 -3.09153243e-02 -9.45200792e-03 -1.41450683e-02  1.25291718e-03
  9.35061270e-02  2.01369359e-02  1.05052947e-02  2.66790599e-03 -2.08873857e-03
  5.67754315e-02  1.12083616e-02  4.95313810e-04 -6.38387421e-03  2.36991134e-03
  6.72789395e-03 -1.38261898e-01 -8.43701248e-02 -1.40426613e-01  2.24397631e-02
 -4.26847771e-02 -5.58512872e-02  1.29861808e-02 -1.44714598e-02 -3.08835491e-03
  3.43539885e-03 -2.85234954e-05  1.08958952e-02  2.92055466e-03 -4.30166337e-03
  2.11930814e-01  1.21940200e-01 -1.04949014e-01  5.14835214e-02 -4.08827190e-02
 -4.41485294e-02  7.67494321e-03 -1.19298505e-02  4.19448862e-03 -2.58672982e-03
 -6.27973045e-04 -2.14285159e-03 -2.27850374e-04  1.93369442e-03 -7.78751988e-02
 -2.16315496e-02 -4.74845043e-03  1.85350538e-01 -2.04715456e-02  1.34206072e-03
  4.21005757e-02 -9.04364793e-03 -1.38702074e-03 -1.34825427e-03 -4.80735763e-03
 -3.70290033e-03  6.11994923e-03  2.64288461e-03 -1.40330266e-02 -1.67976367e-02
  1.58105049e-01 -1.75427320e-01 -3.53692673e-02  4.74925942e-02 -6.27944137e-02
 -1.04785663e-02 -2.26101252e-03 -2.62844705e-03  1.14779721e-03  1.01940461e-02
 -9.95959995e-03  1.26569822e-03  3.85977402e-02  5.97578449e-02 -1.97294061e-01
 -1.76179595e-01  4.59337412e-02 -7.62597829e-02 -7.13979690e-02  1.52152143e-02
  1.00906158e-03 -1.35245933e-03  9.44459625e-04  1.07015337e-02 -1.67566943e-03
 -1.88247901e-01 -4.76934105e-02  6.01435176e-03  1.26086667e-02 -5.48846961e-03
 -9.52722197e-02 -2.30537728e-02  2.88123731e-04  1.02127185e-02 -4.07662652e-03
 -1.68209092e-01 -3.62910467e-02  7.29370453e-03 -7.05204257e-03  1.01275988e-02
  3.01600422e-02  3.81061035e-03  3.55493027e-03  3.62188113e-04 -7.56237653e-04
 -4.29801029e-02 -9.98658977e-03 -5.34297711e-03  3.88411558e-03  4.76074134e-04
  1.86973560e-01  3.97044561e-02  9.31655991e-03 -1.30074007e-02  8.49615123e-03
 -7.30791825e-04  3.57747270e-02  4.11074175e-02  6.42559867e-02  1.43073586e-01
 -2.86345531e-02  1.16456104e-02  5.79570077e-02 -1.19085232e-02  2.16471058e-03
 -1.37142731e-03 -2.32058425e-03 -4.74039214e-04 -3.94003530e-03 -3.79712966e-04
 -2.96551758e-02 -1.50364244e-02 -9.04234380e-02  1.50212542e-01 -4.97317158e-02
 -5.33243959e-02  4.61043061e-02 -1.17655260e-02  9.54920979e-04 -1.73981027e-03
 -8.50369352e-04  6.93094335e-03  8.42423848e-03 -4.14146474e-03  3.02730381e-02