[Molden Format]
[Atoms] (AU)
C    1    6           1.9575050578         2.6137225440        -0.2115726182
C    2    6          -0.8510157742         2.3985112732        -0.1461725040
C    3    6          -2.0987750063         0.1939405047         0.1755324307
C    4    6          -0.8603478087        -2.2916520595         0.0759134015
O    5    8           1.4067295442        -2.7006021346         0.1207641613
H    6    1           2.7515856258         0.9866620005        -1.1812316467
H    7    1           2.6511399548         4.4226241949        -0.9657528473
H    8    1           2.6628259267         2.4177232683         1.7526210754
H    9    1          -2.1940524653        -3.9127418244        -0.1751323301
H   10    1          -4.1571905390         0.1376937325         0.3077505961
H   11    1          -1.9811371361         4.1058370079        -0.3891822886
[GTO]
  1 0
 s    8  1.00
     6665.0000000000         0.0006920000
     1000.0000000000         0.0053290000
      228.0000000000         0.0270770000
       64.7100000000         0.1017180000
       21.0600000000         0.2747400000
        7.4950000000         0.4485640000
        2.7970000000         0.2850740000
        0.5215000000         0.0152040000
 s    8  1.00
     6665.0000000000        -0.0001460000
     1000.0000000000        -0.0011540000
      228.0000000000        -0.0057250000
       64.7100000000        -0.0233120000
       21.0600000000        -0.0639550000
        7.4950000000        -0.1499810000
        2.7970000000        -0.1272620000
        0.5215000000         0.5445290000
 s    1  1.00
        0.1596000000         1.0000000000
 p    3  1.00
        9.4390000000         0.0381090000
        2.0020000000         0.2094800000
        0.5456000000         0.5085570000
 p    1  1.00
        0.1517000000         1.0000000000
 d    1  1.00
        0.5500000000         1.0000000000

  2 0
 s    8  1.00
     6665.0000000000         0.0006920000
     1000.0000000000         0.0053290000
      228.0000000000         0.0270770000
       64.7100000000         0.1017180000
       21.0600000000         0.2747400000
        7.4950000000         0.4485640000
        2.7970000000         0.2850740000
        0.5215000000         0.0152040000
 s    8  1.00
     6665.0000000000        -0.0001460000
     1000.0000000000        -0.0011540000
      228.0000000000        -0.0057250000
       64.7100000000        -0.0233120000
       21.0600000000        -0.0639550000
        7.4950000000        -0.1499810000
        2.7970000000        -0.1272620000
        0.5215000000         0.5445290000
 s    1  1.00
        0.1596000000         1.0000000000
 p    3  1.00
        9.4390000000         0.0381090000
        2.0020000000         0.2094800000
        0.5456000000         0.5085570000
 p    1  1.00
        0.1517000000         1.0000000000
 d    1  1.00
        0.5500000000         1.0000000000

  3 0
 s    8  1.00
     6665.0000000000         0.0006920000
     1000.0000000000         0.0053290000
      228.0000000000         0.0270770000
       64.7100000000         0.1017180000
       21.0600000000         0.2747400000
        7.4950000000         0.4485640000
        2.7970000000         0.2850740000
        0.5215000000         0.0152040000
 s    8  1.00
     6665.0000000000        -0.0001460000
     1000.0000000000        -0.0011540000
      228.0000000000        -0.0057250000
       64.7100000000        -0.0233120000
       21.0600000000        -0.0639550000
        7.4950000000        -0.1499810000
        2.7970000000        -0.1272620000
        0.5215000000         0.5445290000
 s    1  1.00
        0.1596000000         1.0000000000
 p    3  1.00
        9.4390000000         0.0381090000
        2.0020000000         0.2094800000
        0.5456000000         0.5085570000
 p    1  1.00
        0.1517000000         1.0000000000
 d    1  1.00
        0.5500000000         1.0000000000

  4 0
 s    8  1.00
     6665.0000000000         0.0006920000
     1000.0000000000         0.0053290000
      228.0000000000         0.0270770000
       64.7100000000         0.1017180000
       21.0600000000         0.2747400000
        7.4950000000         0.4485640000
        2.7970000000         0.2850740000
        0.5215000000         0.0152040000
 s    8  1.00
     6665.0000000000        -0.0001460000
     1000.0000000000        -0.0011540000
      228.0000000000        -0.0057250000
       64.7100000000        -0.0233120000
       21.0600000000        -0.0639550000
        7.4950000000        -0.1499810000
        2.7970000000        -0.1272620000
        0.5215000000         0.5445290000
 s    1  1.00
        0.1596000000         1.0000000000
 p    3  1.00
        9.4390000000         0.0381090000
        2.0020000000         0.2094800000
        0.5456000000         0.5085570000
 p    1  1.00
        0.1517000000         1.0000000000
 d    1  1.00
        0.5500000000         1.0000000000

  5 0
 s    8  1.00
    11720.0000000000         0.0007100000
     1759.0000000000         0.0054700000
      400.8000000000         0.0278370000
      113.7000000000         0.1048000000
       37.0300000000         0.2830620000
       13.2700000000         0.4487190000
        5.0250000000         0.2709520000
        1.0130000000         0.0154580000
 s    8  1.00
    11720.0000000000        -0.0001600000
     1759.0000000000        -0.0012630000
      400.8000000000        -0.0062670000
      113.7000000000        -0.0257160000
       37.0300000000        -0.0709240000
       13.2700000000        -0.1654110000
        5.0250000000        -0.1169550000
        1.0130000000         0.5573680000
 s    1  1.00
        0.3023000000         1.0000000000
 p    3  1.00
       17.7000000000         0.0430180000
        3.8540000000         0.2289130000
        1.0460000000         0.5087280000
 p    1  1.00
        0.2753000000         1.0000000000
 d    1  1.00
        1.1850000000         1.0000000000

  6 0
 s    3  1.00
       13.0100000000         0.0196850000
        1.9620000000         0.1379770000
        0.4446000000         0.4781480000
 s    1  1.00
        0.1220000000         1.0000000000
 p    1  1.00
        0.7270000000         1.0000000000

  7 0
 s    3  1.00
       13.0100000000         0.0196850000
        1.9620000000         0.1379770000
        0.4446000000         0.4781480000
 s    1  1.00
        0.1220000000         1.0000000000
 p    1  1.00
        0.7270000000         1.0000000000

  8 0
 s    3  1.00
       13.0100000000         0.0196850000
        1.9620000000         0.1379770000
        0.4446000000         0.4781480000
 s    1  1.00
        0.1220000000         1.0000000000
 p    1  1.00
        0.7270000000         1.0000000000

  9 0
 s    3  1.00
       13.0100000000         0.0196850000
        1.9620000000         0.1379770000
        0.4446000000         0.4781480000
 s    1  1.00
        0.1220000000         1.0000000000
 p    1  1.00
        0.7270000000         1.0000000000

  10 0
 s    3  1.00
       13.0100000000         0.0196850000
        1.9620000000         0.1379770000
        0.4446000000         0.4781480000
 s    1  1.00
        0.1220000000         1.0000000000
 p    1  1.00
        0.7270000000         1.0000000000

  11 0
 s    3  1.00
       13.0100000000         0.0196850000
        1.9620000000         0.1379770000
        0.4446000000         0.4781480000
 s    1  1.00
        0.1220000000         1.0000000000
 p    1  1.00
        0.7270000000         1.0000000000

[5D7F]
[9G]

[MO]
 Sym= A
 Ene=        -1.9134441279e+01
 Spin= Alpha
 Occup=         2.0000000000e+00
  1        -7.0320135810e-05
  2        -1.4639681041e-04
  3         8.4189716022e-05
  4         6.4661405453e-05
  5         4.3420069467e-05
  6         6.9486913476e-06
  7        -5.0354126702e-05
  8        -1.6335563418e-04
  9         1.6376594617e-04
 10         7.7212344157e-05
 11         3.2014671132e-05
 12         3.5040117130e-05
 13         7.9604812848e-05
 14        -1.0066548012e-04
 15        -2.0270522707e-04
 16        -3.6199510683e-04
 17         5.3135645657e-03
 18        -2.2327968561e-05
 19        -1.9139667766e-05
 20        -6.1698687866e-05
 21        -9.6249130130e-04
 22        -2.1701715891e-03
 23         5.0800966496e-04
 24        -3.0446931084e-05
 25         3.2078284934e-05
 26        -2.1533175962e-05
 27        -5.1484892258e-05
 28        -5.4593194853e-05
 29         2.0063513848e-04
 30         3.0792091996e-04
 31        -3.8050683431e-03
 32         2.4879836900e-05
 33         2.7644820593e-04
 34        -1.0911692090e-05
 35        -4.4604405856e-03
 36        -3.5815637950e-03
 37         3.0070384924e-04
 38         1.2464962525e-04
 39         5.5762544004e-05
 40         9.1367473967e-05
 41        -4.0280332876e-04
 42         4.9651996624e-04
 43         4.5457140356e-04
 44         5.9463323687e-04
 45         5.3028876921e-03
 46        -1.0120298751e-04
 47        -1.8024538441e-04
 48        -3.3082804657e-05
 49         6.5872225287e-03
 50         4.9147898744e-04
 51         1.1427736188e-04
 52        -9.6950611496e-06
 53         1.5712574491e-05
 54         9.4957955697e-05
 55        -1.1649155612e-03
 56         5.2797885935e-04
 57         1.0041687118e+00
 58         9.4721231794e-03
 59        -1.5072615411e-02
 60        -1.8389561637e-03
 61         3.6594169334e-04
 62        -5.5148527403e-05
 63         3.4932994961e-03
 64        -8.4031052202e-04
 65         9.0332974479e-05
 66        -1.9465731191e-05
 67         1.9261473959e-06
 68        -3.7155056752e-06
 69         7.0618385303e-05
 70         7.9055030601e-06
 71        -1.1861691520e-04
 72        -1.1824985615e-04
 73         2.9639997245e-05
 74        -2.2757878921e-05
 75         3.2700742569e-05
 76         1.2511718678e-04
 77         3.6468179777e-04
 78        -7.5543272457e-05
 79        -7.0163412476e-05
 80         4.3492065648e-05
 81        -1.0970709046e-04
 82        -2.4530262626e-04
 83         6.9334901134e-05
 84         6.4611913428e-05
 85         5.9206538377e-05
 86        -1.8249241407e-04
 87         8.7465117055e-04
 88        -7.6555616981e-04
 89         1.0131506303e-04
 90        -3.5430388800e-06
 91        -2.8386217437e-04
 92        -1.3060691901e-03
 93         1.8492753728e-04
 94         2.4889615595e-04
 95        -9.8590537614e-07
 96        -1.8557801352e-04
 97         2.1526522854e-04
 98         4.0338413358e-05
 99         7.9257424128e-05
100        -2.9800177875e-05
 Sym= A
 Ene=        -1.0271782142e+01
 Spin= Alpha
 Occup=         2.0000000000e+00
  1        -3.7464259256e-04
  2        -4.9672265573e-04
  3         9.0063932255e-04
  4         2.9058383890e-04
  5         7.2252903633e-05
  6        -1.8809797993e-07
  7        -6.3303544232e-04
  8         4.2808473469e-05
  9         2.4837189477e-05
 10        -1.9059610685e-05
 11        -6.9271513434e-05
 12         4.1677754733e-07
 13        -1.1430633705e-04
 14        -3.5327861983e-05
 15        -4.3306552924e-04
 16        -6.3543422725e-04
 17         6.4546866636e-03
 18        -2.7077244027e-04
 19        -2.5373942534e-05
 20         5.1220241299e-05
 21        -2.1071701948e-03
 22        -3.7739994048e-03
 23         6.2551690859e-04
 24        -3.9562483194e-04
 25        -2.0004927086e-04
 26        -9.7666659360e-05
 27         2.9067371668e-04
 28         3.5268125150e-04
 29         1.6793680641e-03
 30        -2.7234325117e-04
 31        -1.8834522597e-03
 32        -3.5734113384e-04
 33         7.8307006183e-04
 34         5.0409389505e-05
 35        -2.5923122399e-03
 36        -5.9336870750e-03
 37         4.1977895989e-04
 38         1.0450565206e-03
 39         9.3128375198e-06
 40        -2.4800663541e-05
 41         1.1217808165e-03
 42         8.6462531397e-04
 43         1.0059477687e+00
 44         1.5303600627e-02
 45        -1.0704025254e-02
 46         7.4164530061e-04
 47        -4.8484056636e-04
 48        -9.9848637742e-05
 49         5.3884567071e-03
 50        -2.0831861392e-03
 51        -5.9109277737e-06
 52        -1.6393005322e-03
 53         2.1222926643e-04
 54         2.0491492874e-04
 55         8.2009728652e-04
 56        -2.7630422183e-05
 57         3.6292447537e-04
 58         9.0587178226e-04
 59        -5.9315235532e-03
 60         7.4405216326e-04
 61        -2.0945342497e-04
 62        -3.3154533021e-07
 63         3.4049042278e-03
 64        -2.0934040077e-04
 65         9.5517410663e-05
 66         5.6709931210e-04
 67        -2.5951191829e-05
 68        -1.9798798001e-05
 69        -7.2296249339e-04
 70         2.5066368334e-04
 71        -1.1336492147e-04
 72        -6.1931159372e-05
 73         2.3438437548e-05
 74         3.9422115314e-06
 75        -1.2104176292e-05
 76        -5.1730713547e-05
 77         3.6740134333e-04
 78        -5.2725524017e-05
 79        -2.4866239158e-05
 80         8.6488909660e-06
 81        -6.8724041605e-05
 82        -9.0136346539e-06
 83         1.0614190208e-04
 84         5.3259406396e-05
 85        -4.4248402773e-05
 86        -1.6803906621e-03
 87         2.4524938542e-03
 88        -1.4279196641e-03
 89        -1.4497894283e-03
 90        -2.3224859115e-04
 91        -5.3828969735e-04
 92        -4.8887666669e-04
 93         5.1191600301e-05
 94         2.6643471360e-04
 95        -3.2457544406e-05
 96        -3.2012876865e-05
 97         6.0749686491e-04
 98         2.2456107643e-04
 99         1.0312904824e-04
100        -3.5610670832e-05
 Sym= A
 Ene=        -1.0223040009e+01
 Spin= Alpha
 Occup=         2.0000000000e+00
  1         3.1825282467e-03
  2        -4.0413089108e-04
  3         4.3351989511e-03
  4         7.3647666923e-04
  5         4.2263078780e-05
  6         5.7666085495e-05
  7        -2.3983988185e-03
  8        -8.0648638464e-04
  9        -3.4691431249e-04
 10         7.8578559633e-04
 11         1.0255063626e-04
 12         4.3165211018e-05
 13        -9.9133396804e-04
 14        -6.3373599470e-05
 15         1.0063786831e+00
 16         1.6242393157e-02
 17        -2.0267938759e-02
 18        -5.3309461714e-04
 19         2.1707069530e-04
 20        -2.5273044657e-05
 21        -2.2551915562e-03
 22         3.9378536176e-03
 23        -4.7134821856e-04
 24        -1.0518461791e-03
 25         1.2229065196e-04
 26        -3.4351372323e-04
 27        -5.2823021129e-04
 28        -4.5990292899e-04
 29         1.2479355275e-02
 30        -1.2222830928e-03
 31         4.8133103796e-03
 32        -7.1298117211e-04
 33        -1.0678766547e-03
 34         1.6673023133e-04
 35         2.7247257122e-03
 36         2.6914927160e-03
 37        -3.0648329690e-04
 38         8.7608992911e-04
 39         1.4270467423e-04
 40         3.0814525487e-04
 41         5.0013704826e-04
 42        -9.7220478347e-04
 43        -2.8308080560e-04
 44        -5.6345621318e-04
 45         1.2041391353e-03
 46        -2.0189488885e-05
 47        -2.0830482614e-04
 48         4.0252442060e-05
 49        -4.6267722779e-04
 50         1.0751342800e-03
 51        -5.8470699296e-05
 52        -3.2930311167e-04
 53        -1.0359692910e-04
 54        -1.1220372845e-05
 55         1.6394266879e-04
 56        -7.9633054002e-06
 57        -3.4514057010e-05
 58        -7.2954141175e-05
 59        -1.1668397396e-04
 60         1.2093437839e-04
 61         1.3402806321e-05
 62         1.7125685409e-05
 63        -1.2215014378e-04
 64        -3.4000017355e-04
 65         3.0731591435e-05
 66         1.1207114151e-05
 67        -2.7172911605e-05
 68         3.7981832154e-06
 69         4.1611895590e-06
 70         2.5265482651e-05
 71        -4.2264217237e-04
 72         4.1504796729e-04
 73        -1.3099265071e-04
 74        -1.4718420852e-06
 75         5.8974669946e-05
 76        -2.5964400741e-04
 77         1.9047510919e-04
 78         1.4673104347e-04
 79         9.7006539196e-06
 80         7.0355954865e-05
 81        -4.5942915106e-04
 82         1.1746225922e-03
 83        -2.1658884147e-04
 84        -1.4809217826e-07
 85         3.2428689360e-05
 86        -8.7343012540e-05
 87         3.3064931245e-04
 88         4.6590452590e-05
 89        -7.3899748229e-05
 90        -1.6008010725e-05
 91         1.8561169367e-04
 92         9.5342365952e-04
 93         1.6626135018e-04
 94        -2.6941059128e-04
 95         1.4606879675e-06
 96        -2.5308634398e-03
 97         1.1152358510e-03
 98        -1.2608092761e-03
 99         1.8137013977e-03
100        -2.5720394351e-04
 Sym= A
 Ene=        -1.0196649165e+01
 Spin= Alpha
 Occup=         2.0000000000e+00
  1         1.2168973601e-03
  2         4.8155760027e-04
  3        -2.8552132991e-04
  4        -1.1178689911e-04
  5        -1.3629653393e-04
  6         1.0776691534e-04
  7         9.0137702387e-04
  8         7.7016887868e-05
  9        -2.8748084032e-04
 10         3.0672730129e-04
 11         3.0575013824e-05
 12         6.4466372529e-05
 13        -4.1228170924e-05
 14         1.1920032933e-04
 15         1.3930494978e-02
 16         1.7366804985e-03
 17        -6.1312168852e-03
 18        -5.9754516204e-04
 19        -1.2142951483e-03
 20         1.8334485417e-04
 21         7.2231509942e-04
 22         3.6971942644e-03
 23        -1.9554063489e-04
 24        -9.1647488982e-04
 25        -1.9680667161e-04
 26        -3.3801434564e-04
 27        -6.2020175853e-04
 28         9.1991574026e-04
 29        -1.0065188566e+00
 30        -1.6619155319e-02
 31         2.1145320617e-02
 32         3.4148257864e-04
 33        -2.2590643398e-04
 34         1.7081382697e-04
 35         5.2752352163e-03
 36         2.6597850774e-04
 37        -9.6580639964e-04
 38         1.1061613030e-03
 39         1.8712302826e-04
 40         1.2115885150e-04
 41        -4.5488484916e-04
 42        -5.3750931739e-04
 43         2.0074243062e-03
 44         7.8401218169e-04
 45        -5.6836995365e-03
 46        -2.6621802187e-04
 47         7.1206333125e-04
 48         5.7515686498e-05
 49        -3.1870059661e-04
 50        -3.4491890407e-03
 51         4.7346282959e-05
 52        -7.0961715942e-04
 53        -1.7252076687e-04
 54         7.9091212989e-05
 55        -5.5508213552e-04
 56        -1.2194476960e-03
 57        -3.5509767659e-05
 58        -6.1750687143e-05
 59         7.0933092109e-04
 60        -1.2289766431e-05
 61         6.1992973015e-05
 62         4.2710408791e-05
 63         1.4890078683e-04
 64         6.3806418158e-04
 65        -5.3894844762e-05
 66         1.2916567778e-04
 67        -4.3107863661e-05
 68        -1.2420469448e-05
 69        -8.5598620684e-05
 70        -2.1950304532e-04
 71         1.4111487908e-04
 72        -3.3535431488e-04
 73        -1.6141904562e-05
 74        -7.6280224197e-05
 75         5.6628251180e-05
 76        -2.8736213371e-05
 77        -3.5328759724e-04
 78        -4.7079851844e-05
 79         4.4382645882e-05
 80         3.1451012997e-05
 81         8.3611248962e-05
 82        -2.0217925785e-04
 83        -4.2111078146e-05
 84        -8.1995336282e-05
 85         1.3726556204e-04
 86         2.8479328130e-04
 87        -9.6203407752e-04
 88        -7.7278553860e-05
 89         1.9554200084e-04
 90        -3.5399652680e-05
 91         2.5334702505e-03
 92        -8.4215360154e-04
 93         2.2012159085e-03
 94        -8.5787631625e-05
 95        -6.9122019042e-05
 96        -1.1200430896e-04
 97        -8.4897023538e-04
 98        -2.9629665256e-04
 99         4.2744661602e-05
100        -4.4211128735e-05
 Sym= A
 Ene=        -1.0188829615e+01
 Spin= Alpha
 Occup=         2.0000000000e+00
  1         1.0070603804e+00
  2         1.7589521636e-02
  3        -1.9377353165e-02
  4         4.0516868485e-04
  5        -6.4670752282e-05
  6         1.6077637593e-04
  7         2.9120587561e-03
  8         4.9187114258e-04
  9        -5.9218580713e-04
 10         1.1995360546e-04
 11        -3.3369306007e-05
 12        -8.8858210458e-05
 13        -6.9786792413e-04
 14         5.2056378420e-05
 15        -3.3691194123e-03
 16        -2.6171554310e-04
 17         1.5878001832e-03
 18        -4.9785416492e-04
 19         5.0338812967e-05
 20         4.2281860749e-06
 21         4.1847858120e-03
 22         2.3519779919e-03
 23        -3.2258209220e-04
 24         6.5747472538e-04
 25         1.1296196936e-04
 26        -1.8978678142e-05
 27        -1.3344573626e-03
 28        -3.8070977975e-04
 29         5.3369529804e-04
 30        -6.6010102887e-04
 31         3.6700645860e-03
 32        -2.3603437390e-04
 33         3.6534557882e-05
 34        -5.2616036607e-06
 35         1.2376533612e-03
 36         2.6047534492e-03
 37        -3.8646772205e-04
 38        -3.7128352889e-04
 39         2.4261216577e-05
 40        -1.1315739307e-04
 41        -4.1664332799e-04
 42        -2.1445254110e-04
 43        -1.3051781392e-04
 44        -5.1334693947e-04
 45         3.7116670413e-04
 46        -7.6056425789e-05
 47        -2.6962080444e-04
 48        -4.1561074447e-05
 49        -2.3464721620e-04
 50         4.8974264800e-04
 51         1.3511456280e-04
 52        -3.9870299189e-05
 53        -2.8703563628e-05
 54        -3.0988616064e-05
 55         3.0654910259e-05
 56         5.6207261693e-05
 57        -1.0503042402e-04
 58        -2.0342951153e-04
 59         3.6191477271e-04
 60         3.1827566983e-05
 61        -1.1148683321e-04
 62        -2.3044457118e-05
 63        -2.6045281216e-04
 64         2.4207837431e-04
 65         6.6234650016e-05
 66        -5.7787765996e-05
 67         7.7042016739e-07
 68         6.5814008889e-06
 69         2.1726126574e-06
 70        -1.2399606826e-06
 71        -1.2556892725e-03
 72         2.1611624989e-03
 73         6.2810528540e-04
 74        -1.5458891103e-03
 75        -9.4393550137e-04
 76        -1.5116162369e-03
 77         1.7176754358e-03
 78         6.2269877072e-04
 79         1.8093163677e-03
 80        -7.6661320780e-04
 81        -9.6415003063e-04
 82         2.3742349352e-03
 83         4.5447791483e-04
 84        -2.1047455260e-04
 85         1.8009979694e-03
 86         1.4719261235e-05
 87         3.7682192882e-04
 88         1.1636141079e-05
 89         5.7184816737e-05
 90        -1.6586751940e-05
 91         4.2561584626e-05
 92         4.9987285815e-04
 93         6.1838538381e-05
 94        -1.9161006487e-04
 95         2.7695607600e-05
 96        -3.6680757916e-04
 97         1.5148580406e-04
 98        -3.9239608374e-04
 99        -1.8760976683e-04
100         3.3478518886e-05
 Sym= A
 Ene=        -1.0397724428e+00
 Spin= Alpha
 Occup=         2.0000000000e+00
  1        -5.3045072487e-04
  2         8.2878537817e-03
  3         4.9869804853e-03
  4        -3.4151181204e-03
  5        -4.0093920996e-03
  6        -1.4106879604e-05
  7        -2.7501691776e-03
  8        -1.2429523673e-03
  9         8.3663783010e-04
 10        -7.1967181256e-04
 11        -1.2727264311e-04
 12        -1.6812492557e-04
 13         1.0354562483e-04
 14         8.9472567171e-04
 15         4.4416827504e-04
 16         1.7172636852e-02
 17        -1.1667049052e-02
 18         4.3584861038e-04
 19        -1.0816558277e-02
 20         1.1451098153e-03
 21        -1.8152342966e-03
 22         9.0627631036e-03
 23        -1.2219844534e-03
 24        -5.1412866761e-04
 25        -2.1652224464e-04
 26        -4.8856030543e-04
 27        -1.5059826882e-03
 28         7.5463091103e-04
 29        -3.7338680180e-03
 30         3.6533905440e-02
 31         3.1511510116e-02
 32         2.1402926754e-02
 33        -1.9581853714e-02
 34        -1.2126244632e-03
 35         1.9783180770e-02
 36         1.9563869377e-03
 37        -1.9861724245e-03
 38        -3.7223267695e-03
 39        -5.2236107445e-04
 40        -5.5626013832e-05
 41        -2.4137030910e-04
 42        -9.1156545569e-03
 43        -1.4852044135e-02
 44         2.2438930568e-01
 45         9.4538673987e-02
 46         1.8424581177e-01
 47        -2.4750300644e-02
 48         3.6384628749e-03
 49         1.2531876200e-02
 50        -2.2795364430e-03
 51         9.4154234283e-04
 52        -1.3873994059e-02
 53         3.6371412909e-04
 54        -1.5056520342e-03
 55         3.1326866077e-02
 56        -1.3722187910e-02
 57        -9.2881545691e-03
 58         4.0175466022e-01
 59         3.6036217696e-01
 60        -1.5503447206e-01
 61         3.1637606356e-02
 62        -3.6885267674e-03
 63        -3.1628520933e-02
 64         7.7072130880e-03
 65        -1.4856427268e-03
 66        -5.4244760644e-03
 67         2.7739784473e-04
 68        -7.7277219594e-04
 69         1.2036088404e-02
 70        -5.0336408111e-03
 71         7.9999089806e-03
 72         4.0466301726e-03
 73        -7.1618644737e-04
 74        -3.3186390388e-04
 75         7.0950115524e-04
 76         1.1252900027e-03
 77        -4.7487216114e-04
 78         2.1940755247e-05
 79        -6.0462543677e-05
 80        -7.3638258783e-05
 81         2.8737074459e-03
 82         7.4868445623e-04
 83        -3.3128914603e-04
 84        -3.6832969845e-04
 85        -5.6685461863e-04
 86         4.0412771968e-02
 87        -3.2357118414e-03
 88         1.0013087668e-02
 89         6.1969023782e-03
 90         1.0731574156e-03
 91         7.3747894207e-03
 92         6.0643017274e-03
 93         1.0688545078e-03
 94        -1.8742923766e-03
 95        -9.8609093862e-05
 96         1.9935805316e-03
 97        -2.9507049846e-03
 98        -1.6527790487e-04
 99        -8.5945005479e-04
100         1.4636290327e-04
 Sym= A
 Ene=        -8.1281268377e-01
 Spin= Alpha
 Occup=         2.0000000000e+00
  1         1.1471015098e-02
  2        -1.8210118210e-01
  3        -7.3508333030e-02
  4         6.8054603799e-02
  5         1.4714488083e-02
  6        -5.3002955502e-03
  7         1.5332851733e-03
  8        -9.7809776853e-03
  9         2.6797630274e-03
 10         5.7295156098e-03
 11         7.2078720611e-04
 12        -6.0698040628e-05
 13        -1.0174676715e-02
 14        -3.1284896393e-03
 15         2.0215023139e-02
 16        -2.8934305388e-01
 17        -2.0357063015e-01
 18        -5.5982375069e-03
 19         7.0268251990e-02
 20        -8.6875747957e-03
 21        -3.4216704568e-02
 22         2.6018631890e-02
 23        -3.7391968098e-03
 24         1.0018480751e-02
 25         1.4087391118e-03
 26         1.9069949417e-03
 27        -2.2805574220e-03
 28        -9.8242849719e-03
 29         1.7365437209e-02
 30        -2.5245285767e-01
 31        -1.3679146214e-01
 32        -5.9270517227e-02
 33        -5.6164567894e-02
 34         1.5560407731e-02
 35        -1.7943497357e-03
 36        -2.2401040088e-02
 37         3.9589740220e-03
 38         6.8126944008e-03
 39         1.6579354442e-03
 40         2.1542448822e-03
 41         8.7177677851e-03
 42        -8.5862410977e-03
 43         2.6199556870e-03
 44        -6.3747262093e-02
 45        -5.1799865286e-02
 46         7.2589791706e-02
 47        -8.1191835711e-02
 48         9.5160254749e-04
 49         2.3675799640e-02
 50        -2.3325266065e-02
 51        -1.2918903578e-03
 52         2.7183151722e-03
 53         4.3115462031e-04
 54        -3.5579297235e-04
 55         1.3400387589e-02
 56         3.1041973119e-03
 57        -3.6771622797e-04
 58         7.7576921017e-02
 59         7.4687014481e-02
 60        -1.2854974663e-02
 61        -1.6669089177e-02
 62         1.1944978633e-04
 63         9.4576779762e-04
 64        -7.3110312990e-03
 65         6.0738624133e-04
 66         1.5684165666e-04
 67         1.0649511061e-05
 68         2.8920007265e-05
 69         1.7757799200e-03
 70         1.5782524445e-03
 71        -7.0371801831e-02
 72        -2.3262707091e-03
 73         4.7674255315e-03
 74        -8.1011052113e-03
 75        -5.2850873427e-03
 76        -5.9393453540e-02
 77        -2.8151096959e-04
 78         4.9023203389e-03
 79         8.2224524291e-03
 80        -3.4288519355e-03
 81        -6.9159512056e-02
 82        -3.5320743350e-03
 83         4.2952078718e-03
 84        -8.7849945400e-05
 85         9.3376343626e-03
 86        -1.8103977119e-02
 87        -9.9359635432e-05
 88         1.1256594013e-04
 89        -3.4423018744e-03
 90        -1.2491696793e-04
 91        -8.1969327629e-02
 92        -2.0540997989e-03
 93        -1.3993663848e-02
 94        -1.9881200120e-03
 95         1.1744376641e-03
 96        -9.9721924857e-02
 97        -1.4215907785e-02
 98        -7.0982166172e-03
 99         1.3688975537e-02
100        -1.8553916649e-03
 Sym= A
 Ene=        -7.1784514857e-01
 Spin= Alpha
 Occup=         2.0000000000e+00
  1         1.4512899794e-02
  2        -2.8248527739e-01
  3        -1.1929444509e-01
  4         1.9688732574e-02
  5        -5.8458784549e-03
  6        -4.9374955645e-03
  7        -1.6247340241e-02
  8        -8.3539870890e-03
  9         9.2537197086e-04
 10         1.4262111248e-03
 11        -2.8506540241e-05
 12        -1.9611345253e-04
 13        -3.0366711063e-03
 14         2.4066640318e-03
 15         5.3799299931e-03
 16        -5.1596905924e-02
 17        -8.8077291881e-02
 18        -1.3780736152e-01
 19        -8.8953503730e-02
 20         1.0983524255e-02
 21        -8.9149137226e-02
 22        -5.2837655895e-03
 23         1.7104740236e-03
 24         3.7928294475e-03
 25        -3.1017730470e-04
 26        -1.1474771564e-03
 27        -1.7731212251e-02
 28         4.5250226548e-03
 29        -1.3989454444e-02
 30         2.2884386431e-01
 31         1.6727741238e-01
 32        -6.5879461143e-03
 33        -6.2221814720e-02
 34        -5.0913759225e-03
 35         3.4739278089e-02
 36        -3.5087203222e-02
 37        -1.7076043733e-03
 38        -4.3605999160e-03
 39        -7.4582921188e-05
 40         5.0398635972e-04
 41        -9.8034642132e-03
 42        -6.0672470109e-03
 43        -3.3615389123e-03
 44         1.5908964705e-01
 45         7.1181948395e-02
 46        -1.1131644403e-01
 47         7.6187085469e-02
 48         6.3017454048e-04
 49        -3.9700715806e-02
 50         9.5364992141e-03
 51        -1.2545302320e-03