Generated by Psi4
        SP                           RHF                       CC-PVDZ
Number of atoms                            I               11
Charge                                     I                0
Multiplicity                               I                1
Number of electrons                        I               38
Number of alpha electrons                  I               19
Number of beta electrons                   I               19
Number of basis functions                  I              100
Number of independent functions            I              100
Atomic numbers                             I   N=          11
           6           6           6           6           8           1
           1           1           1           1           1
Nuclear charges                            R   N=          11
  6.00000000e+00  6.00000000e+00  6.00000000e+00  6.00000000e+00  8.00000000e+00
  1.00000000e+00  1.00000000e+00  1.00000000e+00  1.00000000e+00  1.00000000e+00
  1.00000000e+00
Current cartesian coordinates              R   N=          33
  2.02237223e+00  2.71140717e+00 -2.15712225e-01 -7.88303929e-01  2.38543007e+00
 -1.08107365e-01 -2.08772812e+00  1.88729258e-01  1.20323140e-02 -9.22245959e-01
 -2.34220307e+00  7.07835780e-02  1.33700969e+00 -2.76220430e+00  2.20932032e-01
  2.94673469e+00  1.18119556e+00 -1.27138463e+00  2.52719900e+00  4.56789362e+00
 -1.00858639e+00  2.81429108e+00  2.61850738e+00  1.71378007e+00 -2.30193345e+00
 -3.95067721e+00 -2.96148877e-02 -4.15636494e+00  2.44088444e-01  6.20709012e-02
 -1.90383447e+00  4.13105489e+00 -1.03026987e-01
Integer atomic weights                     I   N=          11
          12          12          12          12          16           1
           1           1           1           1           1
Real atomic weights                        R   N=          11
  1.20000000e+01  1.20000000e+01  1.20000000e+01  1.20000000e+01  1.59949146e+01
  1.00782503e+00  1.00782503e+00  1.00782503e+00  1.00782503e+00  1.00782503e+00
  1.00782503e+00
Number of primitive shells                 I              140
Number of contracted shells                I               48
Pure/Cartesian d shells                    I                0
Pure/Cartesian f shells                    I                0
Highest angular momentum                   I                2
Largest degree of contraction              I                8
Shell types                                I   N=          48
           0           0           0           1           1          -2
           0           0           0           1           1          -2
           0           0           0           1           1          -2
           0           0           0           1           1          -2
           0           0           0           1           1          -2
           0           0           1           0           0           1
           0           0           1           0           0           1
           0           0           1           0           0           1
Number of primitives per shell             I   N=          48
           8           8           1           3           1           1
           8           8           1           3           1           1
           8           8           1           3           1           1
           8           8           1           3           1           1
           8           8           1           3           1           1
           3           1           1           3           1           1
           3           1           1           3           1           1
           3           1           1           3           1           1
Shell to atom map                          I   N=          48
           1           1           1           1           1           1
           2           2           2           2           2           2
           3           3           3           3           3           3
           4           4           4           4           4           4
           5           5           5           5           5           5
           6           6           6           7           7           7
           8           8           8           9           9           9
          10          10          10          11          11          11
Primitive exponents                        R   N=         140
  6.66500000e+03  1.00000000e+03  2.28000000e+02  6.47100000e+01  2.10600000e+01
  7.49500000e+00  2.79700000e+00  5.21500000e-01  6.66500000e+03  1.00000000e+03
  2.28000000e+02  6.47100000e+01  2.10600000e+01  7.49500000e+00  2.79700000e+00
  5.21500000e-01  1.59600000e-01  9.43900000e+00  2.00200000e+00  5.45600000e-01
  1.51700000e-01  5.50000000e-01  6.66500000e+03  1.00000000e+03  2.28000000e+02
  6.47100000e+01  2.10600000e+01  7.49500000e+00  2.79700000e+00  5.21500000e-01
  6.66500000e+03  1.00000000e+03  2.28000000e+02  6.47100000e+01  2.10600000e+01
  7.49500000e+00  2.79700000e+00  5.21500000e-01  1.59600000e-01  9.43900000e+00
  2.00200000e+00  5.45600000e-01  1.51700000e-01  5.50000000e-01  6.66500000e+03
  1.00000000e+03  2.28000000e+02  6.47100000e+01  2.10600000e+01  7.49500000e+00
  2.79700000e+00  5.21500000e-01  6.66500000e+03  1.00000000e+03  2.28000000e+02
  6.47100000e+01  2.10600000e+01  7.49500000e+00  2.79700000e+00  5.21500000e-01
  1.59600000e-01  9.43900000e+00  2.00200000e+00  5.45600000e-01  1.51700000e-01
  5.50000000e-01  6.66500000e+03  1.00000000e+03  2.28000000e+02  6.47100000e+01
  2.10600000e+01  7.49500000e+00  2.79700000e+00  5.21500000e-01  6.66500000e+03
  1.00000000e+03  2.28000000e+02  6.47100000e+01  2.10600000e+01  7.49500000e+00
  2.79700000e+00  5.21500000e-01  1.59600000e-01  9.43900000e+00  2.00200000e+00
  5.45600000e-01  1.51700000e-01  5.50000000e-01  1.17200000e+04  1.75900000e+03
  4.00800000e+02  1.13700000e+02  3.70300000e+01  1.32700000e+01  5.02500000e+00
  1.01300000e+00  1.17200000e+04  1.75900000e+03  4.00800000e+02  1.13700000e+02
  3.70300000e+01  1.32700000e+01  5.02500000e+00  1.01300000e+00  3.02300000e-01
  1.77000000e+01  3.85400000e+00  1.04600000e+00  2.75300000e-01  1.18500000e+00
  1.30100000e+01  1.96200000e+00  4.44600000e-01  1.22000000e-01  7.27000000e-01
  1.30100000e+01  1.96200000e+00  4.44600000e-01  1.22000000e-01  7.27000000e-01
  1.30100000e+01  1.96200000e+00  4.44600000e-01  1.22000000e-01  7.27000000e-01
  1.30100000e+01  1.96200000e+00  4.44600000e-01  1.22000000e-01  7.27000000e-01
  1.30100000e+01  1.96200000e+00  4.44600000e-01  1.22000000e-01  7.27000000e-01
  1.30100000e+01  1.96200000e+00  4.44600000e-01  1.22000000e-01  7.27000000e-01
Contraction coefficients                   R   N=         140
  6.91583963e-04  5.32579615e-03  2.70607210e-02  1.01656846e-01  2.74574824e-01
  4.48294319e-01  2.84902611e-01  1.51948592e-02 -2.93269653e-04 -2.31803547e-03
 -1.14997860e-02 -4.68267270e-02 -1.28466169e-01 -3.01266272e-01 -2.55630702e-01
  1.09379336e+00  1.00000000e+00  5.69792516e-02  3.13207212e-01  7.60376742e-01
  1.00000000e+00  1.00000000e+00  6.91583963e-04  5.32579615e-03  2.70607210e-02
  1.01656846e-01  2.74574824e-01  4.48294319e-01  2.84902611e-01  1.51948592e-02
 -2.93269653e-04 -2.31803547e-03 -1.14997860e-02 -4.68267270e-02 -1.28466169e-01
 -3.01266272e-01 -2.55630702e-01  1.09379336e+00  1.00000000e+00  5.69792516e-02
  3.13207212e-01  7.60376742e-01  1.00000000e+00  1.00000000e+00  6.91583963e-04
  5.32579615e-03  2.70607210e-02  1.01656846e-01  2.74574824e-01  4.48294319e-01
  2.84902611e-01  1.51948592e-02 -2.93269653e-04 -2.31803547e-03 -1.14997860e-02
 -4.68267270e-02 -1.28466169e-01 -3.01266272e-01 -2.55630702e-01  1.09379336e+00
  1.00000000e+00  5.69792516e-02  3.13207212e-01  7.60376742e-01  1.00000000e+00
  1.00000000e+00  6.91583963e-04  5.32579615e-03  2.70607210e-02  1.01656846e-01
  2.74574824e-01  4.48294319e-01  2.84902611e-01  1.51948592e-02 -2.93269653e-04
 -2.31803547e-03 -1.14997860e-02 -4.68267270e-02 -1.28466169e-01 -3.01266272e-01
 -2.55630702e-01  1.09379336e+00  1.00000000e+00  5.69792516e-02  3.13207212e-01
  7.60376742e-01  1.00000000e+00  1.00000000e+00  7.09645947e-04  5.46727229e-03
  2.78231186e-02  1.04747740e-01  2.82920846e-01  4.48495239e-01  2.70816885e-01
  1.54502916e-02 -3.14443412e-04 -2.48213768e-03 -1.23163554e-02 -5.05389173e-02
 -1.39384903e-01 -3.25077495e-01 -2.29848308e-01  1.09537935e+00  1.00000000e+00
  6.26791663e-02  3.33536566e-01  7.41239642e-01  1.00000000e+00  1.00000000e+00
  3.34987264e-02  2.34800801e-01  8.13682958e-01  1.00000000e+00  1.00000000e+00
  3.34987264e-02  2.34800801e-01  8.13682958e-01  1.00000000e+00  1.00000000e+00
  3.34987264e-02  2.34800801e-01  8.13682958e-01  1.00000000e+00  1.00000000e+00
  3.34987264e-02  2.34800801e-01  8.13682958e-01  1.00000000e+00  1.00000000e+00
  3.34987264e-02  2.34800801e-01  8.13682958e-01  1.00000000e+00  1.00000000e+00
  3.34987264e-02  2.34800801e-01  8.13682958e-01  1.00000000e+00  1.00000000e+00
Coordinates of each shell                  R   N=         144
  2.02237223e+00  2.71140717e+00 -2.15712225e-01  2.02237223e+00  2.71140717e+00
 -2.15712225e-01  2.02237223e+00  2.71140717e+00 -2.15712225e-01  2.02237223e+00
  2.71140717e+00 -2.15712225e-01  2.02237223e+00  2.71140717e+00 -2.15712225e-01
  2.02237223e+00  2.71140717e+00 -2.15712225e-01 -7.88303929e-01  2.38543007e+00
 -1.08107365e-01 -7.88303929e-01  2.38543007e+00 -1.08107365e-01 -7.88303929e-01
  2.38543007e+00 -1.08107365e-01 -7.88303929e-01  2.38543007e+00 -1.08107365e-01
 -7.88303929e-01  2.38543007e+00 -1.08107365e-01 -7.88303929e-01  2.38543007e+00
 -1.08107365e-01 -2.08772812e+00  1.88729258e-01  1.20323140e-02 -2.08772812e+00
  1.88729258e-01  1.20323140e-02 -2.08772812e+00  1.88729258e-01  1.20323140e-02
 -2.08772812e+00  1.88729258e-01  1.20323140e-02 -2.08772812e+00  1.88729258e-01
  1.20323140e-02 -2.08772812e+00  1.88729258e-01  1.20323140e-02 -9.22245959e-01
 -2.34220307e+00  7.07835780e-02 -9.22245959e-01 -2.34220307e+00  7.07835780e-02
 -9.22245959e-01 -2.34220307e+00  7.07835780e-02 -9.22245959e-01 -2.34220307e+00
  7.07835780e-02 -9.22245959e-01 -2.34220307e+00  7.07835780e-02 -9.22245959e-01
 -2.34220307e+00  7.07835780e-02  1.33700969e+00 -2.76220430e+00  2.20932032e-01
  1.33700969e+00 -2.76220430e+00  2.20932032e-01  1.33700969e+00 -2.76220430e+00
  2.20932032e-01  1.33700969e+00 -2.76220430e+00  2.20932032e-01  1.33700969e+00
 -2.76220430e+00  2.20932032e-01  1.33700969e+00 -2.76220430e+00  2.20932032e-01
  2.94673469e+00  1.18119556e+00 -1.27138463e+00  2.94673469e+00  1.18119556e+00
 -1.27138463e+00  2.94673469e+00  1.18119556e+00 -1.27138463e+00  2.52719900e+00
  4.56789362e+00 -1.00858639e+00  2.52719900e+00  4.56789362e+00 -1.00858639e+00
  2.52719900e+00  4.56789362e+00 -1.00858639e+00  2.81429108e+00  2.61850738e+00
  1.71378007e+00  2.81429108e+00  2.61850738e+00  1.71378007e+00  2.81429108e+00
  2.61850738e+00  1.71378007e+00 -2.30193345e+00 -3.95067721e+00 -2.96148877e-02
 -2.30193345e+00 -3.95067721e+00 -2.96148877e-02 -2.30193345e+00 -3.95067721e+00
 -2.96148877e-02 -4.15636494e+00  2.44088444e-01  6.20709012e-02 -4.15636494e+00
  2.44088444e-01  6.20709012e-02 -4.15636494e+00  2.44088444e-01  6.20709012e-02
 -1.90383447e+00  4.13105489e+00 -1.03026987e-01 -1.90383447e+00  4.13105489e+00
 -1.03026987e-01 -1.90383447e+00  4.13105489e+00 -1.03026987e-01
Total Energy                               R     -2.312416070641919e+02
Alpha Orbital Energies                     R   N=         100
 -1.91347553e+01 -1.02728294e+01 -1.02228223e+01 -1.01975023e+01 -1.01924191e+01
 -1.03936969e+00 -8.08881385e-01 -7.18035014e-01 -6.28966390e-01 -5.32705709e-01
 -4.96095975e-01 -4.42014728e-01 -4.31521348e-01 -4.21211045e-01 -3.86443252e-01
 -3.79134006e-01 -3.74757899e-01 -2.73499640e-01 -2.49883731e-01 -6.56446639e-02
  5.59741267e-02  6.17121607e-02  8.81303140e-02  1.04374891e-01  1.29681151e-01
  1.45989595e-01  1.54778475e-01  2.16262242e-01  2.59987842e-01  3.23826670e-01
  3.40323960e-01  4.29726506e-01  4.38294278e-01  4.52577551e-01  4.77212637e-01
  4.84024617e-01  5.08038063e-01  5.26089764e-01  5.61574967e-01  6.04401948e-01
  6.13460113e-01  6.26391218e-01  6.35631867e-01  6.48677930e-01  6.62873821e-01
  6.85276853e-01  7.00780258e-01  7.65487561e-01  8.27923290e-01  8.55231890e-01
  9.11604693e-01  9.34740496e-01  9.78402970e-01  9.90348139e-01  1.02014879e+00
  1.03696679e+00  1.07787330e+00  1.15656508e+00  1.18141932e+00  1.19851522e+00
  1.29781693e+00  1.36425021e+00  1.38836174e+00  1.44532430e+00  1.47401912e+00
  1.49331931e+00  1.54723170e+00  1.56445189e+00  1.61835099e+00  1.62150617e+00
  1.64750125e+00  1.66437149e+00  1.67093855e+00  1.68894795e+00  1.72777175e+00
  1.75198148e+00  1.78834802e+00  1.80457372e+00  1.84692723e+00  1.91848101e+00
  1.95724629e+00  1.97703255e+00  2.01479089e+00  2.06507396e+00  2.11080060e+00
  2.22581004e+00  2.31015194e+00  2.33297511e+00  2.39652632e+00  2.41276076e+00
  2.42524687e+00  2.48953093e+00  2.57721050e+00  2.65080086e+00  2.69517766e+00
  2.78667097e+00  2.96440160e+00  3.06700600e+00  3.42146248e+00  3.48148854e+00
Alpha MO coefficients                      R   N=       10000
 -4.38509670e-05 -9.88464512e-05 -2.91844231e-05  6.49621222e-05  2.30681253e-05
  1.50085112e-05  5.01217764e-07  7.97832850e-05  1.86400763e-04  5.15276009e-05
  2.68805759e-05  5.93403629e-05  5.84689623e-05 -1.05171126e-04 -2.29223809e-04
 -4.07175918e-04  5.86737501e-03 -1.91215682e-05 -9.97667492e-06 -2.15984446e-05
 -1.10433795e-03 -2.59537511e-03  1.91721682e-04 -4.34432367e-05 -9.32581126e-06
  5.36588651e-07 -4.38043196e-05 -3.80255768e-05  2.24156033e-04  3.44344387e-04
 -4.59993411e-03  1.90106576e-05  2.92330684e-04 -1.71828019e-05 -4.81654628e-03
 -3.61177328e-03  4.71484725e-05  1.44719046e-04 -5.35635709e-06  5.72034782e-05
 -3.23688350e-04  5.13220321e-04  4.41759625e-04  5.75116007e-04  5.50422766e-03
 -1.14423768e-04 -1.69891952e-04 -7.28538020e-06  6.69919054e-03  6.62554530e-04
  3.63121172e-04 -4.05096528e-05 -5.51137379e-05  2.75315840e-05 -1.15285449e-03
  5.27975982e-04  1.00417363e+00  9.47814800e-03 -1.51739620e-02 -1.83200994e-03
  3.62966106e-04 -1.38260862e-04  3.50010399e-03 -8.66786416e-04  2.54884567e-04
 -2.16050715e-05  8.58184806e-06 -4.62045809e-08  6.73333695e-05  7.86630413e-06
 -8.17834334e-05 -2.79742577e-05  5.52648430e-05  4.03848380e-05 -5.90760307e-06
  1.05890799e-04  2.78706749e-04 -6.59377653e-05 -7.98182894e-05  2.76237736e-05
 -5.53830351e-05 -2.36670103e-04  5.60357783e-05  3.62103568e-05  4.32234434e-05
 -1.21048005e-04  9.71897736e-04 -7.62021238e-04  1.22289212e-04 -4.25479487e-05
 -2.68737451e-04 -1.36310057e-03  1.89263919e-04  2.61323751e-04  1.10484047e-05
 -1.73198750e-04  2.97845252e-04  5.78656877e-05  8.90322896e-05 -1.19771718e-05
 -3.30435683e-04 -4.25045511e-04  8.31622357e-04  2.96666598e-04  5.54428133e-05
 -1.01973653e-05 -5.76978480e-04  2.91548923e-04  1.13251699e-04  1.79043187e-05
 -1.26241843e-05  3.38994624e-05 -1.26267699e-04 -7.88881787e-05 -4.26847881e-04
 -6.30664373e-04  6.99840277e-03 -2.67404094e-04 -2.71009141e-05  1.21136722e-05
 -2.38811448e-03 -4.12202138e-03  2.32504076e-04 -4.42961407e-04 -7.46681352e-05
 -4.71978174e-05  3.37200827e-04  3.89229123e-04  1.63330746e-03 -2.35124505e-04
 -2.42525129e-03 -3.39426004e-04  7.48561691e-04 -1.26983498e-05 -2.80890775e-03
 -6.28242505e-03  2.25209926e-04  1.05750699e-03 -4.69660054e-05  6.44772257e-05
  1.17622456e-03  8.01088870e-04  1.00592583e+00  1.52508619e-02 -1.08146443e-02
  7.30458648e-04 -4.86288065e-04  5.42935618e-05  5.46909902e-03 -2.10774473e-03
  2.53035833e-04 -1.64203447e-03  2.65499621e-04  9.47574253e-06  8.24124975e-04
  2.91715197e-05  3.64547532e-04  9.12084749e-04 -5.96799094e-03  7.37419180e-04
 -2.22707680e-04  3.96345513e-05  3.38616097e-03 -2.38959258e-04  2.58950676e-04
  5.57648928e-04 -1.09918179e-04  1.62784687e-05 -7.03966849e-04  2.70350939e-04
 -7.47367198e-05  6.95897345e-05  7.83045241e-05  3.15654719e-05 -1.53654857e-05
 -4.22320209e-05  2.64412641e-04 -5.91685038e-05 -4.60193075e-05 -2.73287142e-06
 -4.88555654e-05 -6.18832881e-05  8.31137109e-05  2.06093528e-05 -2.39270468e-05
 -1.63837868e-03  2.49391704e-03 -1.46065234e-03 -1.44287925e-03 -9.55798187e-05
 -4.81518595e-04 -4.64925507e-04  6.78592207e-05  3.28221937e-04 -1.68392105e-05
 -3.24897707e-05  6.56446066e-04  2.40160413e-04  1.08047414e-04 -1.17571614e-05
  3.32200536e-03 -4.58412380e-04  4.36124130e-03  7.47287234e-04  9.53656327e-05
  5.78892317e-05 -2.31100911e-03 -1.10292052e-03 -4.92879410e-04  7.95247942e-04
  1.24757829e-04 -6.66146458e-06 -1.04085057e-03 -4.38371385e-06  1.00628446e+00
  1.60626259e-02 -1.97515857e-02 -5.47818258e-04  2.49085668e-04  3.77574538e-05
 -2.16000873e-03  3.55679295e-03  5.47056994e-05 -1.09157699e-03 -3.42894582e-06
 -3.75857146e-05 -5.17443650e-04 -2.29294589e-04  1.28677951e-02 -1.29240138e-03
  4.63746135e-03 -7.78167659e-04 -1.09880315e-03  7.72436687e-05  2.65750959e-03
  2.30699913e-03 -2.21435876e-04  8.89726287e-04  7.29948933e-05  1.14596932e-04
  5.76001019e-04 -9.78079611e-04 -2.60078480e-04 -5.09385694e-04  1.02907076e-03
 -4.10500758e-05 -2.07150684e-04  1.13064750e-05 -1.70457232e-04  1.03473090e-03
  1.88172542e-05 -3.42517261e-04 -7.76361927e-06 -9.26393385e-06  1.94689614e-04
 -1.01822929e-04 -3.32959215e-05 -7.32792955e-05 -2.50330019e-04  1.25245415e-04
 -2.76762251e-06  1.76242026e-05 -4.36611801e-05 -2.57169325e-04 -5.37599441e-07
  1.12130862e-05 -1.44262875e-05  4.19105180e-06 -1.21028694e-05  1.36198536e-05
 -4.31508365e-04  1.28195657e-04 -2.60802908e-05  3.61313522e-05  7.73352921e-05
 -3.52585254e-04  2.92678525e-04  7.33448023e-05  8.28803586e-05  6.45539667e-05
 -4.75745415e-04  1.20081941e-03 -1.28892083e-04  1.75380007e-05  1.76014966e-05
 -2.05896974e-05  4.16593895e-04  5.45747499e-05 -5.26826529e-05 -7.35345497e-06
  9.27246006e-05  9.19075404e-04  1.19834166e-04 -2.30830455e-04  1.52536458e-05
 -2.34421771e-03  1.21499184e-03 -1.20880455e-03  1.77805066e-03  1.27734372e-05
  1.64477853e-03  3.95091786e-04  9.61918711e-06 -8.39336425e-05 -1.12146285e-04
  7.95712365e-05  7.07969322e-04 -1.91686997e-04 -1.22887244e-04  3.13898419e-04
  7.59269731e-05 -2.34977222e-05 -8.54738333e-05  2.22473909e-04  1.43837527e-02
  1.78902291e-03 -6.80246314e-03 -6.04194117e-04 -1.20475712e-03  6.60829886e-05
  5.77724222e-04  4.19059931e-03 -1.35923350e-04 -9.30062430e-04 -4.57811393e-05
 -9.71353243e-05 -5.09721735e-04  1.03323493e-03 -1.00648110e+00 -1.65376511e-02
  2.15572548e-02  3.26746443e-04 -3.00456200e-04  3.22781550e-05  5.57804577e-03
  3.50364512e-04 -1.76844401e-04  1.08342757e-03  7.95284369e-05  6.77181725e-05
 -3.76533967e-04 -3.76561517e-04  1.95539150e-03  8.13513413e-04 -5.79786872e-03
 -2.54445160e-04  7.49006086e-04 -2.66551102e-07 -6.82512532e-04 -3.50966357e-03
  4.82135616e-05 -6.90930352e-04 -3.19378086e-05 -6.47645063e-05 -6.41213908e-04
 -1.18818320e-03 -4.48273221e-05 -7.76428356e-05  9.31912054e-04 -2.76736050e-05
  7.52934552e-05  2.21083090e-05  9.53376360e-05  5.97417398e-04 -4.73720339e-05
  1.32223242e-04 -3.31961783e-05 -1.65169094e-05 -7.29181810e-05 -2.17824665e-04
  1.65630537e-04 -3.90356952e-04 -2.57104213e-05 -4.07141760e-05  5.71774747e-05
 -4.96668223e-05 -2.05905757e-04 -3.53330857e-05  6.94191908e-05  1.38541732e-05
 -5.15477599e-05 -1.25867663e-04 -4.99754761e-05 -6.09031878e-05  1.39124486e-04
  2.46774380e-04 -1.00356853e-03 -7.35921799e-05  2.04735951e-04 -2.27590886e-05
  2.44391644e-03 -7.75715588e-04  2.13670074e-03 -1.70793321e-04 -4.44514769e-05
 -9.49726050e-05 -1.01563246e-03 -2.60127501e-04  2.57500950e-05  1.29271600e-05
  1.00698206e+00  1.74185261e-02 -1.94503936e-02  4.51869486e-04  1.30264531e-04
  1.46646542e-04  2.94018002e-03  1.94812368e-04 -5.53330353e-04  2.22245639e-04
  3.57079082e-05 -5.58860450e-05 -5.88455875e-04 -1.46156239e-04 -3.57046233e-03
 -3.04570691e-04  1.86249860e-03 -4.96605900e-04  5.83780046e-05  2.44862899e-05
  4.50877012e-03  2.33311542e-03 -1.64367759e-04  6.13014126e-04  1.26207429e-04
  2.23582299e-05 -1.33882179e-03 -5.74990863e-04  1.08046983e-03 -5.34129700e-04
  3.44930683e-03 -1.92206674e-04  8.95316389e-05  1.10358742e-05  9.06965827e-04
  2.65269208e-03 -1.65168280e-04 -3.44421153e-04  7.77249912e-06 -2.46389053e-05
 -5.61255737e-04 -2.05176248e-04 -1.03075143e-04 -4.60411382e-04  6.57322391e-04
 -3.30623425e-05 -2.73514064e-04 -8.66521205e-06 -1.11035211e-04  5.28721079e-04
  4.00239740e-05 -1.56497788e-05 -2.24317279e-05  3.66566880e-06  4.14032151e-05
  3.62027873e-05 -7.26830508e-05 -1.45055013e-04  1.62745198e-04  8.57798008e-06
 -1.15917601e-04 -1.01638254e-05 -1.08787403e-04  2.24935730e-04  4.08698908e-05
 -4.34403193e-05  1.53117440e-06  1.60369489e-06  1.45640259e-06 -7.69412762e-07
 -1.22794269e-03  1.91453301e-03  6.99070610e-04 -1.44443494e-03 -1.00270079e-03
 -1.34008471e-03  1.92271729e-03  4.36377125e-04  1.80333831e-03 -7.55360962e-04
 -1.10271693e-03  2.34655410e-03  5.57977252e-04 -9.68121357e-05  1.81801637e-03
  1.66479722e-05  3.87706428e-04  6.35112571e-06  6.93852625e-05 -7.57970982e-06
  5.45578644e-05  3.63563034e-04  9.63619458e-05 -2.05220012e-04  1.01581411e-05
 -4.34837251e-04  2.44539579e-04 -3.67776303e-04 -1.14700407e-04  2.01529870e-05
 -4.82775351e-04  6.35023638e-03  5.68447974e-03 -3.04931746e-03 -3.05025169e-03
 -2.95562265e-05 -3.04302709e-03 -2.58510608e-03  9.92263892e-04 -6.13945392e-04
 -1.98775656e-04 -2.23567081e-04  1.79345179e-04  9.18991943e-04  5.96218403e-04
  1.65078528e-02 -1.32262418e-02 -1.60142319e-04 -1.05338086e-02  5.63656377e-04
 -2.17153909e-03  1.00498089e-02 -5.83331824e-04 -4.49793288e-04 -1.16698890e-04
 -2.59551774e-04 -1.67566758e-03  7.32444573e-04 -3.61625806e-03  3.67682962e-02
  3.27617431e-02  2.08526675e-02 -2.06062044e-02  9.30239283e-04  2.01767809e-02
  1.42649287e-03 -1.50495449e-04 -3.79503375e-03  2.38242215e-04 -5.83909814e-04
 -1.06722527e-03 -9.04689818e-03 -1.46113283e-02  2.25019022e-01  9.44162058e-02
  1.84569695e-01 -2.57862892e-02  1.22054577e-02  1.19665625e-02 -3.12330451e-03
  1.08433441e-03 -1.34641014e-02  3.49042368e-03 -1.04276416e-03  3.10294351e-02
 -1.40994623e-02 -9.15029555e-03  4.02170961e-01  3.59960654e-01 -1.55196867e-01
  3.19465133e-02 -1.07275258e-02 -3.15851079e-02  7.23513944e-03 -2.59194869e-03
 -5.23740446e-03  1.39676487e-03 -5.03615968e-04  1.21054281e-02 -5.17146479e-03
  4.91943863e-03  2.90315772e-03 -6.38723474e-04 -4.87407030e-04  5.86533709e-04
  9.73862480e-04  5.61753206e-05  2.71942984e-05  1.33610838e-05 -4.08059370e-05
  1.81955103e-03  8.40173585e-04 -2.66230865e-04 -1.89793634e-04 -4.38436359e-04
  3.92923599e-02 -3.66763070e-03  1.01759091e-02  5.86845490e-03  6.69755252e-04
  7.17086284e-03  6.03686218e-03  9.47854040e-04 -1.95572574e-03 -1.48031238e-05
  1.79105061e-03 -3.28679460e-03 -2.29004453e-04 -8.32641688e-04  6.79526525e-05
  1.10017224e-02 -1.81695079e-01 -7.51365042e-02  6.55789064e-02  1.29649022e-02
 -4.88612290e-03  3.03029212e-03 -8.54626391e-03  1.06894219e-03  5.61902235e-03
  8.27687245e-04  3.03847024e-05 -9.79329112e-03 -3.60135072e-03  1.97664922e-02
 -2.91441321e-01 -2.01420721e-01 -8.88521086e-04  6.54263750e-02 -2.65160227e-03
 -3.26279015e-02  2.10360732e-02  8.13924118e-05  9.97561773e-03  8.36011812e-04
  8.58495972e-04 -2.73987802e-03 -1.13353403e-02  1.70083412e-02 -2.53857118e-01
 -1.41873293e-01 -5.80335152e-02 -5.72756078e-02  4.53829984e-03 -3.02660651e-03
 -2.40260559e-02  1.17518517e-03  6.92999407e-03  6.44101353e-04  8.78469507e-04
  8.73186665e-03 -9.14536507e-03  2.44556108e-03 -6.39258902e-02 -5.15852003e-02
  6.90917775e-02 -8.03562127e-02  5.28864364e-03  2.51261491e-02 -2.23641921e-02
  1.39678182e-03  2.63275172e-03  6.59709269e-04  3.18090083e-04  1.35505383e-02
  2.65981036e-03 -3.31944284e-04  7.51231469e-02  7.14772060e-02 -1.13752191e-02
 -1.62849983e-02 -2.20754703e-04  1.67179746e-03 -6.76169265e-03  5.71732228e-04
  1.82738624e-04  6.41661791e-05  1.78317438e-04  1.60818485e-03  1.59232069e-03
 -6.70842504e-02 -3.38458575e-03  5.11475501e-03 -7.25002006e-03 -5.30239801e-03
 -6.30607430e-02 -1.49150647e-03  4.07863884e-03  8.78051274e-03 -3.71095814e-03
 -6.79971739e-02 -3.64560642e-03  4.72409672e-03  2.78377063e-04  9.05531057e-03
 -1.80476081e-02  9.99875657e-04  2.18169080e-05 -3.38025761e-03  3.59367219e-05
 -8.43314925e-02 -2.50755399e-03 -1.43668404e-02 -1.42218620e-03  4.63649107e-04
 -1.02429279e-01 -1.29622129e-02 -7.13882526e-03  1.42860380e-02 -1.22358394e-05
  1.39940873e-02 -2.86813736e-01 -1.19314409e-01  1.91115118e-02 -1.07299534e-02
 -5.03375794e-03 -1.74818314e-02 -8.51372472e-03  5.04459816e-04  1.44797338e-03
  1.84618124e-04 -1.80067571e-04 -3.08453409e-03  2.21046948e-03  5.26858460e-03
 -4.80072965e-02 -8.42545272e-02 -1.38790397e-01 -9.49612124e-02  6.88832005e-03
 -9.38084356e-02 -9.10758191e-03  2.86153092e-03  3.83892892e-03  5.26753049e-04
 -3.87744514e-04 -1.71016170e-02  3.09779879e-03 -1.39660792e-02  2.28801347e-01
  1.67046949e-01 -5.66231189e-03 -5.46900669e-02  1.03757277e-03  3.64432269e-02
 -4.07638683e-02  1.59810104e-04 -4.83612164e-03  1.46292865e-04 -3.38568414e-04
 -1.00245822e-02 -4.90956528e-03 -3.05617656e-03  1.51793718e-01  6.14447458e-02
 -1.07030454e-01  7.93383675e-02 -5.46285374e-03 -3.74444856e-02  7.80933547e-03
 -1.79728746e-03 -1.65692762e-03 -5.58772009e-04 -1.24984221e-04 -1.02183909e-02
 -5.10339196e-03 -2.86358376e-04 -8.45340178e-02 -8.36013681e-02 -1.81442401e-02
  1.01924811e-02  3.50246228e-04 -2.04931773e-02  3.59524616e-03 -7.21773945e-04
 -9.64097692e-04  1.48580646e-04  5.64733990e-05  8.71386178e-04 -2.04586645e-03
 -1.21350997e-01 -1.67450655e-02  7.32137123e-03 -1.24464770e-02 -8.48636141e-03
 -1.34398572e-01 -1.60188716e-02  4.60623268e-03  1.59533281e-02 -7.21739771e-03
 -1.30592809e-01 -1.60645266e-02  6.50739899e-03 -1.39073445e-03  1.61245119e-02
  7.01212185e-02  2.44503788e-03  3.51578641e-03  8.58425830e-03  3.02746548e-04
  1.15228143e-01  2.33314084e-02  1.46149698e-02 -1.46746016e-03 -3.21369103e-04
 -2.95746498e-02 -1.64284594e-02 -4.17606151e-03  8.52306715e-04  2.43382451e-04
  5.33243458e-03 -1.75489322e-01 -9.63280482e-02 -7.46708824e-02 -6.82953095e-03
 -2.13161991e-03 -3.82941707e-02 -6.60269725e-03  6.61011409e-03 -4.92699200e-03
 -8.81878397e-04 -1.81178241e-04  7.30980636e-03  1.00387187e-03 -5.23726619e-03
  2.09429716e-01  9.84382362e-02 -1.38843393e-01 -1.49523270e-02  5.56274177e-03
 -4.14625761e-02 -9.83669849e-04 -1.91450193e-04  2.54262669e-03 -2.40878425e-04
 -2.68944189e-04 -4.98899457e-03  2.89077798e-03 -1.31118952e-03 -1.55858145e-03
  9.81644888e-03  1.45520705e-02  2.48770516e-01 -7.60933441e-03  8.03482453e-03
  7.64961701e-02 -1.44368464e-03  4.61832624e-04 -1.76812954e-04 -7.00707945e-04
  1.97306428e-03  1.12192070e-02  2.31553235e-03 -2.37127364e-01 -1.54421550e-01
  1.55825055e-01 -2.93736841e-02  8.98962082e-03  4.84241491e-02 -1.86619355e-02
  3.14490060e-03 -1.08927887e-03  8.99149233e-04 -2.39549082e-05  6.08400830e-03
  2.03603314e-03  9.43968953e-04  1.23166811e-01  1.43845700e-01  5.36731628e-02
 -9.61361638e-03  3.81366882e-03  4.04675321e-02 -6.07535157e-03  3.11354833e-03
  2.55175521e-03 -3.97385834e-04  1.27702968e-04 -2.39464075e-03  7.89158952e-04
 -1.01408459e-01 -8.48470817e-03  3.76645263e-03 -9.70439284e-03 -6.03216084e-03
 -1.01405362e-01 -1.59038212e-02  1.00584019e-03  1.03598009e-02 -4.95374171e-03
 -1.06186515e-01 -2.03560366e-02  3.33161550e-03 -6.99952080e-04  1.11485282e-02
 -1.59440676e-01 -2.81691348e-02 -8.35986547e-03 -1.42367315e-02 -6.47542379e-04
 -5.61515489e-03 -2.37145601e-04 -2.14464173e-04  5.04597142e-03 -1.62987762e-04
  1.45876589e-01  2.52655967e-02  6.60259760e-03 -1.47831793e-02  1.99814511e-04
  1.66784358e-03 -5.07274853e-02 -3.81308985e-02 -1.25098973e-01  8.35406860e-02
 -1.98414212e-04 -3.77227684e-02  3.50361428e-02 -1.95470815e-03 -5.53222690e-03
 -4.89493026e-04 -1.58658216e-03  9.93060381e-03 -5.70333970e-03 -2.06082968e-03
  1.42566478e-01  9.37550972e-02  1.56846271e-03  2.24114885e-01 -7.90361834e-03
  2.46639948e-02  7.18276960e-02 -3.35902358e-03  4.26204570e-03  5.07754626e-04
  5.22174193e-04 -6.74835948e-05 -7.08945855e-03  2.65341965e-03 -1.53433217e-01
 -1.02478453e-01 -1.78637693e-02  1.18952897e-03 -2.16861715e-03 -1.77175246e-02
  3.17183938e-02 -1.71622956e-03 -4.30902957e-03  8.81195765e-05 -3.22442592e-04
 -1.34388960e-02  1.69474909e-03  5.44677781e-04  1.58127542e-01  1.20898593e-01
 -6.59418008e-02 -2.36758022e-01 -3.67412873e-03 -4.95657245e-02 -5.39725785e-02
 -2.67073833e-03  5.31175324e-03 -1.00515706e-04  6.19030080e-05 -1.05600226e-05
  1.42959045e-03  1.89918776e-04 -8.67578989e-02 -1.19565030e-01 -1.39403881e-01
 -1.08310583e-01 -6.01489737e-03 -8.29693050e-02 -5.93819522e-02 -3.34347985e-03
 -3.54483473e-03  1.02388486e-03  7.20907068e-04  8.83533471e-03  6.73540325e-03
 -1.12870060e-01 -3.52932182e-02  1.98916284e-03 -5.19566610e-03 -6.32073612e-03
 -3.66604887e-04 -5.13671096e-03 -3.62101896e-03  2.41123402e-03 -2.16128736e-05
 -6.48162329e-02 -2.03441224e-02 -7.53884479e-04  2.31173347e-03  6.09948699e-03
  2.29240100e-01  6.00591780e-02  1.19813529e-02  1.27097261e-02  9.82150252e-04
 -8.25170158e-02 -2.92989809e-02 -8.60263648e-03 -5.24536479e-04  1.85177934e-04
  2.16535620e-01  6.35181820e-02  1.07724929e-02 -1.21292898e-02 -2.19267468e-04
  3.08096394e-03 -4.51628334e-02 -5.26397338e-02 -1.44871435e-01 -9.90054488e-02
  4.53755394e-03 -3.14174237e-02 -3.98109889e-02 -4.47205235e-03 -5.19109209e-03
 -1.30659268e-03  1.94076684e-03  7.57633007e-03  4.77434023e-03  8.94668504e-04
  8.94677486e-02  5.34801476e-02  1.41441175e-01 -1.09914519e-01 -1.99080056e-03
  9.15202477e-02 -2.49763483e-02 -1.35939592e-03  1.94696876e-03  8.12694312e-04
  2.85930622e-04 -9.66760278e-03 -1.04225990e-02  5.38687116e-03 -7.11735699e-02