Generated by Psi4
        SP                           RHF                       CC-PVDZ
Number of atoms                            I               11
Charge                                     I                0
Multiplicity                               I                1
Number of electrons                        I               38
Number of alpha electrons                  I               19
Number of beta electrons                   I               19
Number of basis functions                  I              100
Number of independent functions            I              100
Atomic numbers                             I   N=          11
           6           6           6           6           8           1
           1           1           1           1           1
Nuclear charges                            R   N=          11
  6.00000000e+00  6.00000000e+00  6.00000000e+00  6.00000000e+00  8.00000000e+00
  1.00000000e+00  1.00000000e+00  1.00000000e+00  1.00000000e+00  1.00000000e+00
  1.00000000e+00
Current cartesian coordinates              R   N=          33
  1.95743923e+00  2.61563105e+00 -2.09713443e-01 -8.51365985e-01  2.39774017e+00
 -1.46444714e-01 -2.09868425e+00  1.93594303e-01  1.74475682e-01 -8.60734964e-01
 -2.29253107e+00  7.56558940e-02  1.40726558e+00 -2.70064192e+00  1.20800676e-01
  2.75332594e+00  9.85800509e-01 -1.18318080e+00  2.65056997e+00  4.42248926e+00
 -9.66398901e-01  2.66308629e+00  2.41838503e+00  1.75169236e+00 -2.19466132e+00
 -3.91273928e+00 -1.75033719e-01 -4.15768473e+00  1.38461884e-01  3.06843590e-01
 -1.98148918e+00  4.10707789e+00 -3.88676592e-01
Integer atomic weights                     I   N=          11
          12          12          12          12          16           1
           1           1           1           1           1
Real atomic weights                        R   N=          11
  1.20000000e+01  1.20000000e+01  1.20000000e+01  1.20000000e+01  1.59949146e+01
  1.00782503e+00  1.00782503e+00  1.00782503e+00  1.00782503e+00  1.00782503e+00
  1.00782503e+00
Number of primitive shells                 I              140
Number of contracted shells                I               48
Pure/Cartesian d shells                    I                0
Pure/Cartesian f shells                    I                0
Highest angular momentum                   I                2
Largest degree of contraction              I                8
Shell types                                I   N=          48
           0           0           0           1           1          -2
           0           0           0           1           1          -2
           0           0           0           1           1          -2
           0           0           0           1           1          -2
           0           0           0           1           1          -2
           0           0           1           0           0           1
           0           0           1           0           0           1
           0           0           1           0           0           1
Number of primitives per shell             I   N=          48
           8           8           1           3           1           1
           8           8           1           3           1           1
           8           8           1           3           1           1
           8           8           1           3           1           1
           8           8           1           3           1           1
           3           1           1           3           1           1
           3           1           1           3           1           1
           3           1           1           3           1           1
Shell to atom map                          I   N=          48
           1           1           1           1           1           1
           2           2           2           2           2           2
           3           3           3           3           3           3
           4           4           4           4           4           4
           5           5           5           5           5           5
           6           6           6           7           7           7
           8           8           8           9           9           9
          10          10          10          11          11          11
Primitive exponents                        R   N=         140
  6.66500000e+03  1.00000000e+03  2.28000000e+02  6.47100000e+01  2.10600000e+01
  7.49500000e+00  2.79700000e+00  5.21500000e-01  6.66500000e+03  1.00000000e+03
  2.28000000e+02  6.47100000e+01  2.10600000e+01  7.49500000e+00  2.79700000e+00
  5.21500000e-01  1.59600000e-01  9.43900000e+00  2.00200000e+00  5.45600000e-01
  1.51700000e-01  5.50000000e-01  6.66500000e+03  1.00000000e+03  2.28000000e+02
  6.47100000e+01  2.10600000e+01  7.49500000e+00  2.79700000e+00  5.21500000e-01
  6.66500000e+03  1.00000000e+03  2.28000000e+02  6.47100000e+01  2.10600000e+01
  7.49500000e+00  2.79700000e+00  5.21500000e-01  1.59600000e-01  9.43900000e+00
  2.00200000e+00  5.45600000e-01  1.51700000e-01  5.50000000e-01  6.66500000e+03
  1.00000000e+03  2.28000000e+02  6.47100000e+01  2.10600000e+01  7.49500000e+00
  2.79700000e+00  5.21500000e-01  6.66500000e+03  1.00000000e+03  2.28000000e+02
  6.47100000e+01  2.10600000e+01  7.49500000e+00  2.79700000e+00  5.21500000e-01
  1.59600000e-01  9.43900000e+00  2.00200000e+00  5.45600000e-01  1.51700000e-01
  5.50000000e-01  6.66500000e+03  1.00000000e+03  2.28000000e+02  6.47100000e+01
  2.10600000e+01  7.49500000e+00  2.79700000e+00  5.21500000e-01  6.66500000e+03
  1.00000000e+03  2.28000000e+02  6.47100000e+01  2.10600000e+01  7.49500000e+00
  2.79700000e+00  5.21500000e-01  1.59600000e-01  9.43900000e+00  2.00200000e+00
  5.45600000e-01  1.51700000e-01  5.50000000e-01  1.17200000e+04  1.75900000e+03
  4.00800000e+02  1.13700000e+02  3.70300000e+01  1.32700000e+01  5.02500000e+00
  1.01300000e+00  1.17200000e+04  1.75900000e+03  4.00800000e+02  1.13700000e+02
  3.70300000e+01  1.32700000e+01  5.02500000e+00  1.01300000e+00  3.02300000e-01
  1.77000000e+01  3.85400000e+00  1.04600000e+00  2.75300000e-01  1.18500000e+00
  1.30100000e+01  1.96200000e+00  4.44600000e-01  1.22000000e-01  7.27000000e-01
  1.30100000e+01  1.96200000e+00  4.44600000e-01  1.22000000e-01  7.27000000e-01
  1.30100000e+01  1.96200000e+00  4.44600000e-01  1.22000000e-01  7.27000000e-01
  1.30100000e+01  1.96200000e+00  4.44600000e-01  1.22000000e-01  7.27000000e-01
  1.30100000e+01  1.96200000e+00  4.44600000e-01  1.22000000e-01  7.27000000e-01
  1.30100000e+01  1.96200000e+00  4.44600000e-01  1.22000000e-01  7.27000000e-01
Contraction coefficients                   R   N=         140
  6.91583963e-04  5.32579615e-03  2.70607210e-02  1.01656846e-01  2.74574824e-01
  4.48294319e-01  2.84902611e-01  1.51948592e-02 -2.93269653e-04 -2.31803547e-03
 -1.14997860e-02 -4.68267270e-02 -1.28466169e-01 -3.01266272e-01 -2.55630702e-01
  1.09379336e+00  1.00000000e+00  5.69792516e-02  3.13207212e-01  7.60376742e-01
  1.00000000e+00  1.00000000e+00  6.91583963e-04  5.32579615e-03  2.70607210e-02
  1.01656846e-01  2.74574824e-01  4.48294319e-01  2.84902611e-01  1.51948592e-02
 -2.93269653e-04 -2.31803547e-03 -1.14997860e-02 -4.68267270e-02 -1.28466169e-01
 -3.01266272e-01 -2.55630702e-01  1.09379336e+00  1.00000000e+00  5.69792516e-02
  3.13207212e-01  7.60376742e-01  1.00000000e+00  1.00000000e+00  6.91583963e-04
  5.32579615e-03  2.70607210e-02  1.01656846e-01  2.74574824e-01  4.48294319e-01
  2.84902611e-01  1.51948592e-02 -2.93269653e-04 -2.31803547e-03 -1.14997860e-02
 -4.68267270e-02 -1.28466169e-01 -3.01266272e-01 -2.55630702e-01  1.09379336e+00
  1.00000000e+00  5.69792516e-02  3.13207212e-01  7.60376742e-01  1.00000000e+00
  1.00000000e+00  6.91583963e-04  5.32579615e-03  2.70607210e-02  1.01656846e-01
  2.74574824e-01  4.48294319e-01  2.84902611e-01  1.51948592e-02 -2.93269653e-04
 -2.31803547e-03 -1.14997860e-02 -4.68267270e-02 -1.28466169e-01 -3.01266272e-01
 -2.55630702e-01  1.09379336e+00  1.00000000e+00  5.69792516e-02  3.13207212e-01
  7.60376742e-01  1.00000000e+00  1.00000000e+00  7.09645947e-04  5.46727229e-03
  2.78231186e-02  1.04747740e-01  2.82920846e-01  4.48495239e-01  2.70816885e-01
  1.54502916e-02 -3.14443412e-04 -2.48213768e-03 -1.23163554e-02 -5.05389173e-02
 -1.39384903e-01 -3.25077495e-01 -2.29848308e-01  1.09537935e+00  1.00000000e+00
  6.26791663e-02  3.33536566e-01  7.41239642e-01  1.00000000e+00  1.00000000e+00
  3.34987264e-02  2.34800801e-01  8.13682958e-01  1.00000000e+00  1.00000000e+00
  3.34987264e-02  2.34800801e-01  8.13682958e-01  1.00000000e+00  1.00000000e+00
  3.34987264e-02  2.34800801e-01  8.13682958e-01  1.00000000e+00  1.00000000e+00
  3.34987264e-02  2.34800801e-01  8.13682958e-01  1.00000000e+00  1.00000000e+00
  3.34987264e-02  2.34800801e-01  8.13682958e-01  1.00000000e+00  1.00000000e+00
  3.34987264e-02  2.34800801e-01  8.13682958e-01  1.00000000e+00  1.00000000e+00
Coordinates of each shell                  R   N=         144
  1.95743923e+00  2.61563105e+00 -2.09713443e-01  1.95743923e+00  2.61563105e+00
 -2.09713443e-01  1.95743923e+00  2.61563105e+00 -2.09713443e-01  1.95743923e+00
  2.61563105e+00 -2.09713443e-01  1.95743923e+00  2.61563105e+00 -2.09713443e-01
  1.95743923e+00  2.61563105e+00 -2.09713443e-01 -8.51365985e-01  2.39774017e+00
 -1.46444714e-01 -8.51365985e-01  2.39774017e+00 -1.46444714e-01 -8.51365985e-01
  2.39774017e+00 -1.46444714e-01 -8.51365985e-01  2.39774017e+00 -1.46444714e-01
 -8.51365985e-01  2.39774017e+00 -1.46444714e-01 -8.51365985e-01  2.39774017e+00
 -1.46444714e-01 -2.09868425e+00  1.93594303e-01  1.74475682e-01 -2.09868425e+00
  1.93594303e-01  1.74475682e-01 -2.09868425e+00  1.93594303e-01  1.74475682e-01
 -2.09868425e+00  1.93594303e-01  1.74475682e-01 -2.09868425e+00  1.93594303e-01
  1.74475682e-01 -2.09868425e+00  1.93594303e-01  1.74475682e-01 -8.60734964e-01
 -2.29253107e+00  7.56558940e-02 -8.60734964e-01 -2.29253107e+00  7.56558940e-02
 -8.60734964e-01 -2.29253107e+00  7.56558940e-02 -8.60734964e-01 -2.29253107e+00
  7.56558940e-02 -8.60734964e-01 -2.29253107e+00  7.56558940e-02 -8.60734964e-01
 -2.29253107e+00  7.56558940e-02  1.40726558e+00 -2.70064192e+00  1.20800676e-01
  1.40726558e+00 -2.70064192e+00  1.20800676e-01  1.40726558e+00 -2.70064192e+00
  1.20800676e-01  1.40726558e+00 -2.70064192e+00  1.20800676e-01  1.40726558e+00
 -2.70064192e+00  1.20800676e-01  1.40726558e+00 -2.70064192e+00  1.20800676e-01
  2.75332594e+00  9.85800509e-01 -1.18318080e+00  2.75332594e+00  9.85800509e-01
 -1.18318080e+00  2.75332594e+00  9.85800509e-01 -1.18318080e+00  2.65056997e+00
  4.42248926e+00 -9.66398901e-01  2.65056997e+00  4.42248926e+00 -9.66398901e-01
  2.65056997e+00  4.42248926e+00 -9.66398901e-01  2.66308629e+00  2.41838503e+00
  1.75169236e+00  2.66308629e+00  2.41838503e+00  1.75169236e+00  2.66308629e+00
  2.41838503e+00  1.75169236e+00 -2.19466132e+00 -3.91273928e+00 -1.75033719e-01
 -2.19466132e+00 -3.91273928e+00 -1.75033719e-01 -2.19466132e+00 -3.91273928e+00
 -1.75033719e-01 -4.15768473e+00  1.38461884e-01  3.06843590e-01 -4.15768473e+00
  1.38461884e-01  3.06843590e-01 -4.15768473e+00  1.38461884e-01  3.06843590e-01
 -1.98148918e+00  4.10707789e+00 -3.88676592e-01 -1.98148918e+00  4.10707789e+00
 -3.88676592e-01 -1.98148918e+00  4.10707789e+00 -3.88676592e-01
Total Energy                               R     -2.312389703797689e+02
Alpha Orbital Energies                     R   N=         100
 -1.91344792e+01 -1.02718445e+01 -1.02230717e+01 -1.01966758e+01 -1.01888576e+01
 -1.03957097e+00 -8.12762831e-01 -7.17799773e-01 -6.28748679e-01 -5.35436575e-01
 -4.98099662e-01 -4.41235333e-01 -4.32617707e-01 -4.21282166e-01 -3.84803263e-01
 -3.81576856e-01 -3.76356323e-01 -2.73590915e-01 -2.48448084e-01 -6.45399595e-02
  5.01758882e-02  6.50080377e-02  9.03934199e-02  1.06346824e-01  1.30254992e-01
  1.44984688e-01  1.62129497e-01  2.17892411e-01  2.65753080e-01  3.21923311e-01
  3.38671939e-01  4.33519371e-01  4.35947509e-01  4.52258005e-01  4.71084388e-01
  4.84873521e-01  5.07805034e-01  5.27387696e-01  5.68986896e-01  5.96490011e-01
  6.18723941e-01  6.27571026e-01  6.36839304e-01  6.52951931e-01  6.76797017e-01
  6.84853717e-01  7.05366834e-01  7.72129651e-01  8.17480678e-01  8.49741817e-01
  9.13098651e-01  9.24684459e-01  9.56547361e-01  1.01973252e+00  1.02834940e+00
  1.05144648e+00  1.08381154e+00  1.14336224e+00  1.18213730e+00  1.19247866e+00
  1.29202255e+00  1.36672561e+00  1.39800971e+00  1.47606063e+00  1.49123750e+00
  1.49601593e+00  1.54787189e+00  1.56939211e+00  1.62147961e+00  1.63187938e+00
  1.65375624e+00  1.65923635e+00  1.67427291e+00  1.69463696e+00  1.73610676e+00
  1.75635460e+00  1.78796254e+00  1.80492608e+00  1.85657665e+00  1.92105385e+00
  1.96297386e+00  1.97755877e+00  2.01883675e+00  2.06996386e+00  2.10587890e+00
  2.24522620e+00  2.31810182e+00  2.34977351e+00  2.40025812e+00  2.41504889e+00
  2.42057330e+00  2.50166851e+00  2.58370312e+00  2.65058322e+00  2.69961679e+00
  2.79998871e+00  2.99158006e+00  3.06784503e+00  3.42101005e+00  3.47977848e+00
Alpha MO coefficients                      R   N=       10000
 -7.02460567e-05 -1.46255499e-04  8.36413538e-05  6.47853816e-05  4.32162667e-05
  7.33510663e-06 -5.01028893e-05 -1.61585707e-04  1.63393784e-04  7.70199694e-05
  3.21749829e-05  3.50022143e-05  7.92831245e-05 -1.00664232e-04 -2.02777180e-04
 -3.62067551e-04  5.32081740e-03 -2.24394433e-05 -1.92409173e-05 -6.14736754e-05
 -9.62541723e-04 -2.17515348e-03  5.07498417e-04 -3.04738491e-05  3.20043301e-05
 -2.14967096e-05 -5.11715771e-05 -5.41304504e-05  2.01055538e-04  3.08569582e-04
 -3.81942583e-03  2.45956261e-05  2.76901812e-04 -1.09292406e-05 -4.46500670e-03
 -3.58147535e-03  3.00687274e-04  1.25011330e-04  5.54062866e-05  9.11480169e-05
 -4.01293320e-04  4.96450332e-04  4.54177579e-04  5.94661269e-04  5.30427300e-03
 -9.94438409e-05 -1.80591509e-04 -3.30536542e-05  6.58949369e-03  4.99216137e-04
  1.15412626e-04 -1.10064929e-05  1.54044536e-05  9.45927817e-05 -1.16329659e-03
  5.25820994e-04  1.00416775e+00  9.46982638e-03 -1.50721655e-02 -1.83778108e-03
  3.64676165e-04 -5.54357565e-05  3.49499876e-03 -8.39316515e-04  9.07346273e-05
 -1.91687732e-05  1.90140288e-06 -3.67800255e-06  6.98552440e-05  8.23030414e-06
 -1.18389085e-04 -1.17551650e-04  3.00072320e-05 -2.28248283e-05  3.25219610e-05
  1.24856752e-04  3.63876333e-04 -7.54345533e-05 -6.99748971e-05  4.36092023e-05
 -1.09666986e-04 -2.45107483e-04  6.92455623e-05  6.44155391e-05  5.90743026e-05
 -1.80519741e-04  8.78438787e-04 -7.65808449e-04  1.02052530e-04 -3.51434904e-06
 -2.84039037e-04 -1.30656595e-03  1.84657244e-04  2.48772347e-04 -9.40736465e-07
 -1.84865789e-04  2.16437848e-04  4.06511857e-05  7.94935154e-05 -2.97374226e-05
 -3.74156668e-04 -4.96024904e-04  8.99306744e-04  2.90440086e-04  7.21811195e-05
 -2.70955312e-08 -6.32037445e-04  4.56429848e-05  2.38782697e-05 -1.87421780e-05
 -6.95242847e-05  4.32319903e-07 -1.14423003e-04 -3.64629688e-05 -4.32972460e-04
 -6.35397855e-04  6.46902807e-03 -2.71049067e-04 -2.53322105e-05  5.12003343e-05
 -2.10962118e-03 -3.78216552e-03  6.24743598e-04 -3.96086766e-04 -1.99561859e-04
 -9.77424426e-05  2.90765139e-04  3.52954748e-04  1.67786540e-03 -2.70885458e-04
 -1.89842834e-03 -3.56818529e-04  7.81386588e-04  5.00009708e-05 -2.59620804e-03
 -5.94086478e-03  4.20241062e-04  1.04510318e-03  8.84093637e-06 -2.41054752e-05
  1.12142028e-03  8.64249307e-04  1.00594718e+00  1.53018221e-02 -1.07103448e-02
  7.36622752e-04 -4.85696720e-04 -1.00158511e-04  5.38962157e-03 -2.07932488e-03
 -4.38695378e-06 -1.63901821e-03  2.12876234e-04  2.04493767e-04  8.20091103e-04
 -2.27066067e-05  3.64195977e-04  9.06877933e-04 -5.92614153e-03  7.43121342e-04
 -2.09295822e-04 -2.27293339e-07  3.40297543e-03 -2.08678444e-04  9.54774045e-05
  5.67616927e-04 -2.60633067e-05 -1.97016756e-05 -7.23907766e-04  2.51257941e-04
 -1.13278722e-04 -6.13739746e-05  2.36526918e-05  3.45435200e-06 -1.22868787e-05
 -5.17045373e-05  3.65884316e-04 -5.26855792e-05 -2.51439386e-05  8.76049329e-06
 -6.81088893e-05 -8.61016084e-06  1.06122784e-04  5.32104216e-05 -4.44090524e-05
 -1.68385721e-03  2.45664986e-03 -1.42920764e-03 -1.45148412e-03 -2.32309868e-04
 -5.37347365e-04 -4.89869696e-04  5.11242156e-05  2.67528237e-04 -3.24016984e-05
 -3.18118908e-05  6.08943718e-04  2.24603850e-04  1.03288735e-04 -3.54217095e-05
  3.17632413e-03 -4.04144600e-04  4.33769340e-03  7.35636694e-04  4.23995636e-05
  5.80227521e-05 -2.40064768e-03 -8.11275960e-04 -3.45112555e-04  7.86382804e-04
  9.93018189e-05  4.14952092e-05 -9.90446432e-04 -6.33079611e-05  1.00637481e+00
  1.62352947e-02 -2.02696364e-02 -5.31228894e-04  2.11437339e-04 -2.37884677e-05
 -2.25716771e-03  3.93467174e-03 -4.73872830e-04 -1.05082989e-03  1.20671747e-04
 -3.41732526e-04 -5.30460504e-04 -4.53234641e-04  1.25120261e-02 -1.22565672e-03
  4.81648259e-03 -7.14644013e-04 -1.07058253e-03  1.66920830e-04  2.72492928e-03
  2.69061320e-03 -3.04650545e-04  8.75893290e-04  1.42526483e-04  3.07942362e-04
  5.00923062e-04 -9.71461558e-04 -2.83020409e-04 -5.63104869e-04  1.20294687e-03
 -2.04829244e-05 -2.08072463e-04  4.02993433e-05 -4.61717244e-04  1.07484955e-03
 -5.89413573e-05 -3.29319664e-04 -1.03198397e-04 -1.13050452e-05  1.63624913e-04
 -8.35776234e-06 -3.43307491e-05 -7.26214421e-05 -1.17347282e-04  1.20964678e-04
  1.35406563e-05  1.70869603e-05 -1.22130139e-04 -3.39875194e-04  3.06798320e-05
  1.12062510e-05 -2.70943500e-05  3.74676366e-06  4.05069220e-06  2.51474791e-05
 -4.22882614e-04  4.14841091e-04 -1.31856610e-04 -2.82192985e-06  5.76617408e-05
 -2.60641624e-04  1.93433516e-04  1.46975646e-04  1.04143272e-05  7.11029628e-05
 -4.61128514e-04  1.17277637e-03 -2.13953816e-04  4.93837767e-07  3.14185398e-05
 -8.72249613e-05  3.31054164e-04  4.65564772e-05 -7.37790345e-05 -1.59479469e-05
  1.84533429e-04  9.53312805e-04  1.65911676e-04 -2.68573332e-04  1.20052532e-06
 -2.51998829e-03  1.11254518e-03 -1.25878896e-03  1.81121064e-03 -2.55253228e-04
  1.21826193e-03  4.81349591e-04 -2.85819687e-04 -1.10912052e-04 -1.36446004e-04
  1.07609188e-04  9.01632029e-04  7.70235851e-05 -2.86964946e-04  3.06284287e-04
  2.97534883e-05  6.42118067e-05 -4.24957016e-05  1.19725694e-04  1.39673119e-02
  1.73970230e-03 -6.14264720e-03 -5.98309209e-04 -1.21616715e-03  1.83181792e-04
  7.23661325e-04  3.70376620e-03 -1.95572310e-04 -9.16620445e-04 -1.96432019e-04
 -3.36863169e-04 -6.18763426e-04  9.20492839e-04 -1.00651778e+00 -1.66179538e-02
  2.11530205e-02  3.38727048e-04 -2.29020375e-04  1.70411313e-04  5.27804881e-03
  2.70666524e-04 -9.63318194e-04  1.10576455e-03  1.87072665e-04  1.21198122e-04
 -4.52090635e-04 -5.36470170e-04  2.00501909e-03  7.83660644e-04 -5.68294285e-03
 -2.66123673e-04  7.12395087e-04  5.72792912e-05 -3.23549563e-04 -3.44831882e-03
  4.77349138e-05 -7.09081450e-04 -1.71936838e-04  7.84059069e-05 -5.55314042e-04
 -1.21912449e-03 -3.56548465e-05 -6.19921272e-05  7.13089221e-04 -1.27639144e-05
  6.20462396e-05  4.25597107e-05  1.47490491e-04  6.36826014e-04 -5.38893044e-05
  1.29081582e-04 -4.29807637e-05 -1.24055261e-05 -8.50939693e-05 -2.19334486e-04
  1.40650245e-04 -3.33833445e-04 -1.64853652e-05 -7.60458065e-05  5.60922412e-05
 -2.98297117e-05 -3.53797550e-04 -4.68812310e-05  4.50099760e-05  3.11077238e-05
  8.31881542e-05 -2.02047294e-04 -4.19617990e-05 -8.23949050e-05  1.36921220e-04
  2.85014860e-04 -9.62991076e-04 -7.68404757e-05  1.95427547e-04 -3.54088683e-05
  2.52910288e-03 -8.40653635e-04  2.19946698e-03 -8.67665301e-05 -6.95331779e-05
 -1.11938180e-04 -8.49131418e-04 -2.95847449e-04  4.26356239e-05 -4.40017860e-05
  1.00705633e+00  1.75809346e-02 -1.93714159e-02  4.04497058e-04 -5.17212846e-05
  1.69725863e-04  2.91004506e-03  4.95191270e-04 -5.82579893e-04  1.28861712e-04
 -2.79533362e-05 -1.00229847e-04 -6.92183809e-04  5.82676916e-05 -3.36321105e-03
 -2.61747405e-04  1.58076324e-03 -4.97462716e-04  5.04667245e-05  3.68293522e-06
  4.18480699e-03  2.35882280e-03 -3.20773215e-04  6.56009212e-04  1.11502157e-04
 -1.77004664e-05 -1.33429775e-03 -3.82982213e-04  5.35024490e-04 -6.60373708e-04
  3.67950284e-03 -2.36172877e-04  3.68774395e-05 -5.10916369e-06  1.23988464e-03
  2.60641255e-03 -3.86714085e-04 -3.71521486e-04  2.47898951e-05 -1.12937032e-04
 -4.17607206e-04 -2.14500038e-04 -1.30067106e-04 -5.12513714e-04  3.68625228e-04
 -7.55950130e-05 -2.69658477e-04 -4.14873329e-05 -2.35047744e-04  4.87360313e-04
  1.34801470e-04 -3.92356993e-05 -2.87901765e-05 -3.08829044e-05  3.08463634e-05
  5.59314950e-05 -1.04905220e-04 -2.03200074e-04  3.61985009e-04  3.18424538e-05
 -1.11399275e-04 -2.30990787e-05 -2.60066785e-04  2.42013154e-04  6.63839680e-05
 -5.76519334e-05  7.48273368e-07  6.61204045e-06  2.15207315e-06 -1.24995344e-06
 -1.22708188e-03  2.15145241e-03  6.23011367e-04 -1.53643591e-03 -9.39859712e-04
 -1.51719614e-03  1.72130006e-03  6.22432670e-04  1.81022960e-03 -7.68930723e-04
 -9.80929307e-04  2.37787207e-03  4.58086617e-04 -2.11761152e-04  1.80674657e-03
  1.49246849e-05  3.76333622e-04  1.16968103e-05  5.74893612e-05 -1.65366645e-05
  4.24935890e-05  5.00203883e-04  6.19524137e-05 -1.91630121e-04  2.78398943e-05
 -3.68868032e-04  1.50137395e-04 -3.91897336e-04 -1.85930923e-04  3.24656195e-05
 -5.27472765e-04  8.27912169e-03  4.98860525e-03 -3.41484459e-03 -4.00198136e-03
 -1.61012569e-05 -2.75132010e-03 -1.25640559e-03  8.34216603e-04 -7.20273281e-04
 -1.25620772e-04 -1.67538548e-04  1.03925569e-04  8.96557077e-04  4.44107761e-04
  1.71953993e-02 -1.16656406e-02  4.30952057e-04 -1.08320222e-02  1.14623208e-03
 -1.81735554e-03  9.07333340e-03 -1.22120176e-03 -5.14889091e-04 -2.15723069e-04
 -4.87781264e-04 -1.50957259e-03  7.51629432e-04 -3.73557360e-03  3.65825023e-02
  3.15702597e-02  2.14156360e-02 -1.95965598e-02 -1.20612697e-03  1.97855838e-02
  1.94287196e-03 -1.98213062e-03 -3.72324848e-03 -5.18159176e-04 -5.74966557e-05
 -2.51407279e-04 -9.11263223e-03 -1.48379393e-02  2.24337133e-01  9.45473525e-02
  1.84132523e-01 -2.46391315e-02  3.65636894e-03  1.25434463e-02 -2.28986054e-03
  9.42751229e-04 -1.38665536e-02  3.71516710e-04 -1.50397924e-03  3.13214073e-02
 -1.36946744e-02 -9.27488111e-03  4.01784754e-01  3.60518781e-01 -1.54959927e-01
  3.15519206e-02 -3.70942835e-03 -3.16601032e-02  7.69759704e-03 -1.49126646e-03
 -5.41655583e-03  2.80262930e-04 -7.72782117e-04  1.20319843e-02 -5.01891776e-03
  7.98102291e-03  4.04490131e-03 -7.15750434e-04 -3.34645313e-04  7.09595706e-04
  1.12717209e-03 -4.70860148e-04  2.18271069e-05 -5.97922606e-05 -7.39170788e-05
  2.87468806e-03  7.52527685e-04 -3.31393072e-04 -3.67658832e-04 -5.66866251e-04
  4.04264623e-02 -3.23637346e-03  1.00210289e-02  6.18898515e-03  1.07170793e-03
  7.37935883e-03  6.06174380e-03  1.07084349e-03 -1.87402672e-03 -9.82831678e-05
  1.98891421e-03 -2.95339244e-03 -1.66475223e-04 -8.58539587e-04  1.45752019e-04
  1.14447360e-02 -1.81855134e-01 -7.35722978e-02  6.79962153e-02  1.46794412e-02
 -5.29029963e-03  1.59027957e-03 -9.68148893e-03  2.69303537e-03  5.73243717e-03
  7.06898305e-04 -6.57908559e-05 -1.01630180e-02 -3.15148987e-03  2.01960138e-02
 -2.89381505e-01 -2.03524919e-01 -5.44897158e-03  7.04019348e-02 -8.75241193e-03
 -3.40287683e-02  2.58809227e-02 -3.75533056e-03  1.00155565e-02  1.39412148e-03
  1.90708868e-03 -2.26243397e-03 -9.85514016e-03  1.73791274e-02 -2.52679155e-01
 -1.36989150e-01 -5.93016185e-02 -5.62671982e-02  1.55222748e-02 -1.84791169e-03
 -2.23332291e-02  3.95718483e-03  6.81543525e-03  1.65294150e-03  2.14972445e-03
  8.72866771e-03 -8.59542357e-03  2.61862273e-03 -6.38192071e-02 -5.17642592e-02
  7.26214117e-02 -8.11866735e-02  9.71070318e-04  2.36825235e-02 -2.33064121e-02
 -1.27935219e-03  2.71890213e-03  4.30638619e-04 -3.52325478e-04  1.34152033e-02
  3.11013814e-03 -3.68938373e-04  7.76584845e-02  7.48010299e-02 -1.28249176e-02
 -1.66649896e-02  1.17012286e-04  9.60935588e-04 -7.29447683e-03  6.05820187e-04
  1.58730628e-04  1.03116754e-05  2.86034779e-05  1.76973329e-03  1.58007812e-03
 -6.99632942e-02 -2.27980963e-03  4.74041315e-03 -8.07228164e-03 -5.26989236e-03
 -5.93731948e-02 -3.08099321e-04  4.89854063e-03  8.20644795e-03 -3.43370885e-03
 -6.91866040e-02 -3.53243247e-03  4.30366083e-03 -9.62829700e-05  9.32863617e-03
 -1.81676272e-02 -9.11926406e-05  1.10608843e-04 -3.45005185e-03 -1.25602657e-04
 -8.20281011e-02 -2.07436190e-03 -1.40053664e-02 -1.98702969e-03  1.17442107e-03
 -9.95447173e-02 -1.41148465e-02 -7.08271390e-03  1.36857082e-02 -1.84673004e-03
  1.44998178e-02 -2.82619307e-01 -1.19478851e-01  1.97730863e-02 -6.02009609e-03
 -5.03224664e-03 -1.61927252e-02 -8.29392685e-03  8.99834602e-04  1.43128461e-03
 -3.79723681e-05 -1.90099082e-04 -3.05008203e-03  2.39028112e-03  5.38477650e-03
 -5.18240830e-02 -8.80474105e-02 -1.37766126e-01 -8.90581633e-02  1.08728943e-02
 -8.91660251e-02 -5.46642841e-03  1.67214526e-03  3.79710077e-03 -3.30607741e-04
 -1.14425538e-03 -1.77269835e-02  4.48424778e-03 -1.39688211e-02  2.28603953e-01
  1.67005585e-01 -6.59997376e-03 -6.22288000e-02 -5.06952682e-03  3.46462056e-02
 -3.52590159e-02 -1.67583992e-03 -4.35877918e-03 -7.39960243e-05  4.99456949e-04
 -9.80261524e-03 -6.06777274e-03 -3.35987187e-03  1.59096577e-01  7.11551932e-02
 -1.11282273e-01  7.60627387e-02  5.83256074e-04 -3.96161193e-02  9.52229666e-03
 -1.26570715e-03 -1.73132657e-03 -3.90985562e-04  3.25139518e-04 -9.61368019e-03
 -6.17910613e-03 -2.23322642e-04 -8.42864903e-02 -8.43004661e-02 -2.14830266e-02
  6.71966686e-03  1.53473603e-03 -2.16338468e-02  1.34087792e-03  2.03370199e-04
 -9.38554198e-04  5.90463572e-05  3.16299666e-04  1.23226061e-03 -2.01889764e-03
 -1.23964747e-01 -1.69921755e-02  6.63695614e-03 -1.31358361e-02 -8.17293003e-03
 -1.29898258e-01 -1.47242817e-02  6.07953444e-03  1.53621651e-02 -6.81561189e-03
 -1.28134151e-01 -1.66643824e-02  5.66853079e-03 -1.87280456e-03  1.60892522e-02
  7.47545357e-02  3.07902918e-03  3.62818891e-03  9.09216419e-03  1.18195116e-03
  1.17555791e-01  2.28177170e-02  1.49820080e-02 -1.01407269e-03 -1.03911157e-03
 -2.86416002e-02 -1.62637976e-02 -4.08141928e-03  6.39734346e-04 -1.54506498e-04
  5.83277420e-03 -1.80583276e-01 -9.97487584e-02 -7.48046718e-02 -3.44022953e-04
 -4.48957097e-03 -3.92226184e-02 -5.95142406e-03  6.55151695e-03 -5.06724616e-03
 -8.01159161e-04 -3.18086172e-04  7.57170710e-03  7.87476347e-04 -5.54759437e-03
  2.13019286e-01  1.00269623e-01 -1.44804999e-01 -1.18736810e-02  6.34762626e-03
 -4.28174690e-02  8.81604551e-04 -7.69179118e-04  3.02619737e-03 -1.46751416e-03
 -9.33517213e-04 -5.71396364e-03  3.91375362e-03 -1.33284180e-03  3.22744685e-03
  1.46059001e-02  7.66383947e-03  2.47221641e-01 -1.25505502e-02  3.88012116e-03
  7.66616602e-02 -3.31671106e-03  8.20980429e-04 -4.83384580e-04 -4.01603058e-03
  1.10451882e-03  1.12037090e-02  2.69272559e-03 -2.28356610e-01 -1.48398644e-01
  1.53536082e-01 -2.68571032e-02  4.06711790e-03  4.63491870e-02 -1.90073228e-02
  5.20837723e-04 -1.11243112e-03  9.38515570e-04 -6.72973742e-04  5.63437711e-03
  1.36061772e-03  1.05207324e-03  1.20687667e-01  1.40198401e-01  4.97434444e-02
 -1.09800937e-02  2.49331458e-03  3.85332360e-02 -6.92300365e-03  1.89192812e-03
  2.49871798e-03 -1.74317052e-04 -3.21120746e-05 -2.14535153e-03  6.23940230e-04
 -1.04020349e-01 -7.50574886e-03  3.35546939e-03 -1.05238819e-02 -5.81401874e-03
 -1.04776768e-01 -1.55660336e-02  2.29379152e-03  1.08390222e-02 -5.09001335e-03
 -1.08003026e-01 -2.10356150e-02  3.06118655e-03 -1.01643316e-03  1.13807184e-02
 -1.54722841e-01 -2.82212412e-02 -7.62076346e-03 -1.38564240e-02 -1.97276778e-03
 -7.17861234e-03 -1.57473864e-03 -5.54665531e-04  4.98382194e-03 -2.15645774e-04
  1.53302445e-01  2.65456077e-02  7.10610577e-03 -1.53820890e-02  2.38593194e-03
  1.48413320e-03 -3.82877035e-02 -3.11857990e-02 -1.08236436e-01  9.75023800e-02
 -9.50176871e-03 -2.97774734e-02  3.89273366e-02 -6.59360975e-03 -4.87771646e-03
  7.61831305e-04 -1.54381500e-03  9.39864347e-03 -6.38718971e-03 -2.72754039e-03
  1.38979063e-01  9.95058441e-02 -1.85513795e-03  2.24878633e-01 -3.39282104e-02
  2.70143583e-02  6.83775026e-02 -9.69981141e-03  3.87828429e-03  1.61962942e-03
  1.30504333e-03  1.27438449e-03 -5.95111899e-03  3.00698617e-03 -1.51173577e-01
 -1.05422370e-01 -2.20664302e-02 -3.35347864e-03 -7.42596017e-03 -2.33078786e-02
  2.76957354e-02 -6.81079284e-03 -3.70374178e-03  2.80890512e-04 -7.17143077e-04
 -1.33401544e-02  8.54308254e-04  6.98885325e-04  1.60129516e-01  1.21613969e-01
 -6.05258855e-02 -2.37100260e-01 -2.23926871e-02 -4.77500603e-02 -5.27189812e-02
 -4.08131368e-03  5.25265797e-03  7.15270843e-04 -9.00077861e-05 -1.66045988e-04
  6.75421310e-04  4.48035232e-04 -8.66787395e-02 -1.21620828e-01 -1.43054043e-01
 -1.11789298e-01 -9.25361586e-03 -8.39090895e-02 -6.19236916e-02 -5.30803951e-03
 -3.49226370e-03  1.21793528e-03  4.88261715e-04  9.09515850e-03  6.69070271e-03
 -1.08966036e-01 -3.57765847e-02  1.80193801e-03 -4.47202621e-03 -5.82795391e-03
  1.12590555e-02 -2.22744706e-03 -3.30254295e-03  1.65935599e-03  2.69377945e-04
 -5.96191434e-02 -1.80515630e-02 -6.91297935e-04  2.67470615e-03  5.46164539e-03
  2.29645223e-01  5.97653977e-02  1.16595192e-02  1.29304660e-02  2.34346650e-03
 -7.91278223e-02 -2.91374686e-02 -8.28995321e-03 -1.13732395e-03  4.24952949e-04
  2.17862063e-01  6.51001426e-02  1.09384016e-02 -1.21747308e-02  1.71622762e-03
  2.50204277e-03 -5.26448258e-02 -4.90580240e-02 -1.49255800e-01 -9.94420138e-02
  5.66963629e-03 -3.48588780e-02 -4.27723415e-02 -2.33005516e-03 -5.29364907e-03
 -8.72522994e-04  2.04428729e-03  7.44825343e-03  4.35945370e-03  6.21000956e-04
  8.62793583e-02  6.18836018e-02  1.35678846e-01 -1.15238165e-01  3.40793030e-03
  7.99863698e-02 -3.41778556e-02 -1.38398060e-03  1.57546504e-03  1.79059749e-03
  7.36625290e-04 -9.87864890e-03 -1.08506425e-02  5.84303467e-03 -7.55619950e-02