Generated by Psi4
        SP                           RHF                       CC-PVDZ
Number of atoms                            I               11
Charge                                     I                0
Multiplicity                               I                1
Number of electrons                        I               38
Number of alpha electrons                  I               19
Number of beta electrons                   I               19
Number of basis functions                  I              100
Number of independent functions            I              100
Atomic numbers                             I   N=          11
           6           6           6           6           8           1
           1           1           1           1           1
Nuclear charges                            R   N=          11
  6.00000000e+00  6.00000000e+00  6.00000000e+00  6.00000000e+00  8.00000000e+00
  1.00000000e+00  1.00000000e+00  1.00000000e+00  1.00000000e+00  1.00000000e+00
  1.00000000e+00
Current cartesian coordinates              R   N=          33
  1.64447985e+00  3.00480885e+00  3.03101646e-01 -7.90818620e-01  2.41083840e+00
 -1.66910601e-01 -2.04528056e+00 -1.14789568e-02  2.91842110e-01 -8.90219934e-01
 -2.28244380e+00  1.02158979e-01  1.57910396e+00 -2.67621722e+00 -4.09840148e-01
  2.35632600e+00 -1.02960052e+00 -6.95486803e-01  2.43082839e+00  4.82637585e+00
 -2.69378052e-01  2.90247070e+00  1.74388981e+00  1.35744440e+00 -1.91871642e+00
 -4.07037298e+00  2.61590561e-01 -4.08007083e+00 -1.79133797e-02  6.27935060e-01
 -1.96426010e+00  3.85129179e+00 -1.09055151e+00
Integer atomic weights                     I   N=          11
          12          12          12          12          16           1
           1           1           1           1           1
Real atomic weights                        R   N=          11
  1.20000000e+01  1.20000000e+01  1.20000000e+01  1.20000000e+01  1.59949146e+01
  1.00782503e+00  1.00782503e+00  1.00782503e+00  1.00782503e+00  1.00782503e+00
  1.00782503e+00
Number of primitive shells                 I              140
Number of contracted shells                I               48
Pure/Cartesian d shells                    I                0
Pure/Cartesian f shells                    I                0
Highest angular momentum                   I                2
Largest degree of contraction              I                8
Shell types                                I   N=          48
           0           0           0           1           1          -2
           0           0           0           1           1          -2
           0           0           0           1           1          -2
           0           0           0           1           1          -2
           0           0           0           1           1          -2
           0           0           1           0           0           1
           0           0           1           0           0           1
           0           0           1           0           0           1
Number of primitives per shell             I   N=          48
           8           8           1           3           1           1
           8           8           1           3           1           1
           8           8           1           3           1           1
           8           8           1           3           1           1
           8           8           1           3           1           1
           3           1           1           3           1           1
           3           1           1           3           1           1
           3           1           1           3           1           1
Shell to atom map                          I   N=          48
           1           1           1           1           1           1
           2           2           2           2           2           2
           3           3           3           3           3           3
           4           4           4           4           4           4
           5           5           5           5           5           5
           6           6           6           7           7           7
           8           8           8           9           9           9
          10          10          10          11          11          11
Primitive exponents                        R   N=         140
  6.66500000e+03  1.00000000e+03  2.28000000e+02  6.47100000e+01  2.10600000e+01
  7.49500000e+00  2.79700000e+00  5.21500000e-01  6.66500000e+03  1.00000000e+03
  2.28000000e+02  6.47100000e+01  2.10600000e+01  7.49500000e+00  2.79700000e+00
  5.21500000e-01  1.59600000e-01  9.43900000e+00  2.00200000e+00  5.45600000e-01
  1.51700000e-01  5.50000000e-01  6.66500000e+03  1.00000000e+03  2.28000000e+02
  6.47100000e+01  2.10600000e+01  7.49500000e+00  2.79700000e+00  5.21500000e-01
  6.66500000e+03  1.00000000e+03  2.28000000e+02  6.47100000e+01  2.10600000e+01
  7.49500000e+00  2.79700000e+00  5.21500000e-01  1.59600000e-01  9.43900000e+00
  2.00200000e+00  5.45600000e-01  1.51700000e-01  5.50000000e-01  6.66500000e+03
  1.00000000e+03  2.28000000e+02  6.47100000e+01  2.10600000e+01  7.49500000e+00
  2.79700000e+00  5.21500000e-01  6.66500000e+03  1.00000000e+03  2.28000000e+02
  6.47100000e+01  2.10600000e+01  7.49500000e+00  2.79700000e+00  5.21500000e-01
  1.59600000e-01  9.43900000e+00  2.00200000e+00  5.45600000e-01  1.51700000e-01
  5.50000000e-01  6.66500000e+03  1.00000000e+03  2.28000000e+02  6.47100000e+01
  2.10600000e+01  7.49500000e+00  2.79700000e+00  5.21500000e-01  6.66500000e+03
  1.00000000e+03  2.28000000e+02  6.47100000e+01  2.10600000e+01  7.49500000e+00
  2.79700000e+00  5.21500000e-01  1.59600000e-01  9.43900000e+00  2.00200000e+00
  5.45600000e-01  1.51700000e-01  5.50000000e-01  1.17200000e+04  1.75900000e+03
  4.00800000e+02  1.13700000e+02  3.70300000e+01  1.32700000e+01  5.02500000e+00
  1.01300000e+00  1.17200000e+04  1.75900000e+03  4.00800000e+02  1.13700000e+02
  3.70300000e+01  1.32700000e+01  5.02500000e+00  1.01300000e+00  3.02300000e-01
  1.77000000e+01  3.85400000e+00  1.04600000e+00  2.75300000e-01  1.18500000e+00
  1.30100000e+01  1.96200000e+00  4.44600000e-01  1.22000000e-01  7.27000000e-01
  1.30100000e+01  1.96200000e+00  4.44600000e-01  1.22000000e-01  7.27000000e-01
  1.30100000e+01  1.96200000e+00  4.44600000e-01  1.22000000e-01  7.27000000e-01
  1.30100000e+01  1.96200000e+00  4.44600000e-01  1.22000000e-01  7.27000000e-01
  1.30100000e+01  1.96200000e+00  4.44600000e-01  1.22000000e-01  7.27000000e-01
  1.30100000e+01  1.96200000e+00  4.44600000e-01  1.22000000e-01  7.27000000e-01
Contraction coefficients                   R   N=         140
  6.91583963e-04  5.32579615e-03  2.70607210e-02  1.01656846e-01  2.74574824e-01
  4.48294319e-01  2.84902611e-01  1.51948592e-02 -2.93269653e-04 -2.31803547e-03
 -1.14997860e-02 -4.68267270e-02 -1.28466169e-01 -3.01266272e-01 -2.55630702e-01
  1.09379336e+00  1.00000000e+00  5.69792516e-02  3.13207212e-01  7.60376742e-01
  1.00000000e+00  1.00000000e+00  6.91583963e-04  5.32579615e-03  2.70607210e-02
  1.01656846e-01  2.74574824e-01  4.48294319e-01  2.84902611e-01  1.51948592e-02
 -2.93269653e-04 -2.31803547e-03 -1.14997860e-02 -4.68267270e-02 -1.28466169e-01
 -3.01266272e-01 -2.55630702e-01  1.09379336e+00  1.00000000e+00  5.69792516e-02
  3.13207212e-01  7.60376742e-01  1.00000000e+00  1.00000000e+00  6.91583963e-04
  5.32579615e-03  2.70607210e-02  1.01656846e-01  2.74574824e-01  4.48294319e-01
  2.84902611e-01  1.51948592e-02 -2.93269653e-04 -2.31803547e-03 -1.14997860e-02
 -4.68267270e-02 -1.28466169e-01 -3.01266272e-01 -2.55630702e-01  1.09379336e+00
  1.00000000e+00  5.69792516e-02  3.13207212e-01  7.60376742e-01  1.00000000e+00
  1.00000000e+00  6.91583963e-04  5.32579615e-03  2.70607210e-02  1.01656846e-01
  2.74574824e-01  4.48294319e-01  2.84902611e-01  1.51948592e-02 -2.93269653e-04
 -2.31803547e-03 -1.14997860e-02 -4.68267270e-02 -1.28466169e-01 -3.01266272e-01
 -2.55630702e-01  1.09379336e+00  1.00000000e+00  5.69792516e-02  3.13207212e-01
  7.60376742e-01  1.00000000e+00  1.00000000e+00  7.09645947e-04  5.46727229e-03
  2.78231186e-02  1.04747740e-01  2.82920846e-01  4.48495239e-01  2.70816885e-01
  1.54502916e-02 -3.14443412e-04 -2.48213768e-03 -1.23163554e-02 -5.05389173e-02
 -1.39384903e-01 -3.25077495e-01 -2.29848308e-01  1.09537935e+00  1.00000000e+00
  6.26791663e-02  3.33536566e-01  7.41239642e-01  1.00000000e+00  1.00000000e+00
  3.34987264e-02  2.34800801e-01  8.13682958e-01  1.00000000e+00  1.00000000e+00
  3.34987264e-02  2.34800801e-01  8.13682958e-01  1.00000000e+00  1.00000000e+00
  3.34987264e-02  2.34800801e-01  8.13682958e-01  1.00000000e+00  1.00000000e+00
  3.34987264e-02  2.34800801e-01  8.13682958e-01  1.00000000e+00  1.00000000e+00
  3.34987264e-02  2.34800801e-01  8.13682958e-01  1.00000000e+00  1.00000000e+00
  3.34987264e-02  2.34800801e-01  8.13682958e-01  1.00000000e+00  1.00000000e+00
Coordinates of each shell                  R   N=         144
  1.64447985e+00  3.00480885e+00  3.03101646e-01  1.64447985e+00  3.00480885e+00
  3.03101646e-01  1.64447985e+00  3.00480885e+00  3.03101646e-01  1.64447985e+00
  3.00480885e+00  3.03101646e-01  1.64447985e+00  3.00480885e+00  3.03101646e-01
  1.64447985e+00  3.00480885e+00  3.03101646e-01 -7.90818620e-01  2.41083840e+00
 -1.66910601e-01 -7.90818620e-01  2.41083840e+00 -1.66910601e-01 -7.90818620e-01
  2.41083840e+00 -1.66910601e-01 -7.90818620e-01  2.41083840e+00 -1.66910601e-01
 -7.90818620e-01  2.41083840e+00 -1.66910601e-01 -7.90818620e-01  2.41083840e+00
 -1.66910601e-01 -2.04528056e+00 -1.14789568e-02  2.91842110e-01 -2.04528056e+00
 -1.14789568e-02  2.91842110e-01 -2.04528056e+00 -1.14789568e-02  2.91842110e-01
 -2.04528056e+00 -1.14789568e-02  2.91842110e-01 -2.04528056e+00 -1.14789568e-02
  2.91842110e-01 -2.04528056e+00 -1.14789568e-02  2.91842110e-01 -8.90219934e-01
 -2.28244380e+00  1.02158979e-01 -8.90219934e-01 -2.28244380e+00  1.02158979e-01
 -8.90219934e-01 -2.28244380e+00  1.02158979e-01 -8.90219934e-01 -2.28244380e+00
  1.02158979e-01 -8.90219934e-01 -2.28244380e+00  1.02158979e-01 -8.90219934e-01
 -2.28244380e+00  1.02158979e-01  1.57910396e+00 -2.67621722e+00 -4.09840148e-01
  1.57910396e+00 -2.67621722e+00 -4.09840148e-01  1.57910396e+00 -2.67621722e+00
 -4.09840148e-01  1.57910396e+00 -2.67621722e+00 -4.09840148e-01  1.57910396e+00
 -2.67621722e+00 -4.09840148e-01  1.57910396e+00 -2.67621722e+00 -4.09840148e-01
  2.35632600e+00 -1.02960052e+00 -6.95486803e-01  2.35632600e+00 -1.02960052e+00
 -6.95486803e-01  2.35632600e+00 -1.02960052e+00 -6.95486803e-01  2.43082839e+00
  4.82637585e+00 -2.69378052e-01  2.43082839e+00  4.82637585e+00 -2.69378052e-01
  2.43082839e+00  4.82637585e+00 -2.69378052e-01  2.90247070e+00  1.74388981e+00
  1.35744440e+00  2.90247070e+00  1.74388981e+00  1.35744440e+00  2.90247070e+00
  1.74388981e+00  1.35744440e+00 -1.91871642e+00 -4.07037298e+00  2.61590561e-01
 -1.91871642e+00 -4.07037298e+00  2.61590561e-01 -1.91871642e+00 -4.07037298e+00
  2.61590561e-01 -4.08007083e+00 -1.79133797e-02  6.27935060e-01 -4.08007083e+00
 -1.79133797e-02  6.27935060e-01 -4.08007083e+00 -1.79133797e-02  6.27935060e-01
 -1.96426010e+00  3.85129179e+00 -1.09055151e+00 -1.96426010e+00  3.85129179e+00
 -1.09055151e+00 -1.96426010e+00  3.85129179e+00 -1.09055151e+00
Total Energy                               R     -2.312256441099801e+02
Alpha Orbital Energies                     R   N=         100
 -1.91743221e+01 -1.02507555e+01 -1.02061996e+01 -1.01906876e+01 -1.01825015e+01
 -1.06548962e+00 -8.01694474e-01 -7.31455283e-01 -6.28964571e-01 -5.79154755e-01
 -4.99238803e-01 -4.78289295e-01 -4.47548402e-01 -4.09534034e-01 -3.94522241e-01
 -3.76492351e-01 -3.47460267e-01 -2.99919719e-01 -2.18243131e-01 -2.57354931e-02
  5.63087104e-02  7.26726731e-02  8.06480077e-02  1.00851230e-01  1.25800267e-01
  1.41633457e-01  1.64669583e-01  2.21221314e-01  3.00710380e-01  3.21424625e-01
  3.49502547e-01  4.33887389e-01  4.45248916e-01  4.74769232e-01  4.78421430e-01
  4.94682159e-01  5.11558197e-01  5.34902500e-01  5.54945744e-01  5.65834401e-01
  5.81747886e-01  6.12665228e-01  6.27572901e-01  6.57885764e-01  6.74513854e-01
  7.19717899e-01  7.68547974e-01  7.94278210e-01  8.79905972e-01  9.06751169e-01
  9.40793336e-01  9.55184665e-01  9.63335728e-01  1.00117677e+00  1.03837800e+00
  1.05164691e+00  1.09447028e+00  1.10417058e+00  1.16313484e+00  1.19105645e+00
  1.22009190e+00  1.31949923e+00  1.36511183e+00  1.43404576e+00  1.45348415e+00
  1.48266467e+00  1.50488487e+00  1.52876980e+00  1.55529130e+00  1.58776671e+00
  1.60420121e+00  1.64622736e+00  1.68436757e+00  1.71626990e+00  1.73223057e+00
  1.75350235e+00  1.75829400e+00  1.82247073e+00  1.89558536e+00  1.92278225e+00
  1.98019907e+00  1.98741264e+00  2.03561547e+00  2.07803071e+00  2.09963193e+00
  2.17315372e+00  2.22054197e+00  2.26397822e+00  2.38769779e+00  2.39903045e+00
  2.42295829e+00  2.57430631e+00  2.73513838e+00  2.77930242e+00  2.87817464e+00
  2.95678953e+00  3.02151225e+00  3.17749823e+00  3.43687173e+00  3.69831658e+00
Alpha MO coefficients                      R   N=       10000
 -8.03416476e-05 -1.38200098e-04  1.23856025e-03 -1.03698562e-04  7.56477744e-05
  2.31105002e-05 -2.55608410e-04 -1.36137837e-03  1.57647848e-04 -7.08334599e-05
  1.33356226e-05  4.16890456e-05 -5.01006041e-05  7.69397464e-05  2.14182714e-04
  3.68983165e-04 -5.60867811e-03 -5.16155658e-06  4.79624670e-06  6.53259894e-05
  2.14021962e-04  2.97322814e-03 -8.98641461e-04  6.89617847e-05 -1.26268012e-04
  1.03336144e-04 -6.84688648e-06  2.03849551e-05 -1.91230688e-04 -2.78361054e-04
  4.81898610e-03  5.44831752e-05 -2.69031762e-04  7.21546406e-06  4.66434366e-03
  3.11799245e-03 -1.06849943e-03 -1.59043559e-04 -1.40461133e-04  6.70804301e-05
  3.87586127e-04 -3.96539822e-04 -1.95515690e-04 -3.55558108e-04 -5.72221445e-03
 -3.27710791e-04  2.16299309e-04  1.00338670e-04 -5.85095837e-03 -1.50086100e-03
  1.20370404e-03  4.04174807e-04  3.77780151e-06  6.98449049e-05  7.12784987e-04
 -4.00465867e-04 -1.00408424e+00 -9.36115429e-03  1.40476062e-02  8.90316793e-04
 -1.45342897e-03 -6.56871515e-05 -3.23137820e-03  1.41125842e-03  6.12276794e-04
  2.32696034e-05  1.09211976e-06  8.28559193e-05  1.49735447e-04 -2.65491883e-04
 -2.49524580e-04 -3.42853948e-04 -2.30201864e-04 -9.88544536e-04  5.57075633e-05
  5.52535308e-05  3.01303420e-04  3.76324895e-05  6.28199450e-05  7.96085504e-06
 -2.35000400e-04 -1.93221265e-04  3.01289751e-06 -2.76668703e-05 -1.54872605e-05
  4.03244068e-04 -9.00955974e-04  6.33219059e-04  1.47415490e-04 -1.25568025e-04
  1.67796254e-04  1.25630121e-03 -2.25582313e-04 -2.07834395e-04  6.28854537e-05
  8.83637414e-05 -6.16671629e-04 -3.48557938e-05 -1.08367127e-04  2.81995223e-05
 -2.79484824e-04 -3.42593124e-04  1.10815228e-03  1.45746443e-04  7.92688541e-05
  7.26645210e-05 -1.27015408e-03  5.01365072e-04 -6.37251067e-04 -7.46594885e-05
 -1.58791106e-05 -2.83804216e-05  5.43719371e-05 -3.87462382e-05 -4.95272369e-04
 -7.07883479e-04  4.86723508e-03 -1.16842924e-04  1.40752338e-05  2.03819457e-06
 -2.39699369e-03 -4.14636368e-03  7.57808156e-04 -3.52702331e-04 -9.54172914e-05
 -1.03154730e-04  6.67379818e-06  1.85506865e-04  4.57599370e-03 -1.00842232e-03
  1.33886384e-04 -5.75770896e-04  1.35296044e-03  9.53922182e-05 -1.95182998e-03
 -6.47122881e-03  7.61400697e-04  1.07458205e-03  2.39103567e-04 -5.54895912e-05
  5.68387907e-04  9.02885895e-04  1.00590777e+00  1.52848996e-02 -1.25386891e-02
  5.78285212e-04 -4.62264313e-04 -1.87651836e-04  5.05641606e-03 -2.36434748e-03
 -1.00732123e-03 -1.63333435e-03 -5.07217550e-04  4.20019704e-05 -3.14061425e-04
 -1.47853216e-05  7.18670504e-04  1.29766605e-03 -4.93317623e-03  2.65793090e-04
 -2.08466026e-04 -3.52125941e-05  3.26646836e-03 -2.53082515e-04 -7.02686271e-04
  6.95898371e-04  4.31905413e-04 -1.96009991e-05 -7.65641860e-04  1.93849834e-04
  5.17728069e-04 -4.44019948e-04 -6.25836062e-04 -2.51665850e-05  1.19836744e-04
 -5.57328770e-05  1.64640215e-04 -2.57982934e-05 -5.48839048e-05  3.06824308e-05
  6.44852111e-06  9.41747125e-04  1.04057289e-05  6.30754424e-05 -2.94574638e-05
 -2.15463351e-03  2.31558377e-03 -1.53189026e-03 -1.59540287e-03  2.56252744e-04
 -1.39888160e-04 -2.59570776e-04  3.03853296e-04  2.93162468e-04 -7.56417499e-05
 -5.48244020e-05  5.47961708e-04  1.72003225e-04  1.30738581e-04 -3.11284606e-05
  2.19867319e-02 -1.12794524e-03  4.78856534e-03  1.32954900e-03  3.37669057e-04
  1.63413643e-04 -2.07386966e-03 -1.81395388e-03  3.80404339e-04  7.60743541e-04
 -5.36899944e-04 -2.72706535e-05 -1.06640691e-03 -4.01494656e-04  1.00618730e+00
  1.62603052e-02 -1.92205233e-02 -1.24707785e-04  2.08720964e-04 -2.55602357e-04
 -1.71037191e-03  3.20485977e-03 -1.73623746e-03 -7.49622414e-04  7.01684081e-04
 -6.50666833e-04  2.31278196e-04 -2.80805970e-05  5.52496257e-03 -4.41760168e-04
  1.11723050e-03 -4.64705437e-04 -6.24977303e-04  1.43587623e-04  7.85177702e-04
  3.86709345e-03  2.72196352e-04  7.97563207e-04  3.51663937e-05  5.80372621e-04
  1.09860507e-03 -9.59803158e-04 -3.55109840e-04 -7.02721858e-04  4.10448723e-03
 -1.05561044e-04 -1.62358505e-04  1.28465929e-04 -6.13707584e-04  2.77529463e-03
 -2.63561022e-04 -4.28948197e-04 -3.15973214e-04  6.18020707e-05  4.10952779e-04
 -3.12561296e-04  8.81067365e-05  1.28561974e-04 -1.22563486e-03  1.63699928e-04
 -4.14416395e-05 -2.63292307e-05  1.35578260e-04 -6.83385580e-04  8.39728314e-05
  8.30039724e-05  2.52744560e-05  1.84635259e-05 -1.52034043e-05  1.58688198e-05
  2.88669820e-04  6.06388515e-04 -2.78410727e-04 -7.98050210e-05 -2.03805024e-05
 -5.06970353e-05  8.98436907e-04  1.44320613e-04 -1.13825977e-04  7.68712513e-05
 -2.65894969e-04 -2.14144851e-04  3.72033142e-05  2.41915280e-04 -1.10978403e-04
  1.01922580e-04  7.94958572e-04  1.79841150e-04 -5.38376449e-05  2.42135792e-06
 -2.96855915e-04  4.20545358e-04 -7.08103730e-05 -3.87203639e-04 -5.82818186e-05
 -2.29040172e-03  1.20207584e-03 -1.15151383e-03  1.50777377e-03 -9.46619034e-04
  1.00618391e+00  1.63567680e-02 -1.52568093e-02  2.80715576e-04 -5.36728687e-05
  2.97060464e-05  2.20387003e-03  7.34765879e-04  7.36583957e-04 -1.04127735e-03
  7.25855210e-04 -1.18822351e-03  4.86479710e-05  3.28020188e-04 -2.32092896e-02
 -1.44592692e-03  1.00557139e-03 -1.33682960e-03 -3.31031830e-04 -2.73248115e-04
  2.92059454e-03  2.48358149e-03 -3.72537212e-05  1.00091852e-03 -5.85761996e-04
  1.84284674e-04 -9.95810874e-04 -7.71466573e-04 -1.04838575e-03 -5.17965681e-04
  3.49774892e-03 -8.40216519e-05  5.19746316e-05 -6.60256077e-05  1.92968871e-03
  2.46589509e-03 -5.02290298e-04 -3.73472998e-04  7.61332922e-05 -2.44197919e-04
 -3.37906601e-04  3.07952268e-05  1.06673045e-05 -2.06067200e-04 -6.33726386e-04
 -1.54863935e-07 -1.33941651e-04 -5.10344864e-05 -1.31207874e-03 -1.62384236e-04
  3.00772216e-04  5.96017287e-05  9.86208863e-05 -8.97580658e-05 -4.59202624e-05
  1.05250420e-04  1.10544156e-05  3.53143755e-05  4.09208280e-04  1.20496922e-04
  6.75536320e-05 -3.72053995e-05 -6.61368521e-04 -1.69229264e-04  1.01093794e-04
 -3.18617508e-05 -3.33709042e-05 -2.71542179e-05  7.87640107e-05  5.62626552e-05
  1.68195621e-04  1.27505665e-03 -1.20232051e-04  4.27150438e-04  8.62976901e-05
 -2.31088769e-03  1.89292591e-03  7.49825820e-04  2.01732496e-03 -7.03871084e-04
 -2.12976318e-03  1.49211240e-03  1.21953757e-03 -1.48689876e-03  1.21716266e-03
 -8.18867329e-05 -3.70418082e-05  4.02542289e-05  1.94237348e-05 -2.00150902e-05
  1.10556672e-04  5.78001202e-04  1.27575703e-05 -1.31184567e-04  4.40535481e-05
  8.09570692e-05  2.56273446e-04  1.71929842e-05 -3.16488593e-04  1.08459298e-04
  3.34128462e-04 -4.49620050e-04  2.78087826e-03  7.33796504e-05  1.05364497e-04
 -8.59486221e-05 -2.08194144e-03 -4.16883949e-04 -4.39525306e-05 -2.54964268e-04
  5.20948490e-04 -3.01612812e-04  2.73145861e-04 -4.83131403e-04 -5.91077475e-03
 -6.89693482e-04  3.03973001e-03  2.10827970e-04  7.01514163e-04 -1.77452214e-04
 -2.08069146e-03 -3.86493157e-03 -3.49075911e-05  9.05189203e-04  4.95329818e-04
  3.55237825e-04  5.60614701e-04 -1.31091508e-03  1.00664602e+00  1.67440126e-02
 -2.18654059e-02 -2.30976525e-04 -1.58291669e-04 -1.04668735e-04 -5.15155645e-03
 -2.57092493e-04  1.56932012e-03 -1.07530392e-03 -3.94188267e-04 -5.26064197e-06
  2.90766715e-04 -2.07923857e-04 -5.82687531e-03 -1.59247351e-03  6.74623191e-03
  6.37178195e-04 -1.23311413e-03 -9.24580759e-05  3.13505456e-04  4.20452274e-03
 -3.35982031e-04  8.40934645e-04  1.60669674e-04 -2.06124493e-04  7.02341449e-04
  1.01600420e-03  3.40956977e-05  4.80512040e-05 -9.69117823e-04  2.91858024e-05
 -5.88918927e-05 -2.85726202e-06 -1.04382146e-04 -7.04658146e-04  6.66755719e-05
 -5.76088376e-05 -4.14176921e-05 -1.13438660e-05  9.48712050e-05  8.10172533e-05
  2.72033643e-04  3.88673833e-05 -1.39193137e-04 -1.61267577e-04  2.30567009e-05
  1.13121855e-04  5.06402628e-04  1.40464938e-04 -1.46870425e-04  5.05424050e-05
 -7.00524674e-04  5.07141593e-04  1.88412083e-04 -1.23085099e-04  1.19888873e-04
  1.48649940e-04  1.21147228e-03  2.86775734e-04 -2.22600088e-05 -1.65045815e-05
 -2.39277293e-03  8.37813941e-04 -2.11842611e-03 -5.69003025e-05  2.78230218e-04
 -3.37706805e-04  7.07866289e-04  2.01765991e-04  2.88002475e-04  7.24046015e-05
  1.51163302e-04  8.44935710e-03 -4.59279880e-03 -1.88220759e-03 -5.10752697e-03
 -6.68699653e-04  2.73365177e-03  5.27379598e-03 -1.91503598e-03 -2.48718687e-04
 -5.63383337e-04  6.97078834e-04 -8.09379882e-04  9.66726505e-04 -1.03661539e-04
  1.30927654e-02  2.19776581e-03  1.54734735e-03 -8.63075596e-03  9.49673178e-04
  6.14933835e-03  3.15291244e-03  2.21196019e-04 -1.38894795e-03 -1.49634545e-04
 -4.22827302e-04 -1.32464590e-03  4.07407775e-04 -1.29696051e-03  3.51820676e-02
 -4.65370840e-03  2.12262402e-02 -1.81132044e-02 -4.29389797e-03  5.19920276e-03
  1.51889267e-02 -2.07297713e-03 -2.22788222e-03 -1.08968028e-03  1.53612757e-03
  2.13425748e-03 -8.04470429e-03 -1.27056503e-02  1.54118185e-01  8.53612488e-02
  1.26112159e-01 -5.41209459e-03 -2.71583757e-02  5.01808941e-03  2.42988291e-02
 -1.15474654e-03 -1.11039919e-02 -1.07828861e-02  8.65508751e-04  2.83778039e-02
 -4.72433437e-03 -6.70984986e-03  4.23980478e-01  3.72355190e-01 -7.30483304e-02
  9.02501723e-02  9.57826052e-03 -3.11560052e-02 -1.90162943e-03  6.76204962e-03
 -6.35241313e-03 -3.35781136e-03 -3.26816806e-04  3.97453396e-03 -1.77424902e-03
  1.71686015e-01  4.97872778e-03 -1.88841290e-02 -2.98212427e-02  6.75516805e-03
  2.01298616e-05 -3.96324512e-03  5.36354527e-05  1.04872774e-04 -1.61020431e-04
  7.55190181e-03  4.58894791e-03 -1.14441406e-03 -6.38692349e-04 -9.07170694e-04
  3.42404598e-02  5.45379540e-03  8.25759735e-03  4.51615180e-03 -1.50282611e-03
  5.09724027e-03  1.93034733e-03  4.43996140e-04 -2.28771363e-03  1.00586779e-05
  1.64010442e-03 -1.09719974e-03 -3.05630511e-04 -4.47510759e-04 -8.86548355e-05
  1.47687701e-02 -1.92447888e-01 -1.04516781e-01  8.30713428e-02  2.92061508e-02
  1.38683267e-02  8.66615821e-03 -2.86675554e-03  8.28798802e-03  4.81435503e-03
 -2.30241053e-03 -3.31892730e-03 -7.81926839e-03 -6.00683814e-03  1.93665205e-02
 -2.78055004e-01 -1.78061053e-01 -3.81076029e-02  4.00848138e-02 -1.88132372e-02
 -1.87546260e-02  2.06567289e-02 -1.37800849e-02  1.04751012e-02 -8.43549567e-04
  1.27789278e-03 -1.54838112e-03 -1.09818261e-02  1.81672778e-02 -2.40784613e-01
 -1.42342885e-01 -5.44452959e-02 -1.56835143e-02  1.52008249e-02 -1.93973324e-02
 -1.19511796e-02  9.61276445e-03  8.65596993e-03  1.70460797e-03  2.58704472e-03
  9.46390773e-03 -5.32731790e-03  5.44393627e-03 -1.23969570e-01 -6.65956941e-02
  6.07226245e-02 -8.54027130e-02 -1.00739740e-02  2.34243187e-02 -1.24526374e-02
 -6.72418120e-03  3.35634175e-03 -1.65269298e-03 -5.32422299e-04  1.21022246e-02
  4.10289407e-03  1.09423758e-03  8.80887339e-02  8.11641459e-02  2.67528541e-02
  2.27829995e-03 -7.22975487e-03  1.63059433e-02 -7.88228602e-03 -3.31635748e-03
  7.89646116e-04  4.05646926e-04 -6.92830126e-04 -1.05962342e-03  2.91331150e-03
  3.37350854e-02  3.71634687e-03 -1.96590103e-03 -9.16399192e-03  2.51812937e-04
 -5.98872475e-02 -5.51675969e-04  5.86891928e-03  8.83467188e-03 -2.17202213e-03
 -6.95087076e-02 -4.67311476e-03  8.17449264e-03 -5.58065810e-03  5.84104382e-03
 -3.28076825e-02  1.13397482e-03 -4.85086930e-04 -5.80031399e-03  2.11161030e-04
 -8.13533281e-02 -8.63070625e-03 -1.30500487e-02 -9.41610853e-04  2.05917473e-03
 -9.55547537e-02 -1.22172155e-02 -8.50684712e-03  1.07886070e-02 -6.38852211e-03
  1.62617802e-02 -2.26951336e-01 -1.26591948e-01  5.41604602e-02  9.21633242e-03
  1.37508711e-02  2.55702339e-03  1.02632281e-03  2.83268611e-03  3.09613978e-03
 -2.57906188e-03 -2.24396645e-03 -5.45558090e-03  6.27385684e-05  8.84054453e-03
 -1.33990764e-01 -1.01165869e-01 -1.09521334e-01 -7.66038172e-02 -6.61520226e-03
 -4.77677966e-02 -1.26807008e-02 -6.55955433e-03  2.36181845e-03 -4.14752238e-03
 -2.57129320e-03 -1.44987496e-02  4.02737752e-04 -1.33603787e-02  1.98797376e-01
  1.29862628e-01  9.97824698e-03 -1.19536805e-01 -4.51718561e-03  1.87887959e-02
 -3.34489145e-02 -2.58451320e-04 -3.38001070e-03  1.77360311e-04  1.99046222e-03
 -6.82232217e-03 -1.20955626e-02 -9.96160206e-03  2.51882116e-01  1.40352330e-01
 -7.26550193e-02  5.93126475e-02  1.11647597e-02 -2.25962988e-02  9.62451688e-03
  2.65991486e-03 -5.33481727e-03 -3.21962724e-04  1.34623370e-03 -5.31292225e-03
 -1.09967413e-02 -1.96999001e-03 -8.77730215e-02 -7.74425382e-02 -1.09633576e-01
 -4.52068307e-02  2.54409970e-02 -5.03088280e-02 -3.24359920e-03  1.01617514e-02
 -1.51406676e-03 -1.44719974e-03  1.32072049e-03  5.99099915e-03 -5.05911131e-03
 -1.08782270e-01 -2.04639096e-02  4.93547615e-03  1.15974191e-02 -3.19953575e-03
 -9.59213326e-02 -9.62978336e-03  6.07042903e-03  1.26015234e-02 -3.51516339e-03
 -9.56161735e-02 -1.23140048e-02  9.11794539e-03 -6.70783475e-03  7.85350835e-03
  1.08368843e-01  9.47520933e-03  5.23167436e-03  1.39535860e-02 -7.77664606e-04
  9.00484027e-02  1.38079101e-02  1.22859542e-02 -3.05270752e-03 -2.22900016e-03
 -5.75664711e-02 -1.17576964e-02 -6.74845853e-03  3.45470446e-03 -3.60056872e-03
  1.04549028e-02 -1.89347006e-01 -1.23060057e-01 -2.23631166e-02 -3.04446700e-02
  2.10381059e-04 -2.13494211e-02  4.57066177e-03 -8.46870782e-03 -1.53863362e-03
 -3.12260257e-04  4.89332822e-04  4.93061767e-04  2.29090707e-03 -2.68784644e-03
  8.41059243e-02  4.13016447e-02 -1.47156738e-01 -9.48690328e-02 -8.90877676e-03
 -4.92004675e-02 -4.04057526e-02 -8.99285010e-04 -9.71630780e-04 -4.62067060e-03
 -2.60964210e-03 -9.53854977e-03  1.46714503e-03 -6.01293858e-03  1.58610614e-01
  9.26341977e-02 -1.75173148e-02  1.18220594e-01 -1.31697804e-02  5.19456850e-03
  4.37734434e-02 -5.21492931e-03 -8.13290451e-04 -1.08882277e-03 -4.06723931e-03
 -2.20431230e-03  7.44546252e-03  3.10863859e-03 -2.07668624e-01 -1.26500132e-01
 -4.90961775e-02  1.44229814e-01  4.61228761e-03 -1.96171466e-02  3.51698251e-02
  9.29027505e-04  1.96313074e-03  2.28494373e-03 -2.93154744e-03 -8.89365292e-03
  9.55268811e-03  5.22283342e-04  5.37053824e-02  5.22559238e-02  2.36885059e-01
  1.41463042e-01 -6.15320986e-02  1.03153299e-01  4.33719883e-02 -2.56233561e-02
  1.25384309e-03  2.83512962e-03 -1.64082160e-03 -1.19626623e-02  3.81863432e-03
  1.90207083e-01  3.82916531e-02 -8.23783308e-03 -2.34510113e-02  2.95745449e-03
 -1.23026025e-01 -2.65798848e-02  5.09457257e-03  1.26407420e-02 -4.30704648e-03
 -9.23095854e-02 -6.13681903e-03  6.46303467e-03 -9.39964173e-03  5.84154438e-03
 -1.63307452e-01 -3.06879473e-02 -9.42785938e-03 -1.41142425e-02  1.23881700e-03
  9.40080636e-02  2.02186115e-02  1.05559357e-02  2.65615712e-03 -2.10483117e-03
  5.65396269e-02  1.12009853e-02  4.86206419e-04 -6.34738426e-03  2.36092584e-03
  6.74394920e-03 -1.38952020e-01 -8.47838570e-02 -1.40486961e-01  2.23593136e-02
 -4.26165547e-02 -5.59972681e-02  1.29193515e-02 -1.45093301e-02 -3.08994040e-03
  3.43300357e-03 -2.19912533e-05  1.08932760e-02  2.93879874e-03 -4.30370181e-03
  2.12290736e-01  1.22076065e-01 -1.05509308e-01  5.08875536e-02 -4.10184256e-02
 -4.44657686e-02  7.52024211e-03 -1.19430068e-02  4.18327685e-03 -2.59581646e-03
 -6.37421648e-04 -2.18261261e-03 -1.99902612e-04  1.92640029e-03 -7.71212393e-02
 -2.07350111e-02 -4.82473226e-03  1.85715843e-01 -2.05061115e-02  1.57185744e-03
  4.21607963e-02 -9.09457882e-03 -1.40400079e-03 -1.36817391e-03 -4.79250143e-03
 -3.66702557e-03  6.13867642e-03  2.67714433e-03 -1.46861250e-02 -1.73063912e-02
  1.58378148e-01 -1.74498242e-01 -3.55623673e-02  4.74953896e-02 -6.26990857e-02
 -1.05423180e-02 -2.25840879e-03 -2.66197124e-03  1.14340214e-03  1.02143711e-02
 -9.91811493e-03  1.27202299e-03  3.88635496e-02  6.02078243e-02 -1.96790074e-01
 -1.75762061e-01  4.55026231e-02 -7.59103593e-02 -7.11130211e-02  1.50110449e-02
  1.02659434e-03 -1.34542442e-03  9.26061544e-04  1.06664107e-02 -1.69664090e-03
 -1.87851786e-01 -4.75058756e-02  5.97146608e-03  1.25291688e-02 -5.44479127e-03
 -9.56794197e-02 -2.31084022e-02  3.11528374e-04  1.02512105e-02 -4.09374184e-03
 -1.68528526e-01 -3.63160707e-02  7.31253212e-03 -7.07732299e-03  1.01388570e-02
  2.92842149e-02  3.55632856e-03  3.51844397e-03  3.07418038e-04 -7.50775589e-04
 -4.25135713e-02 -9.78845671e-03 -5.31202710e-03  3.89832116e-03  4.74747412e-04
  1.87097613e-01  3.96808243e-02  9.31312689e-03 -1.30142998e-02  8.52535309e-03
 -7.46441450e-04  3.62238478e-02  4.17166757e-02  6.48783306e-02  1.43096037e-01
 -2.84337784e-02  1.18594178e-02  5.78782022e-02 -1.17996280e-02  2.17645506e-03
 -1.39634652e-03 -2.33306397e-03 -5.04885547e-04 -3.91649900e-03 -3.50816423e-04
 -3.00136148e-02 -1.56994994e-02 -9.03729094e-02  1.49575892e-01 -4.93848101e-02
 -5.34315254e-02  4.61994385e-02 -1.17331524e-02  9.59078455e-04 -1.75703623e-03
 -8.73296869e-04  6.96605648e-03  8.50570077e-03 -4.18379918e-03  3.06565491e-02