[Molden Format]
[Atoms] (AU)
C    1    6           1.9641549371         2.6249429769        -0.2004511840
C    2    6          -0.8580389894         2.4005600715        -0.1440561817
C    3    6          -2.1029549017         0.1868727918         0.1476384471
C    4    6          -0.8609642665        -2.3065127762         0.0756251229
O    5    8           1.4098279289        -2.7016933429         0.1331596678
H    6    1           2.7931890133         1.0116401687        -1.2098376602
H    7    1           2.6317146560         4.4348513794        -0.9784441922
H    8    1           2.6840565926         2.4467101126         1.7552894245
H    9    1          -2.2138557282        -3.9159678564        -0.1604579273
H   10    1          -4.1668400955         0.1671655183         0.2801060186
H   11    1          -1.9827120819         4.1338209178        -0.3563671197
[GTO]
  1 0
 s    8  1.00
     6665.0000000000         0.0006920000
     1000.0000000000         0.0053290000
      228.0000000000         0.0270770000
       64.7100000000         0.1017180000
       21.0600000000         0.2747400000
        7.4950000000         0.4485640000
        2.7970000000         0.2850740000
        0.5215000000         0.0152040000
 s    8  1.00
     6665.0000000000        -0.0001460000
     1000.0000000000        -0.0011540000
      228.0000000000        -0.0057250000
       64.7100000000        -0.0233120000
       21.0600000000        -0.0639550000
        7.4950000000        -0.1499810000
        2.7970000000        -0.1272620000
        0.5215000000         0.5445290000
 s    1  1.00
        0.1596000000         1.0000000000
 p    3  1.00
        9.4390000000         0.0381090000
        2.0020000000         0.2094800000
        0.5456000000         0.5085570000
 p    1  1.00
        0.1517000000         1.0000000000
 d    1  1.00
        0.5500000000         1.0000000000

  2 0
 s    8  1.00
     6665.0000000000         0.0006920000
     1000.0000000000         0.0053290000
      228.0000000000         0.0270770000
       64.7100000000         0.1017180000
       21.0600000000         0.2747400000
        7.4950000000         0.4485640000
        2.7970000000         0.2850740000
        0.5215000000         0.0152040000
 s    8  1.00
     6665.0000000000        -0.0001460000
     1000.0000000000        -0.0011540000
      228.0000000000        -0.0057250000
       64.7100000000        -0.0233120000
       21.0600000000        -0.0639550000
        7.4950000000        -0.1499810000
        2.7970000000        -0.1272620000
        0.5215000000         0.5445290000
 s    1  1.00
        0.1596000000         1.0000000000
 p    3  1.00
        9.4390000000         0.0381090000
        2.0020000000         0.2094800000
        0.5456000000         0.5085570000
 p    1  1.00
        0.1517000000         1.0000000000
 d    1  1.00
        0.5500000000         1.0000000000

  3 0
 s    8  1.00
     6665.0000000000         0.0006920000
     1000.0000000000         0.0053290000
      228.0000000000         0.0270770000
       64.7100000000         0.1017180000
       21.0600000000         0.2747400000
        7.4950000000         0.4485640000
        2.7970000000         0.2850740000
        0.5215000000         0.0152040000
 s    8  1.00
     6665.0000000000        -0.0001460000
     1000.0000000000        -0.0011540000
      228.0000000000        -0.0057250000
       64.7100000000        -0.0233120000
       21.0600000000        -0.0639550000
        7.4950000000        -0.1499810000
        2.7970000000        -0.1272620000
        0.5215000000         0.5445290000
 s    1  1.00
        0.1596000000         1.0000000000
 p    3  1.00
        9.4390000000         0.0381090000
        2.0020000000         0.2094800000
        0.5456000000         0.5085570000
 p    1  1.00
        0.1517000000         1.0000000000
 d    1  1.00
        0.5500000000         1.0000000000

  4 0
 s    8  1.00
     6665.0000000000         0.0006920000
     1000.0000000000         0.0053290000
      228.0000000000         0.0270770000
       64.7100000000         0.1017180000
       21.0600000000         0.2747400000
        7.4950000000         0.4485640000
        2.7970000000         0.2850740000
        0.5215000000         0.0152040000
 s    8  1.00
     6665.0000000000        -0.0001460000
     1000.0000000000        -0.0011540000
      228.0000000000        -0.0057250000
       64.7100000000        -0.0233120000
       21.0600000000        -0.0639550000
        7.4950000000        -0.1499810000
        2.7970000000        -0.1272620000
        0.5215000000         0.5445290000
 s    1  1.00
        0.1596000000         1.0000000000
 p    3  1.00
        9.4390000000         0.0381090000
        2.0020000000         0.2094800000
        0.5456000000         0.5085570000
 p    1  1.00
        0.1517000000         1.0000000000
 d    1  1.00
        0.5500000000         1.0000000000

  5 0
 s    8  1.00
    11720.0000000000         0.0007100000
     1759.0000000000         0.0054700000
      400.8000000000         0.0278370000
      113.7000000000         0.1048000000
       37.0300000000         0.2830620000
       13.2700000000         0.4487190000
        5.0250000000         0.2709520000
        1.0130000000         0.0154580000
 s    8  1.00
    11720.0000000000        -0.0001600000
     1759.0000000000        -0.0012630000
      400.8000000000        -0.0062670000
      113.7000000000        -0.0257160000
       37.0300000000        -0.0709240000
       13.2700000000        -0.1654110000
        5.0250000000        -0.1169550000
        1.0130000000         0.5573680000
 s    1  1.00
        0.3023000000         1.0000000000
 p    3  1.00
       17.7000000000         0.0430180000
        3.8540000000         0.2289130000
        1.0460000000         0.5087280000
 p    1  1.00
        0.2753000000         1.0000000000
 d    1  1.00
        1.1850000000         1.0000000000

  6 0
 s    3  1.00
       13.0100000000         0.0196850000
        1.9620000000         0.1379770000
        0.4446000000         0.4781480000
 s    1  1.00
        0.1220000000         1.0000000000
 p    1  1.00
        0.7270000000         1.0000000000

  7 0
 s    3  1.00
       13.0100000000         0.0196850000
        1.9620000000         0.1379770000
        0.4446000000         0.4781480000
 s    1  1.00
        0.1220000000         1.0000000000
 p    1  1.00
        0.7270000000         1.0000000000

  8 0
 s    3  1.00
       13.0100000000         0.0196850000
        1.9620000000         0.1379770000
        0.4446000000         0.4781480000
 s    1  1.00
        0.1220000000         1.0000000000
 p    1  1.00
        0.7270000000         1.0000000000

  9 0
 s    3  1.00
       13.0100000000         0.0196850000
        1.9620000000         0.1379770000
        0.4446000000         0.4781480000
 s    1  1.00
        0.1220000000         1.0000000000
 p    1  1.00
        0.7270000000         1.0000000000

  10 0
 s    3  1.00
       13.0100000000         0.0196850000
        1.9620000000         0.1379770000
        0.4446000000         0.4781480000
 s    1  1.00
        0.1220000000         1.0000000000
 p    1  1.00
        0.7270000000         1.0000000000

  11 0
 s    3  1.00
       13.0100000000         0.0196850000
        1.9620000000         0.1379770000
        0.4446000000         0.4781480000
 s    1  1.00
        0.1220000000         1.0000000000
 p    1  1.00
        0.7270000000         1.0000000000

[5D7F]
[9G]

[MO]
 Sym= A
 Ene=        -1.9135510608e+01
 Spin= Alpha
 Occup=         2.0000000000e+00
  1        -6.8275793766e-05
  2        -1.4327788294e-04
  3         5.6647432168e-05
  4         6.4641773431e-05
  5         4.3977412352e-05
  6         1.0338380940e-05
  7        -2.6404925360e-05
  8        -1.4070255281e-04
  9         1.7130580211e-04
 10         7.2390025964e-05
 11         3.2628929219e-05
 12         3.8132282765e-05
 13         7.4118182121e-05
 14        -9.9542931576e-05
 15        -2.0478865675e-04
 16        -3.6540704572e-04
 17         5.3491091457e-03
 18        -2.2227909547e-05
 19        -1.7375162216e-05
 20        -5.4479948321e-05
 21        -9.3214113789e-04
 22        -2.2199604978e-03
 23         4.5476168828e-04
 24        -3.0856505776e-05
 25         2.5797073294e-05
 26        -1.8190264794e-05
 27        -5.1431106054e-05
 28        -5.2055021353e-05
 29         2.0743822934e-04
 30         3.1894741276e-04
 31        -3.9148184522e-03
 32         2.7789895806e-05
 33         2.7526847134e-04
 34        -1.3962868975e-05
 35        -4.5136312793e-03
 36        -3.5340187453e-03
 37         2.7732398781e-04
 38         1.3175867304e-04
 39         4.3972869692e-05
 40         8.3179325137e-05
 41        -3.9126571786e-04
 42         4.9794883289e-04
 43         4.5441709768e-04
 44         5.9602567622e-04
 45         5.3556692522e-03
 46        -9.9302520344e-05
 47        -1.7571273021e-04
 48        -3.0431713548e-05
 49         6.6399425495e-03
 50         6.1232950852e-04
 51         1.5115768512e-04
 52        -1.1639280662e-05
 53         4.1781087566e-06
 54         8.1454738477e-05
 55        -1.1577237438e-03
 56         5.0261261506e-04
 57         1.0041705023e+00
 58         9.4733625898e-03
 59        -1.5116471432e-02
 60        -1.8394881217e-03
 61         3.4962502033e-04
 62        -6.3829603407e-05
 63         3.5126744351e-03
 64        -8.2965117685e-04
 65         1.0646652194e-04
 66        -1.9383942262e-05
 67         2.5282828001e-06
 68        -3.1558674483e-06
 69         6.7493981544e-05
 70         1.0402414889e-05
 71        -1.1439276734e-04
 72        -1.1487795048e-04
 73         3.5517036320e-05
 74        -9.5148139722e-06
 75         2.3926211867e-05
 76         1.2156006968e-04
 77         3.5581942692e-04
 78        -7.3518570624e-05
 79        -7.0267696663e-05
 80         4.1788465739e-05
 81        -1.0204370006e-04
 82        -2.5335492385e-04
 83         6.7261938173e-05
 84         6.2839651724e-05
 85         5.7795661196e-05
 86        -1.3017551654e-04
 87         9.2798265350e-04
 88        -7.6574528434e-04
 89         1.1951672180e-04
 90        -5.3517885632e-06
 91        -2.7549848486e-04
 92        -1.3292154699e-03
 93         1.8624391447e-04
 94         2.5325025355e-04
 95         6.5492218432e-07
 96        -1.7930013450e-04
 97         2.3363689316e-04
 98         4.2559457773e-05
 99         8.2805182710e-05
100        -2.6628916275e-05
 Sym= A
 Ene=        -1.0273194599e+01
 Spin= Alpha
 Occup=         2.0000000000e+00
  1        -3.6775018271e-04
  2        -4.8644366130e-04
  3         9.0609185904e-04
  4         2.8652388581e-04
  5         7.0335735604e-05
  6        -4.1474181468e-07
  7        -6.2593556780e-04
  8         5.5239570263e-05
  9         2.7561760936e-05
 10        -1.5973316746e-05
 11        -6.1868014014e-05
 12         6.2333112172e-06
 13        -1.1811517104e-04
 14        -3.6088383795e-05
 15        -4.2660301543e-04
 16        -6.2347425800e-04
 17         6.4401800617e-03
 18        -2.7106857246e-04
 19        -2.7333832968e-05
 20         4.6406375667e-05
 21        -2.1343559219e-03
 22        -3.7782636105e-03
 23         5.6530767218e-04
 24        -3.9635824126e-04
 25        -1.7921857301e-04
 26        -9.0937386273e-05
 27         2.9516898783e-04
 28         3.6582368016e-04
 29         1.6231662182e-03
 30        -2.4921240079e-04
 31        -1.8612689470e-03
 32        -3.4632007899e-04
 33         7.5359622606e-04
 34         3.8268886893e-05
 35        -2.5431807431e-03
 36        -5.9916205598e-03
 37         3.9140896010e-04
 38         1.0379283889e-03
 39        -5.8049443764e-06
 40        -6.9861090582e-06
 41         1.1229982128e-03
 42         8.5954355126e-04
 43         1.0059378728e+00
 44         1.5275676699e-02
 45        -1.0750185868e-02
 46         7.3030967339e-04
 47        -4.8318001962e-04
 48        -8.6636557831e-05
 49         5.4497666223e-03
 50        -2.0621830614e-03
 51         4.3773828689e-05
 52        -1.6346355546e-03
 53         2.2625373336e-04
 54         1.7702638449e-04
 55         8.7423479277e-04
 56         2.1089171620e-05
 57         3.6601766327e-04
 58         9.0880433824e-04
 59        -5.9575495018e-03
 60         7.4736034563e-04
 61        -2.1105421300e-04
 62         5.7797664916e-06
 63         3.4101149012e-03
 64        -2.0535888711e-04
 65         1.0438109764e-04
 66         5.6803011207e-04
 67        -3.3556116471e-05
 68        -1.5725439648e-05
 69        -7.2581399478e-04
 70         2.5677903062e-04
 71        -1.1114623396e-04
 72        -6.0628674103e-05
 73         3.5477768575e-05
 74         1.0516702732e-05
 75        -1.4629033577e-05
 76        -5.1988558654e-05
 77         3.5810982117e-04
 78        -5.3681185313e-05
 79        -2.6323220150e-05
 80         6.8391965877e-06
 81        -6.2651053844e-05
 82        -1.5623536358e-05
 83         1.0189899723e-04
 84         5.0048943725e-05
 85        -4.2279419125e-05
 86        -1.6681744831e-03
 87         2.4809170015e-03
 88        -1.4322769148e-03
 89        -1.4588403083e-03
 90        -2.2129497729e-04
 91        -5.2184716548e-04
 92        -4.8649714802e-04
 93         4.6071110433e-05
 94         2.9914610220e-04
 95        -2.8619231652e-05
 96        -2.5738877126e-05
 97         6.0714358516e-04
 98         2.2756821994e-04
 99         1.0063250388e-04
100        -3.0498653307e-05
 Sym= A
 Ene=        -1.0223867855e+01
 Spin= Alpha
 Occup=         2.0000000000e+00
  1         3.0235036858e-03
  2        -3.9812817231e-04
  3         4.4086644033e-03
  4         7.0027472463e-04
  5         4.6016096365e-05
  6         6.0506441161e-05
  7        -2.4338785879e-03
  8        -8.5231330394e-04
  9        -3.6306721571e-04
 10         7.8254253527e-04
 11         8.2130434642e-05
 12         3.1728561588e-05
 13        -9.7879677490e-04
 14        -3.6183997401e-05
 15         1.0063244935e+00
 16         1.6112718587e-02
 17        -2.0209887576e-02
 18        -5.1536301782e-04
 19         1.9538908222e-04
 20        -1.4229313648e-05
 21        -2.2926614066e-03
 22         3.9161489714e-03
 23        -4.1293830918e-04
 24        -1.0307807981e-03
 25         1.0136166605e-04
 26        -2.9739689275e-04
 27        -5.7099883280e-04
 28        -4.1482281938e-04
 29         1.2274599768e-02
 30        -1.2421140933e-03
 31         4.9223913828e-03
 32        -7.1998286047e-04
 33        -1.0722038084e-03
 34         1.5354600407e-04
 35         2.7333260511e-03
 36         2.6050505465e-03
 37        -2.9232225663e-04
 38         8.6554114968e-04
 39         1.2948553194e-04
 40         2.8081049604e-04
 41         5.1182969775e-04
 42        -9.6854007765e-04
 43        -2.7062628984e-04
 44        -5.4611196417e-04
 45         1.0681805634e-03
 46        -1.9784971556e-05
 47        -2.1221962426e-04
 48         3.6536025206e-05
 49        -4.2814617504e-04
 50         1.0040323198e-03
 51        -5.1891825067e-05
 52        -3.2370208489e-04
 53        -8.8473102495e-05
 54        -1.1102616310e-05
 55         1.6927933086e-04
 56        -1.2479933020e-05
 57        -3.4472494017e-05
 58        -7.2930299275e-05
 59        -1.1582624100e-04
 60         1.2097795254e-04
 61         1.3380408488e-05
 62         1.6982829573e-05
 63        -1.1998125561e-04
 64        -3.2758095564e-04
 65         2.5053635662e-05
 66         1.1687028283e-05
 67        -2.4555625629e-05
 68         3.5715568850e-06
 69         3.1873968903e-06
 70         2.3630089456e-05
 71        -4.3752827260e-04
 72         3.7814710526e-04
 73        -1.0221028011e-04
 74         9.2447456058e-08
 75         5.9824228098e-05
 76        -2.8708859380e-04
 77         2.1185531530e-04
 78         1.3598857455e-04
 79         2.9362832593e-05
 80         6.9944646159e-05
 81        -4.7592915417e-04
 82         1.1625928707e-03
 83        -1.8263298344e-04
 84         5.6978455271e-06
 85         2.7082659985e-05
 86        -8.2137338390e-05
 87         3.3213413485e-04
 88         4.4544634794e-05
 89        -6.9663316736e-05
 90        -1.4776972253e-05
 91         1.5044158544e-04
 92         9.4892006039e-04
 93         1.5206927910e-04
 94        -2.5785893277e-04
 95        -1.2497697640e-06
 96        -2.4358239518e-03
 97         1.0885857227e-03
 98        -1.2385314699e-03
 99         1.7953379026e-03
100        -2.1670342223e-04
 Sym= A
 Ene=        -1.0197403044e+01
 Spin= Alpha
 Occup=         2.0000000000e+00
  1         1.2502764539e-03
  2         4.7122711437e-04
  3        -2.0637366092e-04
  4        -1.1195430606e-04
  5        -1.3325600014e-04
  6         1.0215164776e-04
  7         8.5260846461e-04
  8         5.8132426705e-05
  9        -2.7243164559e-04
 10         3.0085800698e-04
 11         2.8569157387e-05
 12         5.2092066000e-05
 13        -4.3098892332e-05
 14         1.2809701906e-04
 15         1.3725205730e-02
 16         1.7149561464e-03
 17        -6.2461331008e-03
 18        -5.8221703184e-04
 19        -1.2000626558e-03
 20         1.6218416117e-04
 21         6.4976184913e-04
 22         3.7685782609e-03
 23        -1.9136114025e-04
 24        -9.1106016907e-04
 25        -1.7429345997e-04
 26        -2.9346356769e-04
 27        -5.9587260006e-04
 28         9.3109692639e-04
 29        -1.0064903009e+00
 30        -1.6546057697e-02
 31         2.1141915832e-02
 32         3.3531357155e-04
 33        -2.5311255270e-04
 34         1.3688180601e-04
 35         5.3102975455e-03
 36         2.9649010026e-04
 37        -8.3611649915e-04
 38         1.0826970050e-03
 39         1.8064384044e-04
 40         1.0958506525e-04
 41        -4.3416419702e-04
 42        -4.5210873443e-04
 43         1.9395518052e-03
 44         7.8214070468e-04
 45        -5.7046778255e-03
 46        -2.6392915576e-04
 47         7.1612493824e-04
 48         4.7768022465e-05
 49        -3.8002540607e-04
 50        -3.4261221740e-03
 51         4.8723649775e-05
 52        -6.9732406174e-04
 53        -1.4875169298e-04
 54         5.1996464018e-05
 55        -5.6982249165e-04
 56        -1.2166892449e-03
 57        -3.9036039848e-05
 58        -6.7563925606e-05
 59         7.8384235446e-04
 60        -2.0660078363e-05
 61         6.5458462026e-05
 62         3.8443322057e-05
 63         1.2211794370e-04
 64         6.2765750702e-04
 65        -5.1589038511e-05
 66         1.2798875189e-04
 67        -4.0098102310e-05
 68        -1.2374293740e-05
 69        -7.7251955872e-05
 70        -2.2057427115e-04
 71         1.3599700250e-04
 72        -3.3196182602e-04
 73        -2.0224862007e-05
 74        -7.5788974527e-05
 75         5.4181669741e-05
 76        -3.7324775544e-05
 77        -3.4390511059e-04
 78        -4.3551146868e-05
 79         4.9421543024e-05
 80         2.8167649990e-05
 81         6.6854861215e-05
 82        -1.8021470383e-04
 83        -4.5338795494e-05
 84        -8.0324177027e-05
 85         1.3449914197e-04
 86         2.9349914232e-04
 87        -9.6229658729e-04
 88        -6.4207165450e-05
 89         1.9419421058e-04
 90        -3.2503976754e-05
 91         2.4870133029e-03
 92        -8.3048932778e-04
 93         2.1729736465e-03
 94        -1.0173007636e-04
 95        -8.2989312996e-05
 96        -1.0569883485e-04
 97        -8.6746079398e-04
 98        -2.8582392531e-04
 99         3.3397496897e-05
100        -3.6324619866e-05
 Sym= A
 Ene=        -1.0189831168e+01
 Spin= Alpha
 Occup=         2.0000000000e+00
  1         1.0069962947e+00
  2         1.7446731433e-02
  3        -1.9238483021e-02
  4         4.2293001455e-04
  5         1.5746174992e-05
  6         1.7030174958e-04
  7         2.8813731138e-03
  8         4.1884333801e-04
  9        -5.2404152561e-04
 10         1.9572015593e-04
 11        -1.4755258602e-05
 12        -1.1297247603e-04
 13        -6.5207780609e-04
 14         3.0345613785e-05
 15        -3.2088297334e-03
 16        -2.5284332098e-04
 17         1.6433026927e-03
 18        -4.7657118186e-04
 19         5.3746414257e-05
 20         1.9928879067e-06
 21         4.1404514164e-03
 22         2.3440778922e-03
 23        -2.8453763123e-04
 24         6.2763161591e-04
 25         1.0112637156e-04
 26        -1.4324222670e-05
 27        -1.3156682228e-03
 28        -4.0319350993e-04
 29         5.7988662376e-04
 30        -6.5639476650e-04
 31         3.6164679638e-03
 32        -2.3638669742e-04
 33         3.4923610784e-05
 34        -2.4142051166e-06
 35         1.1774182628e-03
 36         2.5614164448e-03
 37        -3.5135644516e-04
 38        -3.6796398676e-04
 39         2.4675559500e-05
 40        -1.0029436913e-04
 41        -4.1794493045e-04
 42        -2.1225895088e-04
 43        -1.2546981141e-04
 44        -5.0347315364e-04
 45         3.9171655684e-04
 46        -7.0577593104e-05
 47        -2.7070504279e-04
 48        -3.6084995103e-05
 49        -1.8458890414e-04
 50         4.8586228407e-04
 51         1.2083699877e-04
 52        -3.7192085244e-05
 53        -2.8396877723e-05
 54        -2.6072414750e-05
 55         3.1808984518e-05
 56         4.4070835402e-05
 57        -1.0197646636e-04
 58        -1.9848078176e-04
 59         3.2561054054e-04
 60         2.8491215318e-05
 61        -1.1557441128e-04
 62        -2.0814775771e-05
 63        -2.2964197885e-04
 64         2.5628146009e-04
 65         6.1263191278e-05
 66        -5.6598882391e-05
 67         5.9788607371e-07
 68         5.5756641448e-06
 69        -2.1886109244e-07
 70        -2.3947397501e-06
 71        -1.1469887795e-03
 72         2.0606792475e-03
 73         6.1901977129e-04
 74        -1.4881716051e-03
 75        -9.4226348733e-04
 76        -1.4690448495e-03
 77         1.7622445974e-03
 78         5.8756409607e-04
 79         1.7959933526e-03
 80        -7.6954378708e-04
 81        -1.0374330438e-03
 82         2.3674711577e-03
 83         4.7937580094e-04
 84        -1.9322410958e-04
 85         1.8161037928e-03
 86         2.2055377144e-05
 87         3.8651842999e-04
 88         1.0212073377e-05
 89         6.3088241896e-05
 90        -1.4139711817e-05
 91         2.8505289837e-05
 92         4.8015778229e-04
 93         6.0613789765e-05
 94        -1.9057777745e-04
 95         2.5622286720e-05
 96        -3.9978108054e-04
 97         1.3379417750e-04
 98        -3.8941607317e-04
 99        -1.6047219664e-04
100         2.5175797687e-05
 Sym= A
 Ene=        -1.0397978691e+00
 Spin= Alpha
 Occup=         2.0000000000e+00
  1        -5.0225480430e-04
  2         7.8998053776e-03
  3         5.1286938261e-03
  4        -3.2957640303e-03
  5        -3.8380670719e-03
  6        -4.5631182009e-05
  7        -2.8316030204e-03
  8        -1.4727485396e-03
  9         8.3205074301e-04
 10        -7.1406690594e-04
 11        -1.2713656842e-04
 12        -1.6861815880e-04
 13         9.7768879380e-05
 14         8.7668030286e-04
 15         4.9652802694e-04
 16         1.6827106116e-02
 17        -1.2016399419e-02
 18         3.7629907378e-04
 19        -1.0644795342e-02
 20         1.0521280196e-03
 21        -1.9356115228e-03
 22         9.3164535421e-03
 23        -1.1545289970e-03
 24        -5.0000595673e-04
 25        -1.9358025258e-04
 26        -4.4175124544e-04
 27        -1.5166146623e-03
 28         7.1591379599e-04
 29        -3.6731273052e-03
 30         3.6255631440e-02
 31         3.1722239110e-02
 32         2.1200863201e-02
 33        -1.9541443908e-02
 34        -8.5065586199e-04
 35         1.9903906511e-02
 36         1.9399870263e-03
 37        -1.7526087515e-03
 38        -3.7465303535e-03
 39        -3.7554467961e-04
 40        -1.2604238670e-04
 41        -2.7346648141e-04
 42        -9.0695254155e-03
 43        -1.4705538625e-02
 44         2.2423515815e-01
 45         9.4510167908e-02
 46         1.8446648053e-01
 47        -2.3631854147e-02
 48         4.6544637596e-03
 49         1.2191514042e-02
 50        -2.6380435451e-03
 51         9.4466160316e-04
 52        -1.3821343824e-02
 53         7.4657163901e-04
 54        -1.4256520006e-03
 55         3.1397924550e-02
 56        -1.3346862413e-02
 57        -9.2130444871e-03
 58         4.0217403319e-01
 59         3.6097789372e-01
 60        -1.5518196113e-01
 61         3.0526676156e-02
 62        -4.5351067212e-03
 63        -3.1770412595e-02
 64         7.4645305379e-03
 65        -1.6144888051e-03
 66        -5.3825827488e-03
 67         4.1451077184e-04
 68        -7.2765490482e-04
 69         1.2124380333e-02
 70        -4.8828869915e-03
 71         7.3657741500e-03
 72         3.8694601933e-03
 73        -6.9179887318e-04
 74        -3.8904327299e-04
 75         6.8704906953e-04
 76         1.0887497349e-03
 77        -4.1081304093e-04
 78         3.0726135096e-05
 79        -4.4070637657e-05
 80        -7.2135319180e-05
 81         2.6730506905e-03
 82         8.1149206822e-04
 83        -3.2017272762e-04
 84        -3.4609859353e-04
 85        -5.4776848273e-04
 86         3.9560170124e-02
 87        -3.4988919828e-03
 88         1.0115618055e-02
 89         5.9383837133e-03
 90         1.0153172266e-03
 91         7.1235539878e-03
 92         6.1117123427e-03
 93         9.7463105755e-04
 94        -1.9186913504e-03
 95        -7.7246352512e-05
 96         1.8432286696e-03
 97        -3.0460545674e-03
 98        -1.8173934846e-04
 99        -8.2919527661e-04
100         1.2900050783e-04
 Sym= A
 Ene=        -8.1054433536e-01
 Spin= Alpha
 Occup=         2.0000000000e+00
  1         1.1101774684e-02
  2        -1.7965333749e-01
  3        -7.4982900305e-02
  4         6.6826537858e-02
  5         1.3692161395e-02
  6        -4.7177573127e-03
  7         2.5372288700e-03
  8        -8.9148874722e-03
  9         2.3048562727e-03
 10         5.7261997750e-03
 11         6.1257225883e-04
 12        -6.8905376340e-05
 13        -1.0018700043e-02
 14        -3.1303374765e-03
 15         1.9801563382e-02
 16        -2.8920096411e-01
 17        -2.0381248510e-01
 18        -3.8391735925e-03
 19         7.1111393189e-02
 20        -8.2407072580e-03
 21        -3.1334777155e-02
 22         2.5206402430e-02
 23        -3.3858377601e-03
 24         1.0028943510e-02
 25         1.2605176422e-03
 26         1.7651695336e-03
 27        -2.1670709330e-03
 28        -1.0024202929e-02
 29         1.7261110048e-02
 30        -2.5510342129e-01
 31        -1.3896990437e-01
 32        -5.8756784374e-02
 33        -5.6838377429e-02
 34         1.3714821317e-02
 35        -2.6000524516e-03
 36        -2.0852439207e-02
 37         3.5443510755e-03
 38         6.8807239607e-03
 39         1.4650563426e-03
 40         1.9631194247e-03
 41         8.8833300166e-03
 42        -8.5894713710e-03
 43         2.5982591027e-03
 44        -6.5090639689e-02
 45        -5.1421442593e-02
 46         7.3046766697e-02
 47        -8.0862690323e-02
 48         1.6617258738e-03
 49         2.3878157395e-02
 50        -2.2807054441e-02
 51        -8.2725912548e-04
 52         2.7213682265e-03
 53         4.4543525611e-04
 54        -2.2508457490e-04
 55         1.3465703039e-02
 56         3.2565217592e-03
 57        -3.5003760880e-04
 58         7.7431653901e-02
 59         7.4625271699e-02
 60        -1.2180960850e-02
 61        -1.6868270312e-02
 62         1.0338331536e-04
 63         1.3027234092e-03
 64        -7.3051724443e-03
 65         5.9502688305e-04
 66         1.7969615805e-04
 67         1.2643922426e-05
 68         4.8427224182e-05
 69         1.6988464969e-03
 70         1.6290175419e-03
 71        -6.7497160063e-02
 72        -2.3292406848e-03
 73         4.6923917440e-03
 74        -7.7254703268e-03
 75        -5.1630713190e-03
 76        -5.9344013729e-02
 77        -8.1241561179e-04
 78         4.6991461329e-03
 79         8.1526337811e-03
 80        -3.4528991986e-03
 81        -6.8017348320e-02
 82        -3.4305230892e-03
 83         4.3258019354e-03
 84        -5.1090755725e-05
 85         9.1439285978e-03
 86        -1.9287267534e-02
 87         1.1108786326e-04
 88         1.0630476163e-05
 89        -3.5704286636e-03
 90        -1.2938381799e-04
 91        -8.3552433219e-02
 92        -2.5910264960e-03
 93        -1.4206981535e-02
 94        -1.8665574286e-03
 95         1.1482061274e-03
 96        -9.8274587582e-02
 97        -1.3379453755e-02
 98        -6.9318779257e-03
 99         1.3655927961e-02
100        -1.5975496755e-03
 Sym= A
 Ene=        -7.1626383240e-01
 Spin= Alpha
 Occup=         2.0000000000e+00
  1         1.4269645773e-02
  2        -2.8425746643e-01
  3        -1.2254879253e-01
  4         1.9402596916e-02
  5        -7.7672547714e-03
  6        -4.4753185725e-03
  7        -1.5629073741e-02
  8        -7.5022529904e-03
  9         2.7600943993e-04
 10         1.5321494773e-03
 11        -4.8064926292e-05
 12        -1.5699875973e-04
 13        -3.0746472068e-03
 14         2.2827463201e-03
 15         5.4722684992e-03
 16        -5.3810547527e-02
 17        -8.7669074668e-02
 18        -1.3611489611e-01
 19        -8.9018610145e-02
 20         9.8515281109e-03
 21        -8.9310628482e-02
 22        -5.9602969278e-03
 23         1.8253030303e-03
 24         3.8640331349e-03
 25        -2.8978629178e-04
 26        -1.0317357658e-03
 27        -1.7559633435e-02
 28         4.1216234399e-03
 29        -1.3701305497e-02
 30         2.2605828798e-01
 31         1.6699472385e-01
 32        -6.8672167789e-03
 33        -6.2020441165e-02
 34        -3.7477433162e-03
 35         3.4945195375e-02
 36        -3.7777136372e-02
 37        -1.4254250829e-03
 38        -4.4586267428e-03
 39        -2.9965219194e-05
 40         3.6349136693e-04
 41        -9.6946977430e-03
 42        -6.0864156512e-03
 43        -3.1793748138e-03
 44         1.5913540927e-01
 45         6.9203755305e-02
 46        -1.1116222296e-01
 47         7.4584577643e-02
 48        -5.2985821531e-04
 49        -3.8829823638e-02
 50         8.2519990424e-03
 51        -1.3362553780e-03