
                                 *****************
                                 * O   R   C   A *
                                 *****************

                                            #,                                       
                                            ###                                      
                                            ####                                     
                                            #####                                    
                                            ######                                   
                                           ########,                                 
                                     ,,################,,,,,                         
                               ,,#################################,,                 
                          ,,##########################################,,             
                       ,#########################################, ''#####,          
                    ,#############################################,,   '####,        
                  ,##################################################,,,,####,       
                ,###########''''           ''''###############################       
              ,#####''   ,,,,##########,,,,          '''####'''          '####       
            ,##' ,,,,###########################,,,                        '##       
           ' ,,###''''                  '''############,,,                           
         ,,##''                                '''############,,,,        ,,,,,,###''
      ,#''                                            '''#######################'''  
     '                                                          ''''####''''         
             ,#######,   #######,   ,#######,      ##                                
            ,#'     '#,  ##    ##  ,#'     '#,    #''#        ,####,    ,#,          
            ##       ##  ##   ,#'  ##            #'  '#       #'       ,# #          
            ##       ##  #######   ##           ,######,      #####,      #          
            '#,     ,#'  ##    ##  '#,     ,#' ,#      #,     #,   #      #          
             '#######'   ##     ##  '#######'  #'      '#     '####' #    #          



                #########################################################
                #                        -***-                          #
                #          Department of theory and spectroscopy        #
                #                                                       #
                #                      Frank Neese                      #
                #                                                       #
                #     Directorship, Architecture, Infrastructure        #
                #                    SHARK, DRIVERS                     #
                #        Core code/Algorithms in most modules           #
                #                                                       #
                #        Max Planck Institute fuer Kohlenforschung      #
                #                Kaiser Wilhelm Platz 1                 #
                #                 D-45470 Muelheim/Ruhr                 #
                #                      Germany                          #
                #                                                       #
                #                  All rights reserved                  #
                #                        -***-                          #
                #########################################################


                         Program Version 6.1.0  -  RELEASE   -
                                (GIT: $679e74b$)
                          ($2025-06-10 18:02:51 +0200$)


 With contributions from (in alphabetic order):
[Max-Planck-Institut fuer Kohlenforschung]                               
  Daniel Aravena         : Magnetic Suceptibility                        
  Michael Atanasov       : Ab Initio Ligand Field Theory (pilot matlab implementation)
  Alexander A. Auer      : GIAO ZORA, VPT2 properties, NMR spectrum      
  Ute Becker             : All parallelization in ORCA, NUMFREQ, NUMCALC 
  Giovanni Bistoni       : ED, misc. LED, open-shell LED, HFLD           
  Dmytro Bykov           : pre 5.0 version of the SCF Hessian            
  Marcos Casanova-Páez   : Triplet and SCS-CIS(D). UHF-(DLPNO)-IP/EA/STEOM-CCSD. UHF-CVS-IP/STEOM-CCSD   
  Vijay G. Chilkuri      : MRCI spin determinant printing, contributions to CSF-ICE 
  Pauline Colinet        : FMM embedding                                 
  Dipayan Datta          : RHF DLPNO-CCSD density                        
  Achintya Kumar Dutta   : EOM-CC, STEOM-CC                              
  Nicolas Foglia         : Exact transition moments, OPA infrastructure, MCD improvements    
  Dmitry Ganyushin       : Spin-Orbit,Spin-Spin,Magnetic field MRCI      
  Miquel Garcia-Rates    : C-PCM and meta-GGA Hessian, CCSD/C-PCM, Gaussian charge scheme 
  Tiago L. C. Gouveia    : GS-ROHF, GS-ROCIS                             
  Yang Guo               : DLPNO-NEVPT2, F12-NEVPT2, CIM, IAO-localization        
  Andreas Hansen         : Spin unrestricted coupled pair/coupled cluster methods 
  Ingolf Harden          : AUTO-CI MPn and infrastructure                
  Benjamin Helmich-Paris : MC-RPA, TRAH-(SCF,CASSCF), AVAS, COSX integrals, SCF dyn. polar., MC-PDFT, srDFT 
  Lee Huntington         : MR-EOM, pCC                                   
  Robert Izsak           : Overlap fitted RIJCOSX, COSX-SCS-MP3, EOM     
  Riya Kayal             : Wick's Theorem for AUTO-CI, AUTO-CI UHF-CCSDT 
  Emily Kempfer          : AUTO-CI RHF CISDT and CCSDT, approximate NEVPT4
  Christian Kollmar      : KDIIS, OOCD, Brueckner-CCSD(T), CCSD density, CASPT2, CASPT2-K, improved NEVPT2 
  Axel Koslowski         : Symmetry handling                             
  Simone Kossmann        : meta-GGA functionals, TD-DFT gradient, OOMP2, (MP2 Hessian; deprecated post 5.0) 
  Lucas Lang             : DCDCAS, Hyperfine gauge corrections, ICE-SOC+SSC
  Marvin Lechner         : AUTO-CI (C++ implementation), FIC-MRCC        
  Spencer Leger          : CASSCF response                               
  Dagmar Lenk            : GEPOL surface, SMD, ORCA-2-JSON               
  Dimitrios Liakos       : Extrapolation schemes; Compound Job, Property file
  Dimitrios Manganas     : Further ROCIS development; embedding schemes. LFT, Crystal Embedding 
  Dimitrios Pantazis     : SARC Basis sets                               
  Anastasios Papadopoulos: AUTO-CI, single reference methods and gradients 
  Taras Petrenko         : pre 6.0 DFT Hessian and TD-DFT gradient,  ECA, NRVS 
  Petra Pikulova         : Analytic Raman intensities                    
  Peter Pinski           : DLPNO-MP2, DLPNO-MP2 Gradient                 
  Shashank Vittal Rao    : ES-AILFT, MagRelax                            
  Christoph Reimann      : Effective Core Potentials                     
  Marius Retegan         : Local ZFS, SOC                                
  Christoph Riplinger    : Optimizer, TS searches, QM/MM, DLPNO-CCSD(T), (RO)-DLPNO pert. Triples 
  Michael Roemelt        : Original ROCIS implementation, recursive CI coupling coefficients
  Masaaki Saitow         : Open-shell DLPNO-CCSD energy and density      
  Barbara Sandhoefer     : DKH picture change effects                    
  Yorick L. A. Schmerwitz: GMF and freeze-and-release deltaSCF, NEB S-IDPP initial path                    
  Kantharuban Sivalingam : CASSCF convergence/infrastructure, NEVPT2, NEVPT3, NEVPT4(SD), FIC-MRCI and CEPA variants
  Bernardo de Souza      : ESD, SOC TD-DFT                               
  Georgi L. Stoychev     : AutoAux, RI-MP2 NMR, DLPNO-MP2 response, X2C  
  Van Anh Tran           : RI-MP2 g-tensors                              
  Willem Van den Heuvel  : Paramagnetic NMR                              
  Zikuan Wang            : NOTCH, Electric field optimization            
  Frank Wennmohs         : Technical directorship and infrastructure     
  Hang Xu                : AUTO-CI-Response properties                   
                                                                         
[FACCTs GmbH]                                                            
  Markus Bursch, Nicolas Foglia, Miquel Garcia-Rates, Ingolf Harden, Hagen Neugebauer, Anastasios Papadopoulos, 
  Christoph Riplinger, Bernardo de Souza, Georgi L. Stoychev                                                    
                                                                 
  APM, various basis sets, CI-OPT, improved COSX, DLPNO-Multilevel,           
  DOCKER, DRACO, updates on ESD, Fragmentator, GOAT, IRC, LR-CPCM, L-BFGS, MBIS, meta-GGA TD-DFT gradient, ML-optimized integration grids, 
  MM, NACMEs, nearIR, NEB, NEB-TS, NL-DFT gradient (VV10), 2- and 3-layer-ONIOM, interface openCOSMO-RS, QMMM,   
  Crystal-QMMM, RESP, rigid body optimization, SF, symmetry and pop. for TD-DFT, various functionals, SOLVATOR                                   
                                                                         
[Other institutions]                                                     
  V. Asgeirsson          : NEB                                           
  Christoph Bannwarth    : sTDA-DFT, sTD-DFT, PBEh-3c, B97-3c, D3        
  Giovanni Bistoni       : ETS/NOCV, ADLD/ADEX, COVALED                  
  Martin Brehm           : Molecular dynamics                            
  Ronald Cardenas        : ETS/NOCV                                      
  Martina Colucci        : COVALED                                       
  Sebastian Ehlert       : rSCAN, r2SCAN, r2SCAN-3c, D4, dhf basis sets  
  Marvin Friede          : D4 for Fr, Ra, Ac-Lr                          
  Lars Goerigk           : TD-DFT with DH, B97 family of functionals     
  Stefan Grimme          : VdW corrections, initial TS optimization, DFT functionals, gCP, sTDA/sTD-DF 
  Waldemar Hujo          : DFT-NL                                        
  H. Jonsson             : NEB                                           
  Holger Kruse           : gCP                                           
  Marcel Mueller         : wB97X-3c, vDZP basis set                      
  Hagen Neugebauer       : wr2SCAN, Native XTB                           
  Gianluca Regni         : ADLD/ADEX                                     
  Tobias Risthaus        : pre 6.0 range-separated hybrid DFT and stability analysis
  Lukas Wittmann         : regularized MP2, r2SCAN double-hybrids, wr2SCAN        
                                                                         
We gratefully acknowledge several colleagues who have allowed us to      
interface, adapt or use parts of their codes:                            
  Ed Valeev, F. Pavosevic, A. Kumar             : LibInt (2-el integral package), F12 methods 
  Garnet Chan, S. Sharma, J. Yang, R. Olivares  : DMRG                   
  Ulf Ekstrom                                   : XCFun DFT Library      
  Mihaly Kallay                                 : mrcc  (arbitrary order and MRCC methods)
  Frank Weinhold                                : gennbo (NPA and NBO analysis)           
  Simon Mueller                                 : openCOSMO-RS                            
  Christopher J. Cramer and Donald G. Truhlar   : smd solvation model                     
  S Lehtola, MJT Oliveira, MAL Marques          : LibXC Library                           
  Liviu Ungur et al                             : ANISO software                          


 Your calculation uses the libint2 library for the computation of 2-el integrals
 For citations please refer to: http://libint.valeyev.net

 Your ORCA version has been built with support for libXC version: 7.0.0
 For citations please refer to: https://libxc.gitlab.io

 This ORCA versions uses:
   CBLAS   interface :  Fast vector & matrix operations
   LAPACKE interface :  Fast linear algebra routines
   SCALAPACK package :  Parallel linear algebra routines
   Shared memory     :  Shared parallel matrices
   BLAS/LAPACK       :  OpenBLAS 0.3.29  USE64BITINT DYNAMIC_ARCH NO_AFFINITY Zen SINGLE_THREADED
        Core in use  :  Zen
   Copyright (c) 2011-2014, The OpenBLAS Project


  ***********************************
  * Starting time: Sun Apr  5 14:29:37 2026
  * Host name:     QC1
  * Process ID:    24868
  * Working dir.:  /home/user/QC/radical/allyl/split-ts1_2
  ***********************************

NOTE: MaxCore=1200 MB was set to SCF,MP2,MDCI,CIPSI,MRCI,RASCI and CIS
      => If you want to overwrite this, your respective input block should be placed after the MaxCore statement
Warning: RI is on but no J-basis has been assigned. Assigning Def2/J (nothing to worry about!)
================================================================================

----- Orbital basis set information -----
Your calculation utilizes the basis: def-SVP
   H-Kr: A. Schäfer, H. Horn, R. Ahlrichs; J. Chem. Phys. 97, 2571 (1992)
   Rb-At: K. Eichkorn, F. Weigend, O. Treutler, R. Ahlrichs; Theor. Chem. Acc. 97, 119 (1997)
   Rn: F. Weigend, R. Ahlrichs; Phys. Chem. Chem. Phys. 7, 3297 (2005)
   Fr-Ra: I. S. Lim, P. Schwerdtfeger, B. Metz, H. Stoll, J. Chem. Phys. 122, 104103 (2005)
   Ac-Lr: X. Cao, M. Dolg, J. Molec. Struct. Theochem. 673 (2004)
----- AuxJ basis set information -----
Your calculation utilizes the auxiliary basis: def2/J
   H-Rn: F. Weigend, Phys. Chem. Chem. Phys. 8, 1057 (2006).
   Fr-Lr: K. Eichkorn, F. Weigend, O. Treutler, R. Ahlrichs; Theor. Chem. Acc. 97, 119 (1997).

================================================================================
                                        WARNINGS
                       Please study these warnings very carefully!
================================================================================


WARNING: your system is open-shell and RHF/RKS was chosen
  ===> : WILL SWITCH to UHF/UKS


================================================================================
                                       INPUT FILE
================================================================================
NAME = radical_004.inp
|  1> ! B3LYP def-SVP 
|  2> %maxcore 1200
|  3> %pal nprocs 8 end
|  4> * xyz 0 2
|  5> C    0.64241500   0.42955100   0.19070800
|  6> C    0.69811400   0.06361500   1.48393800
|  7> H    1.57479900   0.67987200  -0.33079300
|  8> H    1.64748200   0.02624600   2.02691200
|  9> H   -0.20340800  -0.22385700   2.03468800
| 10> C   -0.59152900   0.43920100  -0.61810400
| 11> H   -1.52181500   0.49342200  -0.03454100
| 12> H   -0.59623100   1.16402800  -1.44632700
| 13> H   -0.65328900  -0.58278100  -1.16423500
| 14> Br  -0.98741200  -2.31173100  -2.05651600
| 15> *
| 16> 
| 17>                          ****END OF INPUT****
================================================================================

                       ****************************
                       * Single Point Calculation *
                       ****************************

---------------------------------
CARTESIAN COORDINATES (ANGSTROEM)
---------------------------------
  C      0.642415    0.429551    0.190708
  C      0.698114    0.063615    1.483938
  H      1.574799    0.679872   -0.330793
  H      1.647482    0.026246    2.026912
  H     -0.203408   -0.223857    2.034688
  C     -0.591529    0.439201   -0.618104
  H     -1.521815    0.493422   -0.034541
  H     -0.596231    1.164028   -1.446327
  H     -0.653289   -0.582781   -1.164235
  Br    -0.987412   -2.311731   -2.056516

----------------------------
CARTESIAN COORDINATES (A.U.)
----------------------------
  NO LB      ZA    FRAG     MASS         X           Y           Z
   0 C     6.0000    0    12.011    1.213988    0.811734    0.360386
   1 C     6.0000    0    12.011    1.319244    0.120215    2.804236
   2 H     1.0000    0     1.008    2.975939    1.284772   -0.625108
   3 H     1.0000    0     1.008    3.113290    0.049598    3.830309
   4 H     1.0000    0     1.008   -0.384385   -0.423028    3.845003
   5 C     6.0000    0    12.011   -1.117828    0.829970   -1.168047
   6 H     1.0000    0     1.008   -2.875814    0.932432   -0.065273
   7 H     1.0000    0     1.008   -1.126713    2.199694   -2.733162
   8 H     1.0000    0     1.008   -1.234537   -1.101296   -2.200085
   9 Br   35.0000    0    79.900   -1.865938   -4.368538   -3.886252

--------------------------------
INTERNAL COORDINATES (ANGSTROEM)
--------------------------------
 C      0   0   0     0.000000000000     0.00000000     0.00000000
 C      1   0   0     1.345159978440     0.00000000     0.00000000
 H      1   2   0     1.097252851214   118.93432167     0.00000000
 H      2   1   3     1.094311110362   121.48236271     0.97565154
 H      2   1   3     1.094855072495   121.39586357   181.87929774
 C      1   2   3     1.475427995186   124.29364085   175.94486030
 H      6   1   2     1.099507950679   114.64436628    21.89317547
 H      6   1   2     1.100613295605   114.85968645   152.66847132
 H      6   1   2     1.160396731762   107.26261970   266.52019322
 Br     9   6   1     1.974100216451   173.25690884   142.45315259

---------------------------
INTERNAL COORDINATES (A.U.)
---------------------------
 C      0   0   0     0.000000000000     0.00000000     0.00000000
 C      1   0   0     2.541983965563     0.00000000     0.00000000
 H      1   2   0     2.073507388459   118.93432167     0.00000000
 H      2   1   3     2.067948303891   121.48236271     0.97565154
 H      2   1   3     2.068976243350   121.39586357   181.87929774
 C      1   2   3     2.788154841223   124.29364085   175.94486030
 H      6   1   2     2.077768908852   114.64436628    21.89317547
 H      6   1   2     2.079857708046   114.85968645   152.66847132
 H      6   1   2     2.192832029728   107.26261970   266.52019322
 Br     9   6   1     3.730508770006   173.25690884   142.45315259

---------------------
BASIS SET INFORMATION
---------------------
There are 3 groups of distinct atoms

 Group   1 Type C   : 7s4p1d contracted to 3s2p1d pattern {511/31/1}
 Group   2 Type H   : 4s1p contracted to 2s1p pattern {31/1}
 Group   3 Type Br  : 14s10p6d contracted to 5s4p3d pattern {63311/5311/411}

Atom   0C    basis set group =>   1
Atom   1C    basis set group =>   1
Atom   2H    basis set group =>   2
Atom   3H    basis set group =>   2
Atom   4H    basis set group =>   2
Atom   5C    basis set group =>   1
Atom   6H    basis set group =>   2
Atom   7H    basis set group =>   2
Atom   8H    basis set group =>   2
Atom   9Br   basis set group =>   3
---------------------------------
AUXILIARY/J BASIS SET INFORMATION
---------------------------------
There are 3 groups of distinct atoms

 Group   1 Type C   : 12s5p4d2f1g contracted to 6s4p3d1f1g pattern {711111/2111/211/2/1}
 Group   2 Type H   : 5s2p1d contracted to 3s1p1d pattern {311/2/1}
 Group   3 Type Br  : 19s5p5d3f1g contracted to 8s4p3d2f1g pattern {121111111/2111/311/21/1}

Atom   0C    basis set group =>   1
Atom   1C    basis set group =>   1
Atom   2H    basis set group =>   2
Atom   3H    basis set group =>   2
Atom   4H    basis set group =>   2
Atom   5C    basis set group =>   1
Atom   6H    basis set group =>   2
Atom   7H    basis set group =>   2
Atom   8H    basis set group =>   2
Atom   9Br   basis set group =>   3


           ************************************************************
           *        Program running with 8 parallel MPI-processes     *
           *              working on a common directory               *
           ************************************************************
------------------------------------------------------------------------------
                             ORCA STARTUP CALCULATIONS
                           -- RI-GTO INTEGRALS CHOSEN --
------------------------------------------------------------------------------
------------------------------------------------------------------------------
                   ___                                                        
                  /   \      - P O W E R E D   B Y -                         
                 /     \                                                     
                 |  |  |   _    _      __       _____    __    __             
                 |  |  |  | |  | |    /  \     |  _  \  |  |  /  |          
                  \  \/   | |  | |   /    \    | | | |  |  | /  /          
                 / \  \   | |__| |  /  /\  \   | |_| |  |  |/  /          
                |  |  |   |  __  | /  /__\  \  |    /   |      \           
                |  |  |   | |  | | |   __   |  |    \   |  |\   \          
                \     /   | |  | | |  |  |  |  | |\  \  |  | \   \       
                 \___/    |_|  |_| |__|  |__|  |_| \__\ |__|  \__/        
                                                                              
                      - O R C A' S   B I G   F R I E N D -                    
                                      &                                       
                       - I N T E G R A L  F E E D E R -                       
                                                                              
 v1 FN, 2020, v2 2021, v3 2022-2024                                           
------------------------------------------------------------------------------


----------------------
SHARK INTEGRAL PACKAGE
----------------------

Number of atoms                             ...     10
Number of basis functions                   ...    104
Number of shells                            ...     48
Maximum angular momentum                    ...      2
Integral batch strategy                     ... SHARK/LIBINT Hybrid
RI-J (if used) integral strategy            ... SPLIT-RIJ (Revised 2003 algorithm where possible)
Printlevel                                  ...      1
Contraction scheme used                     ... SEGMENTED contraction
Prescreening option                         ... SCHWARTZ
   Thresh                                   ... 1.000e-10
   Tcut                                     ... 1.000e-11
   Tpresel                                  ... 1.000e-11 
Coulomb Range Separation                    ... NOT USED
Exchange Range Separation                   ... NOT USED
Multipole approximations                    ... NOT USED
Finite Nucleus Model                        ... NOT USED
CABS basis                                  ... NOT available
Auxiliary Coulomb fitting basis             ... AVAILABLE
   # of basis functions in Aux-J            ...    271
   # of shells in Aux-J                     ...     93
   Maximum angular momentum in Aux-J        ...      4
Auxiliary J/K fitting basis                 ... NOT available
Auxiliary Correlation fitting basis         ... NOT available
Auxiliary 'external' fitting basis          ... NOT available

Checking pre-screening integrals            ... done (  0.0 sec) Dimension = 48
   => SHARK Basis and OBASIS are compatible. Storing Pre-screening
Shell pair information
Shell pair cut-off parameter TPreSel        ...   1.0e-11
Total number of shell pairs                 ...      1176
Shell pairs after pre-screening             ...      1077
Total number of primitive shell pairs       ...      4753
Primitive shell pairs kept                  ...      3279
          la=0 lb=0:    330 shell pairs
          la=1 lb=0:    383 shell pairs
          la=1 lb=1:    124 shell pairs
          la=2 lb=0:    138 shell pairs
          la=2 lb=1:     84 shell pairs
          la=2 lb=2:     18 shell pairs

Checking whether 4 symmetric matrices of dimension 104 fit in memory
:Max Core in MB      =   1200.00
 MB in use           =      4.71
 MB left             =   1195.29
 MB needed           =      0.17
 Data fit in memory  = YES
Calculating RI/J V-Matrix + Cholesky decomp.... done (  0.0 sec)
Calculating Nuclear repulsion               ... done (  0.0 sec) ENN=    190.338686769271 Eh

Diagonalization of the overlap matrix:
Smallest eigenvalue                        ... 2.767e-03
Time for diagonalization                   ...    0.001 sec
Threshold for overlap eigenvalues          ... 1.000e-07
Number of eigenvalues below threshold      ... 0
Time for construction of square roots      ...    0.000 sec
Total time needed                          ...    0.002 sec

-------------------
DFT GRID GENERATION
-------------------

General Integration Accuracy     IntAcc      ... 4.388
Radial Grid Type                 RadialGrid  ... OptM3 with GC (2021)
Angular Grid (max. ang.)         AngularGrid ... 4 (Lebedev-302)
Angular grid pruning method      GridPruning ... 4 (adaptive)
Weight generation scheme         WeightScheme... mBecke (2022)
Basis function cutoff            BFCut       ... 1.0000e-10
Integration weight cutoff        WCut        ... 1.0000e-14
Partially contracted basis set               ... off
Rotationally invariant grid construction     ... off
Angular grids for H and He will be reduced by one unit
Core-polarized basis detected: some atoms will have their core
                               angular grid increased.

Total number of grid points                  ...    48997
Total number of batches                      ...      773
Average number of points per batch           ...       63
Average number of grid points per atom       ...     4900

--------------------
COSX GRID GENERATION
--------------------

GRIDX 1
-------
General Integration Accuracy     IntAcc      ... 3.816
Radial Grid Type                 RadialGrid  ... OptM3 with GC (2021)
Angular Grid (max. ang.)         AngularGrid ... 1 (Lebedev-50)
Angular grid pruning method      GridPruning ... 4 (adaptive)
Weight generation scheme         WeightScheme... mBecke (2022)
Basis function cutoff            BFCut       ... 1.0000e-10
Integration weight cutoff        WCut        ... 1.0000e-14
Partially contracted basis set               ... on
Rotationally invariant grid construction     ... off
Angular grids for H and He will be reduced by one unit
Core-polarized basis detected: some atoms will have their core
                               angular grid increased.

Total number of grid points                  ...    11059
Total number of batches                      ...       91
Average number of points per batch           ...      121
Average number of grid points per atom       ...     1106
UseSFitting                                  ... on

GRIDX 2
-------
General Integration Accuracy     IntAcc      ... 4.020
Radial Grid Type                 RadialGrid  ... OptM3 with GC (2021)
Angular Grid (max. ang.)         AngularGrid ... 2 (Lebedev-110)
Angular grid pruning method      GridPruning ... 4 (adaptive)
Weight generation scheme         WeightScheme... mBecke (2022)
Basis function cutoff            BFCut       ... 1.0000e-10
Integration weight cutoff        WCut        ... 1.0000e-14
Partially contracted basis set               ... on
Rotationally invariant grid construction     ... off
Angular grids for H and He will be reduced by one unit
Core-polarized basis detected: some atoms will have their core
                               angular grid increased.

Total number of grid points                  ...    16374
Total number of batches                      ...      132
Average number of points per batch           ...      124
Average number of grid points per atom       ...     1637
UseSFitting                                  ... on

GRIDX 3
-------
General Integration Accuracy     IntAcc      ... 4.338
Radial Grid Type                 RadialGrid  ... OptM3 with GC (2021)
Angular Grid (max. ang.)         AngularGrid ... 3 (Lebedev-194)
Angular grid pruning method      GridPruning ... 4 (adaptive)
Weight generation scheme         WeightScheme... mBecke (2022)
Basis function cutoff            BFCut       ... 1.0000e-10
Integration weight cutoff        WCut        ... 1.0000e-14
Partially contracted basis set               ... on
Rotationally invariant grid construction     ... off
Angular grids for H and He will be reduced by one unit
Core-polarized basis detected: some atoms will have their core
                               angular grid increased.

Total number of grid points                  ...    28553
Total number of batches                      ...      229
Average number of points per batch           ...      124
Average number of grid points per atom       ...     2855
UseSFitting                                  ... on
Grids setup in   0.4 sec
Initializing property integral containers    ... done (  0.0 sec)

SHARK setup successfully completed in   0.5 seconds

Maximum memory used throughout the entire STARTUP-calculation: 17.7 MB


           ************************************************************
           *        Program running with 8 parallel MPI-processes     *
           *              working on a common directory               *
           ************************************************************
-------------------------------------------------------------------------------
                                 ORCA GUESS
                   Start orbitals & Density for SCF / CASSCF
-------------------------------------------------------------------------------

------------
SCF SETTINGS
------------
Hamiltonian:
 Density Functional     Method          .... DFT(GTOs)
 Exchange Functional    Exchange        .... B88
   X-Alpha parameter    XAlpha          ....  0.666667
   Becke's b parameter  XBeta           ....  0.004200
 Correlation Functional Correlation     .... LYP
 LDA part of GGA corr.  LDAOpt          .... VWN-5
 Gradients option       PostSCFGGA      .... off
 Hybrid DFT is turned on
   Fraction HF Exchange ScalHFX         ....  0.200000
   Scaling of DF-GGA-X  ScalDFX         ....  0.720000
   Scaling of DF-GGA-C  ScalDFC         ....  0.810000
   Scaling of DF-LDA-C  ScalLDAC        ....  1.000000
   Perturbative correction              ....  0.000000
   NL short-range parameter             ....  4.800000
 RI-approximation to the Coulomb term is turned on
   Number of AuxJ basis functions       .... 271
   RIJ-COSX (HFX calculated with COS-X)).... on


General Settings:
 Integral files         IntName         .... radical_004
 Hartree-Fock type      HFTyp           .... UHF
 Total Charge           Charge          ....    0
 Multiplicity           Mult            ....    2
 Number of Electrons    NEL             ....   59
 Basis Dimension        Dim             ....  104
 Nuclear Repulsion      ENuc            ....    190.3386867693 Eh

Convergence Acceleration:
 AO-DIIS                CNVDIIS         .... on
   Start iteration      DIISMaxIt       ....    12
   Startup error        DIISStart       ....  0.200000
   # of expansion vecs  DIISMaxEq       ....     5
   Bias factor          DIISBfac        ....   1.050
   Max. coefficient     DIISMaxC        ....  10.000
 MO-DIIS                CNVKDIIS        .... off
 Trust-Rad. Augm. Hess. CNVTRAH         .... auto
   Auto Start mean grad. ratio tolernc. ....  1.125000
   Auto Start start iteration           ....    50
   Auto Start num. interpolation iter.  ....    10
   Max. Number of Micro iterations      ....    24
   Max. Number of Macro iterations      .... Maxiter - #DIIS iter
   Number of Davidson start vectors     ....     2
   Converg. threshold    (grad. norm)   ....   5.000e-05
   Grad. Scal. Fac. for Micro threshold ....   0.100
   Minimum threshold for Micro iter.    ....   1.000e-02
   NR start threshold (gradient norm)   ....   1.000e-04
   Initial trust radius                 ....   0.400
   Minimum AH scaling param. (alpha)    ....   1.000
   Maximum AH scaling param. (alpha)    .... 1000.000
   Quad. conv. algorithm                .... NR
   White noise on init. David. guess    .... on
   Maximum white noise                  ....   0.010
   Pseudo random numbers                .... off
   Inactive MOs                         .... canonical
   Orbital update algorithm             .... Taylor
   Preconditioner                       .... Diag
   Full preconditioner red. dimension   ....   250
 SOSCF                 CNVSOSCF           .... on
   Start iteration     SOSCFMaxIt         ....   150
   Startup grad/error  SOSCFStart         ....  0.003300
   Hessian update      SOSCFHessUp        .... L-BFGS
   Autom. constraints  SOSCFAutoConstrain .... off
 Level Shifting         CNVShift        .... on
   Level shift para.    LevelShift      ....    0.2500
   Turn off err/grad.   ShiftErr        ....    0.0010
 Zerner damping         CNVZerner       .... off
 Static damping         CNVDamp         .... on
   Fraction old density DampFac         ....    0.7000
   Max. Damping (<1)    DampMax         ....    0.9800
   Min. Damping (>=0)   DampMin         ....    0.0000
   Turn off err/grad.   DampErr         ....    0.1000

SCF Procedure:
 Maximum # iterations   MaxIter         ....   125
 SCF integral mode      SCFMode         .... Direct
   Integral package                     .... SHARK and LIBINT hybrid scheme
 Reset frequency        DirectResetFreq ....    20
 Integral Threshold     Thresh          ....  1.000e-10 Eh
 Primitive CutOff       TCut            ....  1.000e-11 Eh

Convergence Tolerance:
 Convergence Check Mode ConvCheckMode   .... Total+1el-Energy
 Convergence forced     ConvForced      .... 0
 Energy Change          TolE            ....  1.000e-06 Eh
 1-El. energy change                    ....  1.000e-03 Eh
 Orbital Gradient       TolG            ....  5.000e-05
 Orbital Rotation angle TolX            ....  5.000e-05
 DIIS Error             TolErr          ....  1.000e-06

------------------------------
INITIAL GUESS: MODEL POTENTIAL
------------------------------
Loading Hartree-Fock densities                     ... done
Calculating cut-offs                               ... done
Initializing the effective Hamiltonian             ... done
Setting up the integral package (SHARK)            ... done
Starting the Coulomb interaction                   ... done (   0.0 sec)
Making the grid                                    ... done (   0.1 sec)
Mapping shells                                     ... done
Starting the XC term evaluation                    ... done (   0.0 sec)
  promolecular density results
     # of electrons  =     58.997569653
     EX              =   -106.839825853
     EC              =     -2.448636265
     EX+EC           =   -109.288462119
Transforming the Hamiltonian                       ... done (   0.0 sec)
Diagonalizing the Hamiltonian                      ... done (   0.0 sec)
Back transforming the eigenvectors                 ... done (   0.0 sec)
Now organizing SCF variables                       ... done
                      ------------------
                      INITIAL GUESS DONE (   0.1 sec)
                      ------------------
             **** ENERGY FILE WAS UPDATED (radical_004.en.tmp) ****
Finished Guess after   0.4 sec
Maximum memory used throughout the entire GUESS-calculation: 8.9 MB


           ************************************************************
           *        Program running with 8 parallel MPI-processes     *
           *              working on a common directory               *
           ************************************************************

-------------------------------------------------------------------------------------------
                                      ORCA LEAN-SCF
                              memory conserving SCF solver
-------------------------------------------------------------------------------------------

----------------------------------------D-I-I-S--------------------------------------------
Iteration    Energy (Eh)           Delta-E    RMSDP     MaxDP     DIISErr   Damp  Time(sec)
-------------------------------------------------------------------------------------------
               ***  Starting incremental Fock matrix formation  ***
    1    -2691.3218711095018989     0.00e+00  4.61e-03  3.61e-02  7.70e-02  0.700   0.2
Warning: op=1 Small HOMO/LUMO gap (   0.062) - skipping pre-diagonalization
         Will do a full diagonalization
    2    -2691.3706114551091559    -4.87e-02  3.53e-03  2.15e-02  4.11e-02  0.700   0.2
                               ***Turning on AO-DIIS***
    3    -2691.3904503590511013    -1.98e-02  1.57e-03  1.26e-02  1.65e-02  0.700   0.2
    4    -2691.4013873198946385    -1.09e-02  3.00e-03  2.99e-02  8.51e-03  0.000   0.2
    5    -2691.4257398746149192    -2.44e-02  7.23e-04  5.31e-03  3.84e-03  0.000   0.2
                              *** Initializing SOSCF ***
---------------------------------------S-O-S-C-F--------------------------------------
Iteration    Energy (Eh)           Delta-E    RMSDP     MaxDP     MaxGrad    Time(sec)
--------------------------------------------------------------------------------------
    6    -2691.4261710147175108    -4.31e-04  3.24e-04  2.58e-03  1.97e-03     0.2
               *** Restarting incremental Fock matrix formation ***
    7    -2691.4262594998954228    -8.85e-05  4.80e-04  3.86e-03  2.37e-03     0.2
    8    -2691.4263229650491667    -6.35e-05  4.52e-04  2.81e-03  1.48e-03     0.2
    9    -2691.4263387163478001    -1.58e-05  1.47e-04  1.18e-03  7.06e-04     0.2
   10    -2691.4263489508689418    -1.02e-05  8.16e-05  5.92e-04  3.01e-04     0.2
   11    -2691.4263497242041012    -7.73e-07  4.71e-05  3.74e-04  2.33e-04     0.2
                 **** Energy Check signals convergence ****

               *****************************************************
               *                     SUCCESS                       *
               *           SCF CONVERGED AFTER  11 CYCLES          *
               *****************************************************

Recomputing exchange energy using gridx3       ... done (    0.239 sec)
Old exchange energy                            :    -21.427992192 Eh
New exchange energy                            :    -21.427954504 Eh
Exchange energy change after final integration :      0.000037688 Eh
Total energy after final integration           :  -2691.426313137 Eh
             **** ENERGY FILE WAS UPDATED (radical_004.en.tmp) ****

----------------
TOTAL SCF ENERGY
----------------

Total Energy       :      -2691.42631313717993 Eh          -73237.43330 eV

Components:
Nuclear Repulsion  :        190.33868676927062 Eh            5179.37898 eV
Electronic Energy  :      -2881.76503759447587 Eh          -78416.81331 eV
One Electron Energy:      -4117.93921187569504 Eh         -112054.82271 eV
Two Electron Energy:       1236.17417428121894 Eh           33638.00941 eV

Virial components:
Potential Energy   :      -5378.50701779798965 Eh         -146356.61658 eV
Kinetic Energy     :       2687.08070466080972 Eh           73119.18328 eV
Virial Ratio       :          2.00161722290992

DFT components:
N(Alpha)           :       29.999999297578 electrons
N(Beta)            :       28.999997003124 electrons
N(Total)           :       58.999996300702 electrons
E(X)               :      -85.243700261301 Eh       
E(C)               :       -2.872865540232 Eh       
E(XC)              :      -88.116565801533 Eh       

---------------
SCF CONVERGENCE
---------------

  Last Energy change         ...    7.7334e-07  Tolerance :   1.0000e-06
  Last MAX-Density change    ...    3.7422e-04  Tolerance :   1.0000e-05
  Last RMS-Density change    ...    4.7078e-05  Tolerance :   1.0000e-06
  Last DIIS Error            ...    1.9749e-03  Tolerance :   1.0000e-06
  Last Orbital Gradient      ...    2.3320e-04  Tolerance :   5.0000e-05
  Last Orbital Rotation      ...    9.7545e-04  Tolerance :   5.0000e-05


----------------------
UHF SPIN CONTAMINATION
----------------------

Warning: in a DFT calculation there is little theoretical justification to 
         calculate <S**2> as in Hartree-Fock theory. We will do it anyways
         but you should keep in mind that the values have only limited relevance

Expectation value of <S**2>     :     0.757607
Ideal value S*(S+1) for S=0.5   :     0.750000
Deviation                       :     0.007607

----------------
ORBITAL ENERGIES
----------------
                 SPIN UP ORBITALS
  NO   OCC          E(Eh)            E(eV) 
   0   1.0000    -482.766785    -13136.7521 
   1   1.0000     -62.449709     -1699.3430 
   2   1.0000     -56.283212     -1531.5441 
   3   1.0000     -56.279010     -1531.4297 
   4   1.0000     -56.278999     -1531.4294 
   5   1.0000     -10.217657      -278.0366 
   6   1.0000     -10.216661      -278.0095 
   7   1.0000     -10.210833      -277.8509 
   8   1.0000      -8.667880      -235.8650 
   9   1.0000      -6.504974      -177.0094 
  10   1.0000      -6.486949      -176.5189 
  11   1.0000      -6.486903      -176.5176 
  12   1.0000      -2.617330       -71.2212 
  13   1.0000      -2.612906       -71.1008 
  14   1.0000      -2.612875       -71.0999 
  15   1.0000      -2.599521       -70.7366 
  16   1.0000      -2.599520       -70.7365 
  17   1.0000      -0.808088       -21.9892 
  18   1.0000      -0.745184       -20.2775 
  19   1.0000      -0.702261       -19.1095 
  20   1.0000      -0.572176       -15.5697 
  21   1.0000      -0.492085       -13.3903 
  22   1.0000      -0.451826       -12.2948 
  23   1.0000      -0.446670       -12.1545 
  24   1.0000      -0.400149       -10.8886 
  25   1.0000      -0.373727       -10.1696 
  26   1.0000      -0.311358        -8.4725 
  27   1.0000      -0.274652        -7.4737 
  28   1.0000      -0.274430        -7.4676 
  29   1.0000      -0.266366        -7.2482 
  30   0.0000      -0.012836        -0.3493 
  31   0.0000       0.063223         1.7204 
  32   0.0000       0.080876         2.2007 
  33   0.0000       0.098373         2.6769 
  34   0.0000       0.136006         3.7009 
  35   0.0000       0.140783         3.8309 
  36   0.0000       0.182062         4.9542 
  37   0.0000       0.242056         6.5867 
  38   0.0000       0.318276         8.6607 
  39   0.0000       0.355567         9.6755 
  40   0.0000       0.377253        10.2656 

                 SPIN DOWN ORBITALS
  NO   OCC          E(Eh)            E(eV) 
   0   1.0000    -482.764802    -13136.6981 
   1   1.0000     -62.448660     -1699.3144 
   2   1.0000     -56.279026     -1531.4302 
   3   1.0000     -56.278243     -1531.4089 
   4   1.0000     -56.278232     -1531.4085 
   5   1.0000     -10.217529      -278.0331 
   6   1.0000     -10.214004      -277.9372 
   7   1.0000     -10.208214      -277.7796 
   8   1.0000      -8.664924      -235.7846 
   9   1.0000      -6.496885      -176.7892 
  10   1.0000      -6.485614      -176.4825 
  11   1.0000      -6.485568      -176.4813 
  12   1.0000      -2.611573       -71.0645 
  13   1.0000      -2.608439       -70.9792 
  14   1.0000      -2.608408       -70.9784 
  15   1.0000      -2.598760       -70.7159 
  16   1.0000      -2.598759       -70.7158 
  17   1.0000      -0.803345       -21.8601 
  18   1.0000      -0.717802       -19.5324 
  19   1.0000      -0.689854       -18.7719 
  20   1.0000      -0.569386       -15.4938 
  21   1.0000      -0.489746       -13.3267 
  22   1.0000      -0.447995       -12.1906 
  23   1.0000      -0.427984       -11.6460 
  24   1.0000      -0.397301       -10.8111 
  25   1.0000      -0.372124       -10.1260 
  26   1.0000      -0.280430        -7.6309 
  27   1.0000      -0.264505        -7.1976 
  28   1.0000      -0.264201        -7.1893 
  29   0.0000      -0.181397        -4.9361 
  30   0.0000      -0.005100        -0.1388 
  31   0.0000       0.064397         1.7523 
  32   0.0000       0.082035         2.2323 
  33   0.0000       0.100330         2.7301 
  34   0.0000       0.137834         3.7506 
  35   0.0000       0.141677         3.8552 
  36   0.0000       0.194108         5.2819 
  37   0.0000       0.243579         6.6281 
  38   0.0000       0.320839         8.7305 
  39   0.0000       0.365344         9.9415 
*Only the first 10 virtual orbitals were printed.

                    ********************************
                    * MULLIKEN POPULATION ANALYSIS *
                    ********************************

--------------------------------------------
MULLIKEN ATOMIC CHARGES AND SPIN POPULATIONS
--------------------------------------------
   0 C :   -0.091392   -0.067161
   1 C :   -0.004742    0.200201
   2 H :    0.023740    0.002440
   3 H :    0.039272   -0.008569
   4 H :    0.031789   -0.008433
   5 C :    0.066382    0.188900
   6 H :    0.041980   -0.002464
   7 H :    0.040553    0.001159
   8 H :    0.040416   -0.021971
   9 Br:   -0.187997    0.715897
Sum of atomic charges         :   -0.0000000
Sum of atomic spin populations:    1.0000000

-----------------------------------------------------
MULLIKEN REDUCED ORBITAL CHARGES AND SPIN POPULATIONS
-----------------------------------------------------
CHARGE
  0 C s       :     3.161379  s :     3.161379
      pz      :     0.976614  p :     2.894020
      px      :     0.964998
      py      :     0.952408
      dz2     :     0.008772  d :     0.035993
      dxz     :     0.013024
      dyz     :     0.006721
      dx2y2   :     0.004450
      dxy     :     0.003026

  1 C s       :     3.122127  s :     3.122127
      pz      :     0.976491  p :     2.856370
      px      :     0.930700
      py      :     0.949179
      dz2     :     0.006886  d :     0.026245
      dxz     :     0.010623
      dyz     :     0.004884
      dx2y2   :     0.002766
      dxy     :     0.001085

  2 H s       :     0.953901  s :     0.953901
      pz      :     0.006024  p :     0.022359
      px      :     0.011616
      py      :     0.004720

  3 H s       :     0.937382  s :     0.937382
      pz      :     0.006651  p :     0.023346
      px      :     0.012244
      py      :     0.004451

  4 H s       :     0.944881  s :     0.944881
      pz      :     0.006828  p :     0.023330
      px      :     0.011367
      py      :     0.005136

  5 C s       :     2.967155  s :     2.967155
      pz      :     0.983345  p :     2.937296
      px      :     0.975868
      py      :     0.978083
      dz2     :     0.002875  d :     0.029167
      dxz     :     0.007810
      dyz     :     0.007996
      dx2y2   :     0.008303
      dxy     :     0.002184

  6 H s       :     0.935032  s :     0.935032
      pz      :     0.007017  p :     0.022988
      px      :     0.011331
      py      :     0.004640

  7 H s       :     0.936271  s :     0.936271
      pz      :     0.009787  p :     0.023176
      px      :     0.003961
      py      :     0.009428

  8 H s       :     0.928850  s :     0.928850
      pz      :     0.008665  p :     0.030734
      px      :     0.005522
      py      :     0.016548

  9 Brs       :     7.981488  s :     7.981488
      pz      :     5.849655  p :    17.198002
      px      :     5.981686
      py      :     5.366660
      dz2     :     2.000426  d :    10.008507
      dxz     :     2.000167
      dyz     :     2.003833
      dx2y2   :     2.003459
      dxy     :     2.000622


SPIN
  0 C s       :    -0.009870  s :    -0.009870
      pz      :    -0.009264  p :    -0.059803
      px      :    -0.007123
      py      :    -0.043416
      dz2     :     0.000540  d :     0.002512
      dxz     :    -0.000004
      dyz     :     0.001381
      dx2y2   :     0.000152
      dxy     :     0.000443

  1 C s       :     0.019487  s :     0.019487
      pz      :     0.015794  p :     0.181254
      px      :     0.012053
      py      :     0.153407
      dz2     :    -0.000130  d :    -0.000541
      dxz     :    -0.000003
      dyz     :    -0.000157
      dx2y2   :    -0.000221
      dxy     :    -0.000030

  2 H s       :     0.002696  s :     0.002696
      pz      :    -0.000012  p :    -0.000256
      px      :    -0.000014
      py      :    -0.000230

  3 H s       :    -0.009389  s :    -0.009389
      pz      :     0.000049  p :     0.000820
      px      :     0.000043
      py      :     0.000728

  4 H s       :    -0.009183  s :    -0.009183
      pz      :     0.000024  p :     0.000750
      px      :     0.000041
      py      :     0.000685

  5 C s       :     0.015662  s :     0.015662
      pz      :     0.035409  p :     0.173589
      px      :     0.007197
      py      :     0.130983
      dz2     :     0.000033  d :    -0.000351
      dxz     :    -0.000161
      dyz     :    -0.000033
      dx2y2   :    -0.000007
      dxy     :    -0.000183

  6 H s       :    -0.003169  s :    -0.003169
      pz      :     0.000022  p :     0.000706
      px      :     0.000091
      py      :     0.000593

  7 H s       :     0.000344  s :     0.000344
      pz      :     0.000487  p :     0.000815
      px      :    -0.000010
      py      :     0.000338

  8 H s       :    -0.031143  s :    -0.031143
      pz      :     0.001926  p :     0.009172
      px      :     0.000171
      py      :     0.007075

  9 Brs       :     0.000045  s :     0.000045
      pz      :     0.132698  p :     0.715964
      px      :     0.009261
      py      :     0.574005
      dz2     :     0.000010  d :    -0.000112
      dxz     :    -0.000002
      dyz     :    -0.000074
      dx2y2   :    -0.000041
      dxy     :    -0.000005



                     *******************************
                     * LOEWDIN POPULATION ANALYSIS *
                     *******************************

-------------------------------------------
LOEWDIN ATOMIC CHARGES AND SPIN POPULATIONS
-------------------------------------------
   0 C :   -0.015917   -0.040720
   1 C :   -0.013272    0.165518
   2 H :    0.033230    0.000154
   3 H :    0.031484   -0.000467
   4 H :    0.028495   -0.000723
   5 C :   -0.023874    0.152852
   6 H :    0.040336    0.001435
   7 H :    0.042503    0.003738
   8 H :    0.028024    0.034762
   9 Br:   -0.151009    0.683452

----------------------------------------------------
LOEWDIN REDUCED ORBITAL CHARGES AND SPIN POPULATIONS
----------------------------------------------------
CHARGE
  0 C s       :     2.879614  s :     2.879614
      pz      :     1.071093  p :     3.046540
      px      :     1.037885
      py      :     0.937562
      dz2     :     0.023581  d :     0.089763
      dxz     :     0.034907
      dyz     :     0.014487
      dx2y2   :     0.010281
      dxy     :     0.006507

  1 C s       :     2.893979  s :     2.893979
      pz      :     1.062890  p :     3.051370
      px      :     1.043600
      py      :     0.944880
      dz2     :     0.018839  d :     0.067923
      dxz     :     0.028833
      dyz     :     0.010593
      dx2y2   :     0.006794
      dxy     :     0.002863

  2 H s       :     0.900808  s :     0.900808
      pz      :     0.017135  p :     0.065962
      px      :     0.034377
      py      :     0.014450

  3 H s       :     0.901174  s :     0.901174
      pz      :     0.017974  p :     0.067342
      px      :     0.035817
      py      :     0.013551

  4 H s       :     0.904209  s :     0.904209
      pz      :     0.018350  p :     0.067296
      px      :     0.033387
      py      :     0.015559

  5 C s       :     2.853826  s :     2.853826
      pz      :     1.040994  p :     3.097686
      px      :     1.049892
      py      :     1.006800
      dz2     :     0.005914  d :     0.072361
      dxz     :     0.021326
      dyz     :     0.019617
      dx2y2   :     0.021131
      dxy     :     0.004373

  6 H s       :     0.893927  s :     0.893927
      pz      :     0.020052  p :     0.065737
      px      :     0.033361
      py      :     0.012325

  7 H s       :     0.891607  s :     0.891607
      pz      :     0.028726  p :     0.065890
      px      :     0.011185
      py      :     0.025979

  8 H s       :     0.879093  s :     0.879093
      pz      :     0.024396  p :     0.092883
      px      :     0.012772
      py      :     0.055716

  9 Brs       :     7.959034  s :     7.959034
      pz      :     5.844491  p :    17.179567
      px      :     5.981869
      py      :     5.353206
      dz2     :     2.000562  d :    10.012409
      dxz     :     2.000223
      dyz     :     2.005662
      dx2y2   :     2.005106
      dxy     :     2.000854


SPIN
  0 C s       :    -0.002714  s :    -0.002714
      pz      :    -0.003978  p :    -0.043902
      px      :    -0.003234
      py      :    -0.036690
      dz2     :     0.001317  d :     0.005896
      dxz     :     0.000185
      dyz     :     0.002987
      dx2y2   :     0.000283
      dxy     :     0.001124

  1 C s       :     0.005179  s :     0.005179
      pz      :     0.012864  p :     0.161611
      px      :     0.006658
      py      :     0.142090
      dz2     :    -0.000326  d :    -0.001272
      dxz     :    -0.000172
      dyz     :    -0.000482
      dx2y2   :    -0.000250
      dxy     :    -0.000042

  2 H s       :     0.001278  s :     0.001278
      pz      :    -0.000039  p :    -0.001125
      px      :    -0.000182
      py      :    -0.000903

  3 H s       :    -0.004077  s :    -0.004077
      pz      :     0.000365  p :     0.003610
      px      :     0.000474
      py      :     0.002770

  4 H s       :    -0.004160  s :    -0.004160
      pz      :     0.000357  p :     0.003437
      px      :     0.000419
      py      :     0.002661

  5 C s       :     0.009557  s :     0.009557
      pz      :     0.028350  p :     0.144983
      px      :     0.004123
      py      :     0.112510
      dz2     :    -0.000024  d :    -0.001688
      dxz     :    -0.000369
      dyz     :    -0.000552
      dx2y2   :    -0.000377
      dxy     :    -0.000366

  6 H s       :    -0.002197  s :    -0.002197
      pz      :     0.000518  p :     0.003632
      px      :     0.000470
      py      :     0.002645

  7 H s       :    -0.000164  s :    -0.000164
      pz      :     0.001393  p :     0.003902
      px      :     0.000059
      py      :     0.002451

  8 H s       :     0.004604  s :     0.004604
      pz      :     0.006290  p :     0.030158
      px      :     0.000415
      py      :     0.023453

  9 Brs       :    -0.000145  s :    -0.000145
      pz      :     0.126342  p :     0.683114
      px      :     0.008641
      py      :     0.548132
      dz2     :     0.000030  d :     0.000483
      dxz     :     0.000003
      dyz     :     0.000214
      dx2y2   :     0.000216
      dxy     :     0.000020



                      *****************************
                      * MAYER POPULATION ANALYSIS *
                      *****************************

  NA   - Mulliken gross atomic population
  ZA   - Total nuclear charge
  QA   - Mulliken gross atomic charge
  VA   - Mayer's total valence
  BVA  - Mayer's bonded valence
  FA   - Mayer's free valence

  ATOM       NA         ZA         QA         VA         BVA        FA
  0 C      6.0914     6.0000    -0.0914     4.1247     4.1219     0.0028
  1 C      6.0047     6.0000    -0.0047     3.9540     3.9253     0.0287
  2 H      0.9763     1.0000     0.0237     0.9798     0.9798     0.0000
  3 H      0.9607     1.0000     0.0393     0.9753     0.9752     0.0001
  4 H      0.9682     1.0000     0.0318     0.9848     0.9847     0.0001
  5 C      5.9336     6.0000     0.0664     3.9013     3.8728     0.0286
  6 H      0.9580     1.0000     0.0420     0.9944     0.9944     0.0000
  7 H      0.9594     1.0000     0.0406     0.9857     0.9857     0.0000
  8 H      0.9596     1.0000     0.0404     1.0677     1.0630     0.0047
  9 Br    35.1880    35.0000    -0.1880     0.9958     0.4801     0.5158

  Mayer bond orders larger than 0.100000
B(  0-C ,  1-C ) :   1.9072 B(  0-C ,  2-H ) :   0.9614 B(  0-C ,  5-C ) :   1.1210 
B(  1-C ,  3-H ) :   0.9536 B(  1-C ,  4-H ) :   0.9559 B(  5-C ,  6-H ) :   0.9541 
B(  5-C ,  7-H ) :   0.9396 B(  5-C ,  8-H ) :   0.7795 B(  8-H ,  9-Br) :   0.2364 


-------
TIMINGS
-------

Total SCF time: 0 days 0 hours 0 min 2 sec 

Total time                  ....       2.850 sec
Sum of individual times     ....       2.659 sec  ( 93.3%)

SCF preparation             ....       0.307 sec  ( 10.8%)
Fock matrix formation       ....       2.184 sec  ( 76.7%)
  Startup                   ....       0.004 sec  (  0.2% of F)
  Split-RI-J                ....       0.128 sec  (  5.9% of F)
  Chain of spheres X        ....       1.666 sec  ( 76.3% of F)
  XC integration            ....       0.483 sec  ( 22.1% of F)
    XC Preparation          ....       0.000 sec  (  0.0% of XC)
    Basis function eval.    ....       0.110 sec  ( 22.8% of XC)
    Density eval.           ....       0.101 sec  ( 20.9% of XC)
    XC-Functional eval.     ....       0.037 sec  (  7.6% of XC)
    XC-Potential eval.      ....       0.129 sec  ( 26.7% of XC)
Diagonalization             ....       0.000 sec  (  0.0%)
Density matrix formation    ....       0.024 sec  (  0.9%)
Total Energy calculation    ....       0.012 sec  (  0.4%)
Population analysis         ....       0.009 sec  (  0.3%)
Orbital Transformation      ....       0.018 sec  (  0.6%)
Orbital Orthonormalization  ....       0.000 sec  (  0.0%)
DIIS solution               ....       0.067 sec  (  2.3%)
SOSCF solution              ....       0.040 sec  (  1.4%)
Finished LeanSCF after   2.9 sec

Maximum memory used throughout the entire LEANSCF-calculation: 9.1 MB

-------------------------   --------------------
FINAL SINGLE POINT ENERGY     -2691.426313137180
-------------------------   --------------------



           ************************************************************
           *        Program running with 8 parallel MPI-processes     *
           *              working on a common directory               *
           ************************************************************

------------------------------------------------------------------------------
                              ORCA PROPERTY CALCULATIONS
------------------------------------------------------------------------------

GBWName                                 ... radical_004.gbw
Number of atoms                         ...     10
Number of basis functions               ...    104
Max core memory                         ...   1200 MB

Electric properties:
Dipole moment                           ... YES
Quadrupole moment                       ...  NO
Static polarizability (Dipole/Dipole)   ...  NO
Static polarizability (Dipole/Quad.)    ...  NO
Static polarizability (Quad./Quad.)     ...  NO
Static polarizability (Velocity)        ...  NO
Static hyperpolarizability              ...  NO

Atomic electric properties:
Dipole moment                           ...  NO
Quadrupole moment                       ...  NO
Static polarizability                   ...  NO

Choice of electric origin               ... Center of mass
Position of electric origin             ...    -1.078992    -2.663678    -2.332024

General magnetic properties:
Magnetizability                         ...  NO

EPR properties:
g-Tensor (aka g-matrix)                 ...  NO
Zero-Field splitting spin-orbit         ...  NO
Zero-field splitting spin-spin          ...  NO
Hyperfine couplings                     ...  NO (   0 nuclei)
Quadrupole couplings                    ...  NO (   0 nuclei)
Contact density                         ...  NO (   0 nuclei)

NMR properties:
Chemical shifts                         ...  NO (   0 nuclei)
Spin-rotation constants                 ...  NO (   0 nuclei)
Spin-spin couplings                     ...  NO (   0 nuclei,    0 pairs)

Choice of magnetic origin               ... GIAO
Position of magnetic origin             ...     0.000000     0.000000     0.000000

Properties with geometric perturbations:
SCF Hessian                             ...  NO
IR spectrum                             ...  NO
VCD spectrum                            ...  NO
X-ray spectroscopy properties:
SCF XES/XAS/RIXS spectra                ...  NO

SCF SOC stabilization energy            ...  NO
Diagonal Born-Oppenheimer correction    ...  NO

-------------
DIPOLE MOMENT
-------------

Method             : SCF
Type of density    : Electron Density
Multiplicity       :   2
Irrep              :   0
Energy             : -2691.4263131371799318 Eh
Basis              : AO
                                X                 Y                 Z
Electronic contribution:     -6.995340660     -16.912498052     -14.942602880
Nuclear contribution   :      7.312894575      17.771840705      15.601708173
                        -----------------------------------------
Total Dipole Moment    :      0.317553914       0.859342653       0.659105292
                        -----------------------------------------
Magnitude (a.u.)       :      1.128596505
Magnitude (Debye)      :      2.868664338



--------------------
Rotational spectrum 
--------------------
 
Rotational constants in cm-1:             0.407261             0.040475             0.038344 
Rotational constants in MHz :         12209.368351          1213.397341          1149.536854 

Dipole components along the rotational axes: 
x,y,z [a.u.] :     1.114712    -0.176054     0.012380 
x,y,z [Debye]:     2.833372    -0.447493     0.031467 

 

Dipole moment calculation done in   0.0 sec 

Maximum memory used throughout the entire PROP-calculation: 5.2 MB

--------------------------------
SUGGESTED CITATIONS FOR THIS RUN
--------------------------------

Below you find a list of papers that are relevant to this ORCA run
We neither can nor want to force you to cite these papers, but we appreciate if you do
You receive ORCA, which is the product of decades of hard work by many enthusiastic individuals, for free
The only thing we kindly ask in return is that you cite our papers,
We deeply appreciate it, if you show your appreciation for ORCA by not just citing the generic ORCA reference.

Please note that relegating all ORCA citations to the supporting information does *not* help us.
SI sections are not indexed - citations you put there will not count into any citation statistics
But we need these citations in order to attract the funding resources that allow us to do what we are doing

Therefore, if you are a happy ORCA user, please consider citing a few of the papers listed below in the main body of your paper

In addition to the list printed below, the program has created the file radical_004.bibtex that contains the list in bibtex format
You can import this file easily into all common literature databanks and citation aid programs


List of essential papers. We consider these as the minimum necessary citations

  1. Neese, F.
     Software update: the ORCA program system, version 6.0
     WIRES Comput. Molec. Sci. 2025 15(1), e70019
     doi.org/10.1002/wcms.7019

List of papers to cite with high priority. The work reported in these papers was absolutely
necessary for this run to complete.
Our perspective: the developers of density functionals and basis sets usually get cited in chemistry papers
Good! But without the algorithms to do something with them, the functionals or basis sets would not do anything.
Hence, in our opinion, the algorithm design and method developments papers are equally worthy of getting cited

  1. Neese, F.
     An improvement of the resolution of the identity approximation for the formation of the Coulomb matrix
     J. Comp. Chem. 2003 24(14), 1740-1747
     doi.org/10.1002/jcc.10318
  2. Neese, F.; Wennmohs, F.; Hansen, A.; Becker, U.
     Efficient, approximate and parallel Hartree-Fock and hybrid DFT calculations. A 'chain-of-spheres' algorithm for the Hartree-Fock exchange
     Chem. Phys. 2009 356(1-3), 98-109
     doi.org/10.1016/j.chemphys.2008.10.036
  3. Helmich-Paris, B.; de Souza, B.; Neese, F.; Izsák, R.
     An improved chain of spheres for exchange algorithm
     J. Chem. Phys. 2021 155(10), 104109
     doi.org/10.1063/5.0058766
  4. Neese, F.
     The SHARK Integral Generation and Digestion System
     J. Comp. Chem. 2022 44(3), 381
     doi.org/10.1002/jcc.26942

List of suggested additional citations. These are papers that are important in the 'surrounding' of 
of this run, or papers that preceded the highly important papers. If you like your results we are grateful for a citation.

  1. Izsak, R.; Neese, F.
     An overlap fitted chain of spheres exchange method
     J. Chem. Phys. 2011 135 , 144105
     doi.org/10.1063/1.3646921
  2. Izsak, R.; Hansen, A.; Neese, F.
     The resolution of identity and chain of spheres approximations for the LPNO-CCSD singles Fock term
     Molec. Phys. 2012 110 , 2413-2417
     doi.org/10.1080/00268976.2012.687466
  3. Neese, F.
     The ORCA program system
     WIRES Comput. Molec. Sci. 2012 2(1), 73-78
     doi.org/10.1002/wcms.81
  4. Izsak, R.; Neese, F.; Klopper, W.
     Robust fitting techniques in the chain of spheres approximation to the Fock exchange: The role of the complementary space
     J. Chem. Phys. 2013 139 , 
     doi.org/10.1063/1.4819264
  5. Neese, F.
     Software update: the ORCA program system, version 4.0
     WIRES Comput. Molec. Sci. 2018 8(1), 1-6
     doi.org/10.1002/wcms.1327
  6. Neese, F.; Wennmohs, F.; Becker, U.; Riplinger, C.
     The ORCA quantum chemistry program package
     J. Chem. Phys. 2020 152(22), 224108
     doi.org/10.1063/5.0004608
  7. Neese, F.
     Software update: The ORCA program system—Version 5.0
     WIRES Comput. Molec. Sci. 2022 12(1), e1606
     doi.org/10.1002/wcms.1606

List of optional additional citations

  1. Neese, F.
     Approximate second-order SCF convergence for spin unrestricted wavefunctions
     Chem. Phys. Lett. 2000 325(1-3), 93-98
     doi.org/10.1016/s0009-2614(00)00662-x

Timings for individual modules:

Sum of individual times          ...        4.843 sec (=   0.081 min)
Startup calculation              ...        0.886 sec (=   0.015 min)  18.3 %
SCF iterations                   ...        3.457 sec (=   0.058 min)  71.4 %
Property calculations            ...        0.500 sec (=   0.008 min)  10.3 %
                             ****ORCA TERMINATED NORMALLY****
TOTAL RUN TIME: 0 days 0 hours 0 minutes 5 seconds 346 msec
