[Molden Format]
[Title]
 Molden file created by orca_2mkl for BaseName=radical_026

[Atoms] AU
C    1   6          1.1741888922         0.9157291592         0.3520597582 
C    2   6          1.3228971109         0.0876417186         2.8286497916 
H    3   1          2.9447470064         1.3423953051        -0.6378827257 
H    4   1          3.1341070137        -0.0673762956         3.8056722180 
H    5   1         -0.3840150271        -0.4123136760         3.8839597922 
C    6   6         -1.0765391840         1.2165263165        -0.9897421729 
H    7   1         -2.9024738328         0.8512573726        -0.0894086126 
H    8   1         -1.0981538715         2.0262985313        -2.8884218293 
H    9   1         -1.2828519244        -1.9606078715        -2.5615010978 
Br  10  35         -1.8491537138        -4.3351054505        -3.8653894535 
[GTO]
  1 0
s   5 1.0 
     1238.4016938000         0.8208956682
      186.2900499200         1.4766449896
       42.2511763460         2.1526124058
       11.6765579320         2.1081722461
        3.5930506482         0.8290999933
s   1 1.0 
        0.4024514736         0.3601183351
s   1 1.0 
        0.1309018267         0.1551027052
p   3 1.0 
        9.4680970621         1.3467645142
        2.0103545142         1.0678070931
        0.5477100471         0.5108735714
p   1 1.0 
        0.1526861379         0.1360471976
d   1 1.0 
        0.8000000000         1.9292013661

  2 0
s   5 1.0 
     1238.4016938000         0.8208956682
      186.2900499200         1.4766449896
       42.2511763460         2.1526124058
       11.6765579320         2.1081722461
        3.5930506482         0.8290999933
s   1 1.0 
        0.4024514736         0.3601183351
s   1 1.0 
        0.1309018267         0.1551027052
p   3 1.0 
        9.4680970621         1.3467645142
        2.0103545142         1.0678070931
        0.5477100471         0.5108735714
p   1 1.0 
        0.1526861379         0.1360471976
d   1 1.0 
        0.8000000000         1.9292013661

  3 0
s   3 1.0 
       13.0107010000         0.1634903809
        1.9622572000         0.2773515510
        0.4445379600         0.3157501452
s   1 1.0 
        0.1219496200         0.1470772262
p   1 1.0 
        0.8000000000         1.0784563492

  4 0
s   3 1.0 
       13.0107010000         0.1634903809
        1.9622572000         0.2773515510
        0.4445379600         0.3157501452
s   1 1.0 
        0.1219496200         0.1470772262
p   1 1.0 
        0.8000000000         1.0784563492

  5 0
s   3 1.0 
       13.0107010000         0.1634903809
        1.9622572000         0.2773515510
        0.4445379600         0.3157501452
s   1 1.0 
        0.1219496200         0.1470772262
p   1 1.0 
        0.8000000000         1.0784563492

  6 0
s   5 1.0 
     1238.4016938000         0.8208956682
      186.2900499200         1.4766449896
       42.2511763460         2.1526124058
       11.6765579320         2.1081722461
        3.5930506482         0.8290999933
s   1 1.0 
        0.4024514736         0.3601183351
s   1 1.0 
        0.1309018267         0.1551027052
p   3 1.0 
        9.4680970621         1.3467645142
        2.0103545142         1.0678070931
        0.5477100471         0.5108735714
p   1 1.0 
        0.1526861379         0.1360471976
d   1 1.0 
        0.8000000000         1.9292013661

  7 0
s   3 1.0 
       13.0107010000         0.1634903809
        1.9622572000         0.2773515510
        0.4445379600         0.3157501452
s   1 1.0 
        0.1219496200         0.1470772262
p   1 1.0 
        0.8000000000         1.0784563492

  8 0
s   3 1.0 
       13.0107010000         0.1634903809
        1.9622572000         0.2773515510
        0.4445379600         0.3157501452
s   1 1.0 
        0.1219496200         0.1470772262
p   1 1.0 
        0.8000000000         1.0784563492

  9 0
s   3 1.0 
       13.0107010000         0.1634903809
        1.9622572000         0.2773515510
        0.4445379600         0.3157501452
s   1 1.0 
        0.1219496200         0.1470772262
p   1 1.0 
        0.8000000000         1.0784563492

 10 0
s   6 1.0 
   113286.3877600000         7.5076141183
    17009.6263030000        13.8835270484
     3870.1842567000        22.7307285566
     1093.0357227000        30.8227297499
      356.3972179700        27.2481937511
      123.1253964300         9.6953381145
s   3 1.0 
      236.7408400700        -4.7631125758
       28.4686610700         5.6113863182
       11.8834437220         1.9900291396
s   3 1.0 
       21.2696333120        -1.5429794477
        3.6129226841         1.3310800628
        1.6626648969         0.4300130345
s   1 1.0 
        0.3482379323         0.3230852630
s   1 1.0 
        0.1301903139         0.1544699827
p   5 1.0 
     1560.2801881000       115.0180051576
      368.4785920500       143.9035925417
      117.2297884900       137.5255986684
       42.6489092480        78.9578527439
       16.0872250960        15.8580577654
p   3 1.0 
        8.6352810058         6.8437546680
        3.5613665502         3.7974971038
        1.5292626609         0.5585414278
p   1 1.0 
        0.5306429485         0.6455696201
p   1 1.0 
        0.1570275896         0.1408996918
d   4 1.0 
      104.8551864200       261.4493931636
       30.2811436880       176.6993802449
       10.6513942670        76.9545600188
        3.8699456233        17.5937671387
d   1 1.0 
        1.3240876762         4.6593398042
d   1 1.0 
        0.3890000000         0.5462379705

[5D]
[7F]
[9G]
[MO]
 Sym=     1a
 Ene= -4.82765282374547E+02
 Spin= Alpha
 Occup= 1.000000
  1       0.000005634025
  2      -0.000070268311
  3       0.000082929637
  4       0.000007460155
  5       0.000016520585
  6       0.000006681746
  7       0.000052008760
  8      -0.000064899029
  9       0.000144321731
 10      -0.000001949521
 11       0.000001879126
 12      -0.000001301046
 13      -0.000000514214
 14      -0.000007304714
 15       0.000001152985
 16      -0.000004545761
 17      -0.000177596287
 18      -0.000000878793
 19       0.000002704952
 20       0.000001847997
 21       0.000016504284
 22      -0.000029519533
 23       0.000095726557
 24      -0.000001558032
 25      -0.000000105581
 26      -0.000000426075
 27      -0.000005183245
 28      -0.000001500563
 29      -0.000005534749
 30      -0.000003098781
 31      -0.000002279376
 32       0.000004537197
 33      -0.000001052274
 34       0.000000027350
 35      -0.000012159969
 36       0.000001964513
 37       0.000001661525
 38      -0.000002547335
 39       0.000001116606
 40       0.000005931427
 41      -0.000000854567
 42       0.000001254655
 43      -0.000002958051
 44       0.000007800726
 45      -0.000150931707
 46       0.000651360690
 47      -0.000008479877
 48       0.000020328991
 49       0.000005029308
 50       0.000071358141
 51      -0.000224539734
 52      -0.000112443884
 53      -0.000002623698
 54       0.000002542812
 55       0.000012421318
 56      -0.000009880761
 57       0.000003220098
 58      -0.000024873608
 59      -0.000039915712
 60      -0.000004019815
 61       0.000007273539
 62      -0.000000676947
 63      -0.000042548958
 64      -0.000062409627
 65      -0.000006797744
 66       0.000003612469
 67      -0.000000453102
 68       0.000125890056
 69      -0.000986750209
 70      -0.000025812746
 71      -0.000143864907
 72      -0.000076618964
 73      -0.994981965772
 74      -0.015688897446
 75       0.003923036233
 76      -0.002329026084
 77       0.001722533563
 78      -0.000003239579
 79      -0.000012380702
 80      -0.000006846043
 81       0.000010467092
 82       0.000039510878
 83       0.000021902694
 84      -0.000040247722
 85      -0.000151747679
 86      -0.000084121046
 87       0.000098459434
 88       0.000385801525
 89       0.000213073062
 90      -0.000001554606
 91       0.000001742784
 92       0.000006662353
 93      -0.000005602478
 94       0.000003171799
 95       0.000004750626
 96      -0.000005361260
 97      -0.000020374336
 98       0.000017117485
 99      -0.000009795814
100      -0.000003925083
101       0.000004897239
102       0.000017235885
103      -0.000014225023
104       0.000009086667
 Sym=     1a
 Ene= -6.24483919219098E+01
 Spin= Alpha
 Occup= 1.000000
  1      -0.000013422211
  2       0.000169513653
  3      -0.000194052810
  4      -0.000018028145
  5      -0.000039351926
  6      -0.000016188463
  7      -0.000127631133
  8       0.000156649980
  9      -0.000343865515
 10       0.000004697315
 11      -0.000004304829
 12       0.000002654318
 13       0.000001645549
 14       0.000017077494
 15      -0.000002749574
 16       0.000011287550
 17       0.000422342729
 18       0.000001979698
 19      -0.000006539097
 20      -0.000004510224
 21      -0.000037812144
 22       0.000070215098
 23      -0.000227759460
 24       0.000003640760
 25       0.000000312591
 26       0.000001070686
 27       0.000012187344
 28       0.000003435756
 29       0.000013857285
 30       0.000008058064
 31       0.000005407467
 32      -0.000010748679
 33       0.000002450948
 34      -0.000000265264
 35       0.000028658631
 36      -0.000004587313
 37      -0.000003892367
 38       0.000005940227
 39      -0.000002115272
 40      -0.000014042050
 41       0.000001997889
 42      -0.000002891076
 43       0.000006922558
 44      -0.000018456966
 45       0.000362898964
 46      -0.001584318946
 47       0.000020403095
 48      -0.000047633192
 49      -0.000011632806
 50      -0.000171583307
 51       0.000543825869
 52       0.000270959285
 53       0.000006273124
 54      -0.000006140965
 55      -0.000029443044
 56       0.000023398052
 57      -0.000007457567
 58       0.000058863730
 59       0.000100229010
 60       0.000010132847
 61      -0.000016506463
 62       0.000001775187
 63       0.000101348040
 64       0.000152567513
 65       0.000016312703
 66      -0.000007947148
 67       0.000001935605
 68      -0.000330068991
 69       0.002432791905
 70       0.000065159181
 71       0.000358661815
 72       0.000191327652
 73       0.347186573272
 74      -1.046958068740
 75      -0.018589152701
 76       0.006301864678
 77      -0.004382342799
 78      -0.000080718185
 79      -0.000358995062
 80      -0.000193202348
 81      -0.000035193754
 82      -0.000138283509
 83      -0.000076218087
 84       0.000102090466
 85       0.000388606607
 86       0.000215318610
 87      -0.000242024952
 88      -0.000950984421
 89      -0.000525223512
 90       0.000011363229
 91      -0.000010467023
 92      -0.000045929328
 93       0.000040020224
 94      -0.000019567256
 95      -0.000013302194
 96       0.000014381451
 97       0.000056129984
 98      -0.000047589452
 99       0.000025901264
100       0.000008594111
101      -0.000011004235
102      -0.000037973410
103       0.000031215219
104      -0.000019795955
 Sym=     1a
 Ene= -5.62801575454532E+01
 Spin= Alpha
 Occup= 1.000000
  1       0.000014865780
  2      -0.000183800612
  3       0.000105675244
  4       0.000020585694
  5       0.000044322026
  6       0.000018500262
  7       0.000174434237
  8      -0.000178966681
  9       0.000411110629
 10      -0.000006340031
 11       0.000003571341
 12      -0.000003351201
 13      -0.000002760072
 14      -0.000020510436
 15       0.000003268074
 16      -0.000016579802
 17      -0.000452426287
 18      -0.000002752172
 19       0.000007773987
 20       0.000005076802
 21       0.000042204552
 22      -0.000079776923
 23       0.000249866529
 24      -0.000003982815
 25       0.000000788091
 26      -0.000000970445
 27      -0.000013543486
 28      -0.000003975819
 29      -0.000012822592
 30       0.000002519488
 31      -0.000007223546
 32       0.000011511741
 33      -0.000004043634
 34      -0.000001407854
 35      -0.000037408946
 36       0.000005583743
 37       0.000004285733
 38      -0.000005155418
 39       0.000001388204
 40       0.000015570798
 41      -0.000001723039
 42       0.000003577443
 43      -0.000007899425
 44       0.000016469315
 45      -0.000396106053
 46       0.001869538992
 47      -0.000028598902
 48       0.000039880470
 49       0.000004046603
 50       0.000256158481
 51      -0.000622139604
 52      -0.000290325261
 53      -0.000009737268
 54       0.000008321247
 55       0.000045279360
 56      -0.000039311941
 57       0.000008414370
 58      -0.000060562815
 59      -0.000103634526
 60      -0.000015041910
 61       0.000025077620
 62      -0.000002300938
 63      -0.000115300668
 64      -0.000180780524
 65      -0.000024362300
 66       0.000016597287
 67      -0.000003916823
 68       0.000605039914
 69      -0.002821815472
 70      -0.000181503673
 71      -0.000852585851
 72      -0.000461960209
 73       0.000180509829
 74      -0.000537726334
 75       0.000271513676
 76      -0.001000471085
 77       0.001954389663
 78       0.173706561012
 79       0.862289721707
 80       0.455808241664
 81       0.004201281694
 82       0.020805029258
 83       0.011002221973
 84      -0.001158151271
 85      -0.005584339245
 86      -0.002966488181
 87       0.000628662668
 88       0.002846351078
 89       0.001528860362
 90      -0.000011571924
 91       0.000010957050
 92       0.000046689937
 93      -0.000040701009
 94       0.000020019449
 95       0.000007384466
 96      -0.000008745572
 97      -0.000031006844
 98       0.000025930756
 99      -0.000015332991
100       0.000034704485
101      -0.000031990278
102      -0.000144044011
103       0.000125187387
104      -0.000058733059
 Sym=     1a
 Ene= -5.62779966042316E+01
 Spin= Alpha
 Occup= 1.000000
  1       0.000000785602
  2      -0.000012376275
  3       0.000134133046
  4       0.000002841115
  5       0.000008590281
  6      -0.000003074331
  7      -0.000066186014
  8      -0.000107555596
  9       0.000109170558
 10       0.000000691429
 11      -0.000000278213
 12      -0.000000773341
 13       0.000003992046
 14       0.000005051585
 15       0.000000248410
 16      -0.000004185680
 17      -0.000181926473
 18       0.000006391813
 19      -0.000009402048
 20       0.000001936575
 21      -0.000023222589
 22       0.000025258922
 23       0.000049425951
 24      -0.000000669627
 25      -0.000002633112
 26      -0.000002631969
 27      -0.000002663889
 28       0.000001037494
 29       0.000009665770
 30       0.000046327198
 31      -0.000001696538
 32       0.000006659299
 33       0.000002882205
 34       0.000012400108
 35       0.000033289398
 36      -0.000001991927
 37      -0.000004246934
 38      -0.000005954555
 39      -0.000002391069
 40       0.000030742485
 41      -0.000000613915
 42      -0.000003836445
 43      -0.000006559993
 44      -0.000003613015
 45       0.000055590163
 46      -0.000181030747
 47      -0.000015505746
 48      -0.000024110791
 49       0.000009664261
 50       0.000069552373
 51       0.000148039223
 52      -0.000052658129
 53       0.000005693953
 54       0.000004569112
 55      -0.000001393431
 56      -0.000001648004
 57      -0.000002726876
 58       0.000113175785
 59      -0.000114095386
 60      -0.000013660457
 61      -0.000004531939
 62       0.000013499875
 63      -0.000054647109
 64       0.000095585860
 65      -0.000010927588
 66      -0.000020466593
 67       0.000006416534
 68      -0.000002009698
 69       0.000205149254
 70      -0.000020572805
 71       0.000005624892
 72       0.000022152803
 73      -0.000001844881
 74       0.000005289257
 75      -0.000005998152
 76       0.000040721555
 77      -0.000132610824
 78      -0.675314546693
 79      -0.227771022059
 80       0.688257425388
 81      -0.016131411035
 82      -0.005443349384
 83       0.016436888992
 84       0.003903450111
 85       0.001328143655
 86      -0.003962766909
 87      -0.001448231259
 88      -0.000550389712
 89       0.001414255106
 90       0.000020991450
 91      -0.000007300520
 92       0.000016797650
 93       0.000003511666
 94      -0.000023896093
 95      -0.000007653530
 96       0.000004630102
 97      -0.000001395165
 98      -0.000005160146
 99       0.000010117703
100       0.000003383587
101      -0.000005120788
102      -0.000009489728
103       0.000010327283
104      -0.000006984037
 Sym=     1a
 Ene= -5.62779747602517E+01
 Spin= Alpha
 Occup= 1.000000
  1      -0.000009026249
  2       0.000099827038
  3      -0.000385567491
  4      -0.000020871795
  5      -0.000030334087
  6      -0.000020654249
  7       0.000205637925
  8       0.000150991432
  9       0.000112225081
 10      -0.000009010892
 11      -0.000006695405
 12       0.000005208815
 13      -0.000011486376
 14      -0.000009935133
 15      -0.000000600615
 16      -0.000007254932
 17       0.000116853049
 18       0.000001143490
 19      -0.000004610494
 20      -0.000003234000
 21      -0.000109874887
 22      -0.000039451434
 23      -0.000045081216
 24       0.000004318817
 25       0.000003106282
 26       0.000007387499
 27       0.000004723622
 28      -0.000002492398
 29       0.000003942090
 30      -0.000021338603
 31      -0.000003249170
 32      -0.000018378457
 33      -0.000018786626
 34       0.000010214942
 35       0.000032129397
 36       0.000000621406
 37       0.000002120780
 38       0.000003416495
 39      -0.000013466729
 40      -0.000070548497
 41      -0.000001426783
 42       0.000001628966
 43       0.000006429180
 44       0.000002659435
 45      -0.000063176997
 46       0.000482277028
 47       0.000024205439
 48       0.000027772116
 49       0.000036160879
 50       0.000013126053
 51      -0.000221746311
 52      -0.000100603403
 53       0.000005273449
 54      -0.000007474361
 55      -0.000001240857
 56      -0.000006503658
 57      -0.000000265418
 58      -0.000061021109
 59       0.000016344888
 60       0.000011387409
 61       0.000012423102
 62       0.000017396715
 63      -0.000099310811
 64       0.000080568234
 65       0.000009835540
 66       0.000006364151
 67       0.000014985820
 68       0.000005829486
 69      -0.000387972455
 70       0.000023512256
 71      -0.000052727117
 72      -0.000001692501
 73       0.000004388730
 74      -0.000012645985
 75       0.000013989532
 76      -0.000079378526
 77       0.000243699292
 78       0.703844025324
 79      -0.431387431944
 80       0.547846039669
 81       0.016814980068
 82      -0.010295447662
 83       0.013090276714
 84      -0.004076151001
 85       0.002458402913
 86      -0.003180990873
 87       0.001527613573
 88      -0.000787083879
 89       0.001229662814
 90       0.000015360286
 91       0.000017069500
 92       0.000012476498
 93       0.000017248933
 94       0.000020680357
 95      -0.000003514436
 96      -0.000008316350
 97      -0.000011216266
 98      -0.000000743244
 99      -0.000010868714
100      -0.000002356706
101       0.000005842563
102       0.000014494662
103      -0.000009214071
104       0.000008572934
 Sym=     1a
 Ene= -1.02158860770795E+01
 Spin= Alpha
 Occup= 1.000000
  1      -0.133523214920
  2      -0.003886225656
  3      -0.003520917752
  4      -0.001878359193
  5       0.000683823819
  6      -0.001143036709
  7      -0.000671337524
  8      -0.001303852857
  9       0.004545113127
 10      -0.000136409954
 11       0.001104269203
 12      -0.000329492062
 13       0.000993480111
 14      -0.000435082860
 15      -0.025535152614
 16      -0.000485462084
 17      -0.004597412268
 18      -0.000264933273
 19       0.000101556020
 20      -0.000180809092
 21       0.004855031730
 22      -0.000538096240
 23       0.002453314993
 24      -0.000049016907
 25      -0.000051212678
 26       0.000074411265
 27      -0.000221436830
 28      -0.000050923196
 29       0.000882200419
 30       0.000619329294
 31       0.000191537023
 32      -0.000030449784
 33       0.000288706674
 34      -0.000690103408
 35      -0.001995044959
 36      -0.000025999761
 37       0.000007060136
 38       0.000053578410
 39       0.000986310305
 40       0.001724908634
 41       0.000025921876
 42       0.000070282359
 43      -0.000110325792
 44      -0.978511813618
 45      -0.051639062834
 46       0.043995929094
 47       0.000719425657
 48       0.000783279495
 49       0.000751388564
 50       0.002041911515
 51      -0.005665747316
 52      -0.002053523340
 53      -0.000805321411
 54       0.000218614809
 55       0.001414016683
 56      -0.001427986627
 57      -0.000143396873
 58       0.003071934763
 59      -0.007473472807
 60       0.002389966588
 61       0.000930245350
 62      -0.001379985872
 63       0.003053547133
 64      -0.007852385658
 65      -0.000276810036
 66      -0.000891229646
 67       0.002838661058
 68      -0.000917531041
 69      -0.014949676875
 70       0.000037527200
 71       0.000000306913
 72      -0.000082814215
 73       0.000011228400
 74      -0.000020109889
 75       0.000195223895
 76      -0.002264946775
 77       0.009192828195
 78      -0.000006205963
 79      -0.000014672246
 80      -0.000004667686
 81       0.000022156251
 82       0.000053557561
 83       0.000017962853
 84      -0.000163264035
 85      -0.000488461384
 86      -0.000224590829
 87       0.001235019772
 88       0.004745721959
 89       0.002542845613
 90      -0.000014176908
 91       0.000017329633
 92       0.000056952149
 93      -0.000047263868
 94       0.000032909589
 95       0.000067741408
 96      -0.000082402922
 97      -0.000275430935
 98       0.000228652639
 99      -0.000155865088
100      -0.000224925651
101       0.000260909037
102       0.000935986749
103      -0.000783513969
104       0.000487766633
 Sym=     1a
 Ene= -1.02143930716406E+01
 Spin= Alpha
 Occup= 1.000000
  1       0.766358250927
  2       0.035316103822
  3      -0.028666410265
  4      -0.000169018353
  5       0.000352554045
  6      -0.001885632684
  7       0.002939060166
  8       0.002446252662
  9      -0.005993429651
 10      -0.000241593055
 11      -0.000021941663
 12      -0.000340265654
 13       0.001459007502
 14       0.000257060891
 15       0.612853084775
 16       0.026852378002
 17      -0.003832683779
 18       0.000070810220
 19      -0.000754038487
 20       0.002184691598
 21      -0.000744088544
 22       0.001372652277
 23      -0.004299462454
 24      -0.000517086825
 25       0.000084011576
 26       0.000009223879
 27       0.000996754237
 28       0.000172806429
 29      -0.003771775090
 30       0.004125878869
 31       0.002017809657
 32       0.000249704505
 33      -0.000604522779
 34      -0.002668491578
 35       0.003765900381
 36       0.001441047332
 37      -0.000058730609
 38       0.000573830700
 39      -0.002593360424
 40       0.003615565462
 41      -0.001347827535
 42      -0.000296265396
 43       0.000532534803
 44      -0.119862441587
 45      -0.007715950452
 46       0.008315312342
 47      -0.001359718443
 48      -0.000151550536
 49      -0.001138694524
 50      -0.001414468462
 51       0.000633978032
 52       0.005603299988
 53       0.000045531623
 54      -0.000698887991
 55       0.000364630603
 56      -0.001094966446
 57       0.000038395394
 58       0.000210843182
 59      -0.003472689696
 60       0.000652120674
 61      -0.000009305989
 62      -0.000121225629
 63       0.001790458202
 64      -0.000119016402
 65       0.000320193813
 66      -0.000302925490
 67       0.000522316818
 68      -0.000416821929
 69       0.007642398927
 70       0.000182381812
 71      -0.000189792801
 72      -0.000060501322
 73      -0.000008411525
 74       0.000015352717
 75      -0.000145257168
 76       0.001457546290
 77      -0.005137883753
 78      -0.000004148037
 79       0.000023552274
 80       0.000004618649
 81       0.000013354496
 82      -0.000082365487
 83      -0.000017078174
 84      -0.000005035509
 85       0.000504463366
 86       0.000165648129
 87      -0.000527385770
 88      -0.002915138310
 89      -0.001435876216
 90       0.000011125704
 91      -0.000006356095
 92      -0.000040968078
 93       0.000037443566
 94      -0.000018055090
 95      -0.000052274004
 96       0.000032641992
 97       0.000195128509
 98      -0.000176658020
 99       0.000087584829
100       0.000153042071
101      -0.000120233381
102      -0.000598531543
103       0.000527980657
104      -0.000276187252
 Sym=     1a
 Ene= -1.02139739923815E+01
 Spin= Alpha
 Occup= 1.000000
  1       0.609476742038
  2       0.032738253283
  3      -0.034203577578
  4       0.000361378125
  5      -0.000657179273
  6       0.001545879043
  7       0.002679711452
  8       0.000246610328
  9       0.000169954706
 10       0.001569108110
 11       0.000077352846
 12      -0.001542912265
 13       0.001415549622
 14       0.000223391500
 15      -0.774619397842
 16      -0.040678763895
 17       0.033168750655
 18       0.000125807942
 19      -0.000400714010
 20       0.001063270909
 21      -0.001916503266
 22       0.000705480908
 23      -0.002495776530
 24      -0.001347854079
 25      -0.000153228756
 26       0.001547267976
 27      -0.001713590474
 28      -0.000294113462
 29      -0.002653643234
 30       0.005305787936
 31       0.001644939355
 32       0.000528592943
 33      -0.001395583439
 34       0.003873831998
 35      -0.005675560043
 36      -0.002294505798
 37       0.000200730573
 38      -0.001269632870
 39       0.003248194313
 40      -0.006745191111
 41       0.002149924230
 42       0.000632563183
 43      -0.001354488835
 44      -0.062439193918
 45      -0.004769366537
 46       0.010634643774
 47      -0.001410783814
 48      -0.000063007053
 49      -0.000744668833
 50       0.003727016870
 51       0.001429166676
 52       0.000171528433
 53      -0.000091548283
 54      -0.000695270584
 55       0.000373554696
 56      -0.001013090962
 57       0.000086810937
 58       0.001004654790
 59       0.000097462513
 60       0.000535131583
 61      -0.000014226206
 62      -0.000097727246
 63       0.000096605782
 64      -0.001934180203
 65       0.000040929703
 66      -0.000185696026
 67       0.000387290914
 68      -0.000114847453
 69       0.003174454614
 70       0.000163957249
 71      -0.000086510755
 72       0.000194261081
 73      -0.000003533917
 74       0.000006483902
 75      -0.000060919686
 76       0.000592987685
 77      -0.002117792504
 78      -0.000004492127
 79       0.000010846264
 80       0.000000994184
 81       0.000014927620
 82      -0.000037985316
 83      -0.000004083562
 84      -0.000041693941
 85       0.000218301135
 86       0.000057291306
 87      -0.000149902972
 88      -0.001205923256
 89      -0.000580041549
 90       0.000004081151
 91      -0.000001144489
 92      -0.000017348962
 93       0.000017167569
 94      -0.000006623319
 95      -0.000017778572
 96       0.000006919772
 97       0.000081281881
 98      -0.000077843886
 99       0.000031908312
100       0.000046561814
101      -0.000034287256
102      -0.000240739266
103       0.000213028015
104      -0.000100527837
 Sym=     1a
 Ene= -8.66635466913984E+00
 Spin= Alpha
 Occup= 1.000000
  1       0.000034299176
  2      -0.000383635894
  3       0.000446725809
  4       0.000039526740
  5       0.000077993270
  6       0.000036088326
  7       0.000265251599
  8      -0.000355641929
  9       0.000644292344
 10      -0.000009522840
 11       0.000008798978
 12       0.000002724836
 13      -0.000008167604
 14      -0.000027587468
 15       0.000008017538
 16      -0.000031309314
 17      -0.000831791443
 18      -0.000001298521
 19       0.000015281946
 20       0.000011569257
 21       0.000056182577
 22      -0.000133134860
 23       0.000447110778
 24      -0.000006101753
 25      -0.000002432596
 26      -0.000004047726
 27      -0.000023026785
 28      -0.000004415813
 29      -0.000041788773
 30      -0.000030635002
 31      -0.000009381033
 32       0.000021741524
 33      -0.000000985775
 34       0.000004561680
 35      -0.000050254564
 36       0.000007169317
 37       0.000007139957
 38      -0.000011223778
 39      -0.000003706690
 40       0.000028371239
 41      -0.000003124560
 42       0.000003881847
 43      -0.000011585902
 44       0.000041818580
 45      -0.000762196369
 46       0.003550666226
 47      -0.000043028898
 48       0.000079128357
 49       0.000016925760
 50       0.000330104343
 51      -0.001217932123
 52      -0.000603683034
 53      -0.000013925666
 54       0.000013550274
 55       0.000056416146
 56      -0.000044756044
 57       0.000010893114
 58      -0.000101872162
 59      -0.000259822183
 60      -0.000024150836
 61       0.000013903417
 62      -0.000010469381
 63      -0.000189239615
 64      -0.000339428546
 65      -0.000033137315
 66      -0.000004047662
 67      -0.000015321833
 68       0.001012423934
 69      -0.006397386504
 70      -0.000138650999
 71      -0.000753306078
 72      -0.000403521693
 73      -0.136659799190
 74       0.516877666985
 75      -1.093410406860
 76      -0.032290816365
 77       0.014220002190
 78       0.000339766210
 79       0.001469788495
 80       0.000795470587
 81      -0.000798334920
 82      -0.003461743264
 83      -0.001872480413
 84      -0.000300423948
 85      -0.001197700217
 86      -0.000660135868
 87       0.000636435880
 88       0.002544857690
 89       0.001403937643
 90       0.000182600900
 91      -0.000161982310
 92      -0.000718847166
 93       0.000629854598
 94      -0.000301467330
 95       0.000146551014
 96      -0.000142540370
 97      -0.000591038333
 98       0.000509904294
 99      -0.000253877160
100      -0.000027018356
101       0.000034831153
102       0.000119684617
103      -0.000097990531
104       0.000056392627
 Sym=     1a
 Ene= -6.49910470623221E+00
 Spin= Alpha
 Occup= 1.000000
  1      -0.000017570805
  2       0.000225216657
  3      -0.000315746788
  4      -0.000023976054
  5      -0.000044562719
  6      -0.000020716938
  7      -0.000092057594
  8       0.000207855350
  9      -0.000322643963
 10       0.000004576554
 11      -0.000005618269
 12      -0.000002332819
 13       0.000003923180
 14       0.000013849768
 15      -0.000004580285