[Molden Format]
[Title]
 Molden file created by orca_2mkl for BaseName=radical_034

[Atoms] AU
C    1   6          1.1724408955         0.9397154530         0.3626573424 
C    2   6          1.3255257199         0.0923528059         2.8353620989 
H    3   1          2.9429857816         1.3693295717        -0.6252121120 
H    4   1          3.1409232558        -0.0916025846         3.7995854101 
H    5   1         -0.3792604762        -0.4029292960         3.8957082196 
C    6   6         -1.0762765120         1.2593002676        -0.9739176063 
H    7   1         -2.9041046664         0.8941201408        -0.0778453784 
H    8   1         -1.0921728883         2.0505342690        -2.8805586788 
H    9   1         -1.2847756656        -2.0470155990        -2.5923433180 
Br  10  35         -1.8625329749        -4.3993542494        -3.9054403092 
[GTO]
  1 0
s   5 1.0 
     1238.4016938000         0.8208956682
      186.2900499200         1.4766449896
       42.2511763460         2.1526124058
       11.6765579320         2.1081722461
        3.5930506482         0.8290999933
s   1 1.0 
        0.4024514736         0.3601183351
s   1 1.0 
        0.1309018267         0.1551027052
p   3 1.0 
        9.4680970621         1.3467645142
        2.0103545142         1.0678070931
        0.5477100471         0.5108735714
p   1 1.0 
        0.1526861379         0.1360471976
d   1 1.0 
        0.8000000000         1.9292013661

  2 0
s   5 1.0 
     1238.4016938000         0.8208956682
      186.2900499200         1.4766449896
       42.2511763460         2.1526124058
       11.6765579320         2.1081722461
        3.5930506482         0.8290999933
s   1 1.0 
        0.4024514736         0.3601183351
s   1 1.0 
        0.1309018267         0.1551027052
p   3 1.0 
        9.4680970621         1.3467645142
        2.0103545142         1.0678070931
        0.5477100471         0.5108735714
p   1 1.0 
        0.1526861379         0.1360471976
d   1 1.0 
        0.8000000000         1.9292013661

  3 0
s   3 1.0 
       13.0107010000         0.1634903809
        1.9622572000         0.2773515510
        0.4445379600         0.3157501452
s   1 1.0 
        0.1219496200         0.1470772262
p   1 1.0 
        0.8000000000         1.0784563492

  4 0
s   3 1.0 
       13.0107010000         0.1634903809
        1.9622572000         0.2773515510
        0.4445379600         0.3157501452
s   1 1.0 
        0.1219496200         0.1470772262
p   1 1.0 
        0.8000000000         1.0784563492

  5 0
s   3 1.0 
       13.0107010000         0.1634903809
        1.9622572000         0.2773515510
        0.4445379600         0.3157501452
s   1 1.0 
        0.1219496200         0.1470772262
p   1 1.0 
        0.8000000000         1.0784563492

  6 0
s   5 1.0 
     1238.4016938000         0.8208956682
      186.2900499200         1.4766449896
       42.2511763460         2.1526124058
       11.6765579320         2.1081722461
        3.5930506482         0.8290999933
s   1 1.0 
        0.4024514736         0.3601183351
s   1 1.0 
        0.1309018267         0.1551027052
p   3 1.0 
        9.4680970621         1.3467645142
        2.0103545142         1.0678070931
        0.5477100471         0.5108735714
p   1 1.0 
        0.1526861379         0.1360471976
d   1 1.0 
        0.8000000000         1.9292013661

  7 0
s   3 1.0 
       13.0107010000         0.1634903809
        1.9622572000         0.2773515510
        0.4445379600         0.3157501452
s   1 1.0 
        0.1219496200         0.1470772262
p   1 1.0 
        0.8000000000         1.0784563492

  8 0
s   3 1.0 
       13.0107010000         0.1634903809
        1.9622572000         0.2773515510
        0.4445379600         0.3157501452
s   1 1.0 
        0.1219496200         0.1470772262
p   1 1.0 
        0.8000000000         1.0784563492

  9 0
s   3 1.0 
       13.0107010000         0.1634903809
        1.9622572000         0.2773515510
        0.4445379600         0.3157501452
s   1 1.0 
        0.1219496200         0.1470772262
p   1 1.0 
        0.8000000000         1.0784563492

 10 0
s   6 1.0 
   113286.3877600000         7.5076141183
    17009.6263030000        13.8835270484
     3870.1842567000        22.7307285566
     1093.0357227000        30.8227297499
      356.3972179700        27.2481937511
      123.1253964300         9.6953381145
s   3 1.0 
      236.7408400700        -4.7631125758
       28.4686610700         5.6113863182
       11.8834437220         1.9900291396
s   3 1.0 
       21.2696333120        -1.5429794477
        3.6129226841         1.3310800628
        1.6626648969         0.4300130345
s   1 1.0 
        0.3482379323         0.3230852630
s   1 1.0 
        0.1301903139         0.1544699827
p   5 1.0 
     1560.2801881000       115.0180051576
      368.4785920500       143.9035925417
      117.2297884900       137.5255986684
       42.6489092480        78.9578527439
       16.0872250960        15.8580577654
p   3 1.0 
        8.6352810058         6.8437546680
        3.5613665502         3.7974971038
        1.5292626609         0.5585414278
p   1 1.0 
        0.5306429485         0.6455696201
p   1 1.0 
        0.1570275896         0.1408996918
d   4 1.0 
      104.8551864200       261.4493931636
       30.2811436880       176.6993802449
       10.6513942670        76.9545600188
        3.8699456233        17.5937671387
d   1 1.0 
        1.3240876762         4.6593398042
d   1 1.0 
        0.3890000000         0.5462379705

[5D]
[7F]
[9G]
[MO]
 Sym=     1a
 Ene= -4.82767685055028E+02
 Spin= Alpha
 Occup= 1.000000
  1       0.000005660470
  2      -0.000068500977
  3       0.000076378069
  4       0.000007624779
  5       0.000016625063
  6       0.000006936956
  7       0.000054505309
  8      -0.000065504905
  9       0.000144321924
 10      -0.000001762993
 11       0.000001560092
 12      -0.000001730353
 13      -0.000000569498
 14      -0.000007273624
 15       0.000001108757
 16      -0.000003993495
 17      -0.000176153540
 18      -0.000000968553
 19       0.000002772010
 20       0.000001817143
 21       0.000016949090
 22      -0.000030464191
 23       0.000095438896
 24      -0.000001715951
 25       0.000000067172
 26      -0.000000338772
 27      -0.000005070566
 28      -0.000001505539
 29      -0.000005113285
 30      -0.000003326505
 31      -0.000002402829
 32       0.000004866107
 33      -0.000001166922
 34      -0.000000262372
 35      -0.000012492078
 36       0.000002108232
 37       0.000001657796
 38      -0.000002471945
 39       0.000001376650
 40       0.000005674226
 41      -0.000000961144
 42       0.000001427855
 43      -0.000003090747
 44       0.000008122197
 45      -0.000147629224
 46       0.000614561284
 47      -0.000008255760
 48       0.000022895304
 49       0.000005844427
 50       0.000073112834
 51      -0.000207440619
 52      -0.000100524383
 53      -0.000001653846
 54       0.000002334958
 55       0.000009454098
 56      -0.000006720418
 57       0.000003143834
 58      -0.000025901991
 59      -0.000039742760
 60      -0.000004424980
 61       0.000008164265
 62      -0.000000160910
 63      -0.000042245926
 64      -0.000063743149
 65      -0.000006630913
 66       0.000005057840
 67      -0.000000600035
 68       0.000133554250
 69      -0.000911958799
 70      -0.000027585273
 71      -0.000146136087
 72      -0.000078597722
 73      -0.994981995464
 74      -0.015688832158
 75       0.003922684793
 76      -0.002319196968
 77       0.001678843448
 78      -0.000003326854
 79      -0.000012390870
 80      -0.000006990841
 81       0.000010723862
 82       0.000039483256
 83       0.000022334840
 84      -0.000040803022
 85      -0.000150093866
 86      -0.000084897683
 87       0.000094407924
 88       0.000359807303
 89       0.000202484217
 90      -0.000001374571
 91       0.000001683113
 92       0.000006291500
 93      -0.000005178351
 94       0.000003003497
 95       0.000004070597
 96      -0.000005024944
 97      -0.000018667218
 98       0.000015347567
 99      -0.000009002625
100      -0.000002086297
101       0.000003150623
102       0.000010243852
103      -0.000008122363
104       0.000005770802
 Sym=     1a
 Ene= -6.24507719428575E+01
 Spin= Alpha
 Occup= 1.000000
  1       0.000013539535
  2      -0.000165992155
  3       0.000181821889
  4       0.000018470462
  5       0.000039811242
  6       0.000016874039
  7       0.000132525193
  8      -0.000158556793
  9       0.000343737381
 10      -0.000004230499
 11       0.000003604360
 12      -0.000003720053
 13      -0.000001686567
 14      -0.000017018960
 15       0.000002654994
 16      -0.000009968596
 17      -0.000420134751
 18      -0.000002211807
 19       0.000006739689
 20       0.000004462738
 21       0.000039422299
 22      -0.000072553278
 23       0.000227656465
 24      -0.000004032109
 25       0.000000066531
 26      -0.000000890906
 27      -0.000011950242
 28      -0.000003449661
 29      -0.000012940674
 30      -0.000008745001
 31      -0.000005655473
 32       0.000011596062
 33      -0.000002634770
 34      -0.000000462955
 35      -0.000029617463
 36       0.000004924491
 37       0.000003898849
 38      -0.000005792127
 39       0.000002794751
 40       0.000013654270
 41      -0.000002249733
 42       0.000003309266
 43      -0.000007249426
 44       0.000019295859
 45      -0.000355806401
 46       0.001494138385
 47      -0.000019865227
 48       0.000053975465
 49       0.000013643130
 50       0.000175142648
 51      -0.000503099066
 52      -0.000242931979
 53      -0.000004035991
 54       0.000005680281
 55       0.000022556316
 56      -0.000016025236
 57       0.000007306528
 58      -0.000061458034
 59      -0.000099420011
 60      -0.000010950420
 61       0.000018620159
 62      -0.000000619872
 63      -0.000100632157
 64      -0.000155657062
 65      -0.000015886981
 66       0.000011308276
 67      -0.000002148702
 68       0.000348676672
 69      -0.002254621156
 70      -0.000069325738
 71      -0.000363338774
 72      -0.000195800961
 73      -0.347186613416
 74       1.046958221458
 75       0.018588149673
 76      -0.006278591353
 77       0.004278893060
 78       0.000085495018
 79       0.000366086456
 80       0.000200701482
 81       0.000036361303
 82       0.000139027895
 83       0.000078133839
 84      -0.000103720039
 85      -0.000384969675
 86      -0.000217590623
 87       0.000232722327
 88       0.000889407469
 89       0.000500494144
 90      -0.000010678436
 91       0.000010760974
 92       0.000045656099
 93      -0.000038960591
 94       0.000019761345
 95       0.000011652002
 96      -0.000013747941
 97      -0.000052405165
 98       0.000043519287
 99      -0.000024287218
100      -0.000004303708
101       0.000006908337
102       0.000021629904
103      -0.000016989111
104       0.000012062777
 Sym=     1a
 Ene= -5.62825323111670E+01
 Spin= Alpha
 Occup= 1.000000
  1       0.000015268282
  2      -0.000181731184
  3       0.000086018872
  4       0.000021967762
  5       0.000044919424
  6       0.000019946096
  7       0.000185573401
  8      -0.000181949178
  9       0.000416500466
 10      -0.000005896781
 11       0.000002437241
 12      -0.000004234621
 13      -0.000003598363
 14      -0.000020621869
 15       0.000003083229
 16      -0.000014075793
 17      -0.000455391591
 18      -0.000003227400
 19       0.000007973605
 20       0.000004714416
 21       0.000045419226
 22      -0.000083328949
 23       0.000253291645
 24      -0.000004466228
 25       0.000001327623
 26      -0.000000684214
 27      -0.000013415639
 28      -0.000004154406
 29      -0.000011504459
 30       0.000000801918
 31      -0.000007697113
 32       0.000012537553
 33      -0.000004361737
 34      -0.000002606851
 35      -0.000039346028
 36       0.000006155711
 37       0.000004263764
 38      -0.000005028906
 39       0.000002678767
 40       0.000015269662
 41      -0.000002157785
 42       0.000004115831
 43      -0.000008505064
 44       0.000018932588
 45      -0.000398391137
 46       0.001800447544
 47      -0.000027907929
 48       0.000053122239
 49       0.000008939450
 50       0.000261492906
 51      -0.000583642542
 52      -0.000257922514
 53      -0.000005574213
 54       0.000007564055
 55       0.000032067200
 56      -0.000025136817
 57       0.000008074246
 58      -0.000067103960
 59      -0.000109085742
 60      -0.000017201189
 61       0.000026905792
 62      -0.000000925727
 63      -0.000117166353
 64      -0.000188269506
 65      -0.000023876478
 66       0.000020321016
 67      -0.000005218217
 68       0.000637997905
 69      -0.002626947974
 70      -0.000190140503
 71      -0.000862239874
 72      -0.000473577661
 73       0.000184557441
 74      -0.000550008511
 75       0.000273447223
 76      -0.000980004959
 77       0.001838510127
 78       0.181757788475
 79       0.857852993088
 80       0.461008882348
 81       0.004395497927
 82       0.020700485966
 83       0.011129421798
 84      -0.001209005152
 85      -0.005559375784
 86      -0.003003310774
 87       0.000634832001
 88       0.002766317728
 89       0.001510962649
 90      -0.000011022288
 91       0.000011393168
 92       0.000047060363
 93      -0.000040171029
 94       0.000020466337
 95       0.000005966745
 96      -0.000007884382
 97      -0.000027094605
 98       0.000022093266
 99      -0.000013487463
100       0.000038584449
101      -0.000039340783
102      -0.000168353113
103       0.000143073843
104      -0.000071003961
 Sym=     1a
 Ene= -5.62803685072053E+01
 Spin= Alpha
 Occup= 1.000000
  1       0.000000913158
  2      -0.000014254412
  3       0.000139514034
  4       0.000002954382
  5       0.000008383695
  6      -0.000002390398
  7      -0.000063629908
  8      -0.000099040108
  9       0.000095406518
 10       0.000000870002
 11       0.000000051839
 12      -0.000001071761
 13       0.000003804541
 14       0.000004417703
 15       0.000000178476
 16      -0.000002552655
 17      -0.000172568389
 18       0.000005667817
 19      -0.000008665913
 20       0.000001582244
 21      -0.000018032810
 22       0.000022905166
 23       0.000048282144
 24      -0.000000811555
 25      -0.000002500690
 26      -0.000002244068
 27      -0.000002744538
 28       0.000001028041
 29       0.000008016338
 30       0.000039764217
 31      -0.000001327061
 32       0.000006168317
 33       0.000002999110
 34       0.000011173659
 35       0.000029941555
 36      -0.000001891243
 37      -0.000003809192
 38      -0.000005682040
 39      -0.000001653198
 40       0.000029752085
 41      -0.000000609191
 42      -0.000003510706
 43      -0.000006232440
 44      -0.000003257379
 45       0.000048820249
 46      -0.000165664710
 47      -0.000014263608
 48      -0.000021927337
 49       0.000008251096
 50       0.000055104161
 51       0.000125738308
 52      -0.000042836681
 53       0.000004416758
 54       0.000004227047
 55      -0.000000245069
 56      -0.000002126398
 57      -0.000002057295
 58       0.000103554480
 59      -0.000111829864
 60      -0.000013357294
 61      -0.000004945963
 62       0.000011800590
 63      -0.000049890324
 64       0.000100240684
 65      -0.000009480670
 66      -0.000019326196
 67       0.000007512357
 68      -0.000002027341
 69       0.000165679997
 70      -0.000021474280
 71       0.000003276814
 72       0.000021770084
 73      -0.000001494797
 74       0.000004275945
 75      -0.000005006814
 76       0.000034083245
 77      -0.000109596902
 78      -0.676787857614
 79      -0.226006525573
 80       0.687391715105
 81      -0.016165933364
 82      -0.005400501357
 83       0.016416071538
 84       0.003909872309
 85       0.001315249544
 86      -0.003957855161
 87      -0.001445949220
 88      -0.000533858547
 89       0.001416624451
 90       0.000021548761
 91      -0.000007377870
 92       0.000017158396
 93       0.000003119882
 94      -0.000024190783
 95      -0.000007231881
 96       0.000004244650
 97      -0.000001729978
 98      -0.000004430781
 99       0.000009342274
100       0.000001999037
101      -0.000004155451
102      -0.000008799062
103       0.000008761424
104      -0.000004982097
 Sym=     1a
 Ene= -5.62803467696142E+01
 Spin= Alpha
 Occup= 1.000000
  1      -0.000008147990
  2       0.000091087486
  3      -0.000380304035
  4      -0.000019411493
  5      -0.000027384862
  6      -0.000018761794
  7       0.000214183320
  8       0.000137980335
  9       0.000116336392
 10      -0.000008543870
 11      -0.000006900324
 12       0.000004841431
 13      -0.000011256192
 14      -0.000009623664
 15      -0.000000581164
 16      -0.000006010516
 17       0.000102666655
 18       0.000000768591
 19      -0.000004055283
 20      -0.000003293038
 21      -0.000105777853
 22      -0.000038460191
 23      -0.000035893065
 24       0.000003930160
 25       0.000003184672
 26       0.000006980001
 27       0.000004114183
 28      -0.000002589376
 29       0.000001942718
 30      -0.000024325723
 31      -0.000003216425
 32      -0.000016525234
 33      -0.000018404645
 34       0.000009609856
 35       0.000029812095
 36       0.000000894532
 37       0.000002116123
 38       0.000003135228
 39      -0.000012740303
 40      -0.000068584346
 41      -0.000001457083
 42       0.000001631188
 43       0.000005927864
 44       0.000003222103
 45      -0.000066353700
 46       0.000483541713
 47       0.000022243976
 48       0.000029615278
 49       0.000034591265
 50       0.000028259120
 51      -0.000218234640
 52      -0.000079466041
 53       0.000004922578
 54      -0.000007093595
 55      -0.000002418087
 56      -0.000004395054
 57      -0.000000619622
 58      -0.000060766973
 59       0.000013469002
 60       0.000009778254
 61       0.000013661775
 62       0.000015738244
 63      -0.000095371144
 64       0.000081663614
 65       0.000008192856
 66       0.000007288719
 67       0.000015378358
 68       0.000009241684
 69      -0.000368169449
 70       0.000024339948
 71      -0.000050074787
 72       0.000000612656
 73       0.000004320173
 74      -0.000012449179
 75       0.000013669339
 76      -0.000078316489
 77       0.000237463385
 78       0.700387398455
 79      -0.441052849680
 80       0.544570636803
 81       0.016731832240
 82      -0.010526264549
 83       0.013011650647
 84      -0.004054584562
 85       0.002513974603
 86      -0.003161215697
 87       0.001517377926
 88      -0.000809127055
 89       0.001220688388
 90       0.000015828794
 91       0.000017570512
 92       0.000012248194
 93       0.000017968904
 94       0.000020617278
 95      -0.000003380916
 96      -0.000008101266
 97      -0.000011215552
 98      -0.000000422664
 99      -0.000010415784
100      -0.000003038221
101       0.000005034430
102       0.000014858929
103      -0.000010663825
104       0.000007719398
 Sym=     1a
 Ene= -1.02147169799872E+01
 Spin= Alpha
 Occup= 1.000000
  1      -0.136018514257
  2      -0.003900490769
  3      -0.003698848876
  4      -0.001891168463
  5       0.000687473016
  6      -0.001140988459
  7      -0.000713405352
  8      -0.001253832087
  9       0.004254206164
 10      -0.000137480675
 11       0.001090857353
 12      -0.000335619464
 13       0.000983506259
 14      -0.000444026793
 15      -0.026408253176
 16      -0.000522360964
 17      -0.004212871833
 18      -0.000263146927
 19       0.000106866218
 20      -0.000186644688
 21       0.004822075610
 22      -0.000525224524
 23       0.002239278648
 24      -0.000043126993
 25      -0.000049951391
 26       0.000071156113
 27      -0.000216412129
 28      -0.000047017755
 29       0.000891453136
 30       0.000593601598
 31       0.000192607441
 32      -0.000035596195
 33       0.000296141061
 34      -0.000686906093
 35      -0.001982222659
 36      -0.000030513476
 37       0.000001591427
 38       0.000058273911
 39       0.000985504084
 40       0.001713437624
 41       0.000029040661
 42       0.000070327689
 43      -0.000108915482
 44      -0.978163652599
 45      -0.051354355032
 46       0.042789761747
 47       0.000728661841
 48       0.000778200026
 49       0.000749986724
 50       0.001964309686
 51      -0.005231339630
 52      -0.001804051236
 53      -0.000808008464
 54       0.000221604734
 55       0.001380161204
 56      -0.001425133852
 57      -0.000142357220
 58       0.003129806605
 59      -0.007478305900
 60       0.002387205363
 61       0.000932054600
 62      -0.001368417147
 63       0.003119736588
 64      -0.007819511838
 65      -0.000279723491
 66      -0.000852801360
 67       0.002838876978
 68      -0.000802264085
 69      -0.013727915298
 70       0.000048535959
 71      -0.000153272558
 72      -0.000130726448
 73       0.000012376750
 74      -0.000022587899
 75       0.000213754280
 76      -0.002257817104
 77       0.008723395190
 78      -0.000008132664
 79      -0.000019388180
 80      -0.000008529087
 81       0.000028719443
 82       0.000069784319
 83       0.000031220500
 84      -0.000184469377
 85      -0.000537338542
 86      -0.000270915319
 87       0.001209393414
 88       0.004510683369
 89       0.002477317523
 90      -0.000013174597
 91       0.000017583797
 92       0.000058481829
 93      -0.000047427674
 94       0.000032489959
 95       0.000062169451
 96      -0.000082338597
 97      -0.000277814676
 98       0.000225619916
 99      -0.000151787123
100      -0.000199091852
101       0.000250400343
102       0.000896370875
103      -0.000735227779
104       0.000458106887
 Sym=     1a
 Ene= -1.02132668630940E+01
 Spin= Alpha
 Occup= 1.000000
  1       0.724579318721
  2       0.033062888051
  3      -0.026247572198
  4      -0.000189768457
  5       0.000422080501
  6      -0.001976579324
  7       0.002708129658
  8       0.002420816087
  9      -0.005909060221
 10      -0.000355483851
 11      -0.000022216564
 12      -0.000244430580
 13       0.001369098058
 14       0.000229562910
 15       0.662079613686
 16       0.029462716241
 17      -0.006136136914
 18       0.000066074627
 19      -0.000751026813
 20       0.002102287527
 21      -0.000585255791
 22       0.001350101591
 23      -0.004050705393
 24      -0.000440945158
 25       0.000081330178
 26      -0.000093446697
 27       0.001107511631
 28       0.000165772509
 29      -0.003589477444
 30       0.003785814787
 31       0.001907747260
 32       0.000214794713
 33      -0.000510207757
 34      -0.002921576367
 35       0.004115747093
 36       0.001592480226
 37      -0.000096934352
 38       0.000644654630
 39      -0.002797823671
 40       0.004066098625
 41      -0.001484794959
 42      -0.000332641566
 43       0.000625026457
 44      -0.117949501999
 45      -0.007615442742
 46       0.008091361107
 47      -0.001274003499
 48      -0.000113543810
 49      -0.001079352131
 50      -0.001645201557
 51       0.000319598031
 52       0.005454954988
 53       0.000043350458
 54      -0.000643448773
 55       0.000350587389
 56      -0.001035594929
 57       0.000046266780
 58       0.000143108028
 59      -0.003482905245
 60       0.000623755540
 61      -0.000008821761
 62      -0.000122263122
 63       0.001774393700
 64      -0.000012127313
 65       0.000310393790
 66      -0.000287296291
 67       0.000511700798
 68      -0.000428642503
 69       0.006878338123
 70       0.000139816042
 71      -0.000244306077
 72      -0.000107107132
 73      -0.000007953922
 74       0.000014531876
 75      -0.000137296201
 76       0.001376659623
 77      -0.004756273849
 78      -0.000003292785
 79       0.000021689632
 80       0.000004893784
 81       0.000010503528
 82      -0.000075772069
 83      -0.000017876434
 84       0.000005789810
 85       0.000470947287
 86       0.000166286209
 87      -0.000517674839
 88      -0.002697879047
 89      -0.001362781267
 90       0.000009913260
 91      -0.000006882396
 92      -0.000038700756
 93       0.000034306977
 94      -0.000017443408
 95      -0.000047003752
 96       0.000035132166
 97       0.000185760033
 98      -0.000163272002
 99       0.000085125091
100       0.000140041210
101      -0.000126089294
102      -0.000577337901
103       0.000496284314
104      -0.000270803222
 Sym=     1a
 Ene= -1.02128645892727E+01
 Spin= Alpha
 Occup= 1.000000
  1       0.658095269080
  2       0.034935683685
  3      -0.035991569240
  4       0.000354843722
  5      -0.000628760044
  6       0.001405942409
  7       0.002881145976
  8       0.000370110120
  9      -0.000156890527
 10       0.001529390806
 11       0.000084782256
 12      -0.001594285065
 13       0.001498706927
 14       0.000218041582
 15      -0.732959095171
 16      -0.038822738712
 17       0.032754467011
 18       0.000128508982
 19      -0.000443852089
 20       0.001192402473
 21      -0.001944154976
 22       0.000803810626
 23      -0.002715769610
 24      -0.001357246985
 25      -0.000132982958
 26       0.001578476650
 27      -0.001633936722
 28      -0.000244199479
 29      -0.002891985852
 30       0.005568362674
 31       0.001770358990
 32       0.000550107507
 33      -0.001427787853
 34       0.003684034724
 35      -0.005427969472
 36      -0.002197087575
 37       0.000233268739
 38      -0.001211193796
 39       0.003075201565
 40      -0.006490721971
 41       0.002055157035
 42       0.000607094536
 43      -0.001320504163
 44      -0.071161038112
 45      -0.005381391960
 46       0.011508600237
 47      -0.001503039160
 48      -0.000047543479
 49      -0.000811913647
 50       0.003672943763
 51       0.001322427064
 52       0.000493851587
 53      -0.000084358930
 54      -0.000729971550
 55       0.000411653886
 56      -0.001086146527
 57       0.000101610670
 58       0.001015481885
 59      -0.000145079066
 60       0.000581605665
 61      -0.000010818385
 62      -0.000108692064
 63       0.000209242951
 64      -0.001959949416
 65       0.000058041568
 66      -0.000205138065
 67       0.000425930658
 68      -0.000155988305
 69       0.003408499956
 70       0.000157700541
 71      -0.000124110341
 72       0.000149800921
 73      -0.000004064798
 74       0.000007465034
 75      -0.000070041682
 76       0.000677706467
 77      -0.002348399884
 78      -0.000004278726
 79       0.000011977119
 80       0.000001843370
 81       0.000014158022
 82      -0.000041905687
 83      -0.000007028410
 84      -0.000034531758
 85       0.000245256945
 86       0.000076183373
 87      -0.000191671543
 88      -0.001335432171
 89      -0.000667277995
 90       0.000004312913
 91      -0.000002216701
 92      -0.000019965816
 93       0.000018615981
 94      -0.000007936219
 95      -0.000019148638
 96       0.000012103764
 97       0.000094223387
 98      -0.000085405886
 99       0.000038445483
100       0.000051925226
101      -0.000049672150
102      -0.000281509412
103       0.000239283009
104      -0.000121257857
 Sym=     1a
 Ene= -8.66870921789920E+00
 Spin= Alpha
 Occup= 1.000000
  1       0.000035751295
  2      -0.000387680571
  3       0.000478597068
  4       0.000041469901
  5       0.000082527361
  6       0.000038522687
  7       0.000257540887
  8      -0.000367176259
  9       0.000647474766
 10      -0.000008273316
 11       0.000008237065
 12      -0.000000433375
 13      -0.000006718187
 14      -0.000028041941
 15       0.000008060195
 16      -0.000029047109
 17      -0.000851655141
 18      -0.000001980884
 19       0.000016302823
 20       0.000012087036
 21       0.000068685390
 22      -0.000140382694
 23       0.000458547213
 24      -0.000007225821
 25      -0.000002107734
 26      -0.000004033981
 27      -0.000022989068
 28      -0.000004484366
 29      -0.000041168408
 30      -0.000033051733
 31      -0.000009242537
 32       0.000024435996
 33      -0.000000283187
 34       0.000002441634
 35      -0.000055264122
 36       0.000007855054
 37       0.000007436721
 38      -0.000011374399
 39      -0.000001347601
 40       0.000031262694
 41      -0.000003638220
 42       0.000004888389
 43      -0.000012474832
 44       0.000044944731
 45      -0.000758872632
 46       0.003329840184
 47      -0.000042436063
 48       0.000093208484
 49       0.000020961219
 50       0.000329320492
 51      -0.001136742184
 52      -0.000556100013
 53      -0.000011159786
 54       0.000013305610
 55       0.000047316423
 56      -0.000034576202
 57       0.000011602401
 58      -0.000109811217
 59      -0.000250510413
 60      -0.000023600984
 61       0.000019059129
 62      -0.000008554029
 63      -0.000189560663
 64      -0.000344940760
 65      -0.000031843794
 66       0.000002521936
 67      -0.000013417882
 68       0.001046684260
 69      -0.006037742558
 70      -0.000144271864
 71      -0.000750369293
 72      -0.000406091687
 73      -0.136659986823
 74       0.516878035111
 75      -1.093414414218
 76      -0.032242415478
 77       0.014023293448
 78       0.000359088762
 79       0.001499917148
 80       0.000826984364
 81      -0.000844373824
 82      -0.003534509768
 83      -0.001947672448
 84      -0.000307407039
 85      -0.001191153483
 86      -0.000669060912
 87       0.000623790729
 88       0.002425547136
 89       0.001362711566
 90       0.000175363187
 91      -0.000171754125
 92      -0.000732612542
 93       0.000627374085
 94      -0.000313572200
 95       0.000138050695
 96      -0.000147819189
 97      -0.000593480607
 98       0.000500605586
 99      -0.000258631172
100      -0.000019122024
101       0.000028767442
102       0.000094098791
103      -0.000074611141
104       0.000044501781
 Sym=     1a
 Ene= -6.50150258527164E+00
 Spin= Alpha
 Occup= 1.000000
  1       0.000018558372
  2      -0.000229597927
  3       0.000326734687
  4       0.000025603108
  5       0.000047614638
  6       0.000022675246
  7       0.000097076274
  8      -0.000214153507
  9       0.000332745754
 10      -0.000004059822
 11       0.000005027820
 12       0.000000473098
 13      -0.000003398697
 14      -0.000014549817
 15       0.000004545228