[Molden Format]
[Title]
 Molden file created by orca_2mkl for BaseName=radical_006

[Atoms] AU
C    1   6          1.2102826614         0.8151900597         0.3577780695 
C    2   6          1.3183258634         0.1150503065         2.8011637250 
H    3   1          2.9728321162         1.2857394259        -0.6294148629 
H    4   1          3.1117421049         0.0355419691         3.8232466710 
H    5   1         -0.3870555965        -0.4264922912         3.8415845734 
C    6   6         -1.1178939507         0.8342158224        -1.1672195822 
H    7   1         -2.8815772412         0.9253516446        -0.0712729109 
H    8   1         -1.1285765725         2.1825184114        -2.7497197105 
H    9   1         -1.2295314118        -1.1122587874        -2.1916627961 
Br  10  35         -1.8512985530        -4.3193054503        -3.8524807343 
[GTO]
  1 0
s   5 1.0 
     1238.4016938000         0.8208956682
      186.2900499200         1.4766449896
       42.2511763460         2.1526124058
       11.6765579320         2.1081722461
        3.5930506482         0.8290999933
s   1 1.0 
        0.4024514736         0.3601183351
s   1 1.0 
        0.1309018267         0.1551027052
p   3 1.0 
        9.4680970621         1.3467645142
        2.0103545142         1.0678070931
        0.5477100471         0.5108735714
p   1 1.0 
        0.1526861379         0.1360471976
d   1 1.0 
        0.8000000000         1.9292013661

  2 0
s   5 1.0 
     1238.4016938000         0.8208956682
      186.2900499200         1.4766449896
       42.2511763460         2.1526124058
       11.6765579320         2.1081722461
        3.5930506482         0.8290999933
s   1 1.0 
        0.4024514736         0.3601183351
s   1 1.0 
        0.1309018267         0.1551027052
p   3 1.0 
        9.4680970621         1.3467645142
        2.0103545142         1.0678070931
        0.5477100471         0.5108735714
p   1 1.0 
        0.1526861379         0.1360471976
d   1 1.0 
        0.8000000000         1.9292013661

  3 0
s   3 1.0 
       13.0107010000         0.1634903809
        1.9622572000         0.2773515510
        0.4445379600         0.3157501452
s   1 1.0 
        0.1219496200         0.1470772262
p   1 1.0 
        0.8000000000         1.0784563492

  4 0
s   3 1.0 
       13.0107010000         0.1634903809
        1.9622572000         0.2773515510
        0.4445379600         0.3157501452
s   1 1.0 
        0.1219496200         0.1470772262
p   1 1.0 
        0.8000000000         1.0784563492

  5 0
s   3 1.0 
       13.0107010000         0.1634903809
        1.9622572000         0.2773515510
        0.4445379600         0.3157501452
s   1 1.0 
        0.1219496200         0.1470772262
p   1 1.0 
        0.8000000000         1.0784563492

  6 0
s   5 1.0 
     1238.4016938000         0.8208956682
      186.2900499200         1.4766449896
       42.2511763460         2.1526124058
       11.6765579320         2.1081722461
        3.5930506482         0.8290999933
s   1 1.0 
        0.4024514736         0.3601183351
s   1 1.0 
        0.1309018267         0.1551027052
p   3 1.0 
        9.4680970621         1.3467645142
        2.0103545142         1.0678070931
        0.5477100471         0.5108735714
p   1 1.0 
        0.1526861379         0.1360471976
d   1 1.0 
        0.8000000000         1.9292013661

  7 0
s   3 1.0 
       13.0107010000         0.1634903809
        1.9622572000         0.2773515510
        0.4445379600         0.3157501452
s   1 1.0 
        0.1219496200         0.1470772262
p   1 1.0 
        0.8000000000         1.0784563492

  8 0
s   3 1.0 
       13.0107010000         0.1634903809
        1.9622572000         0.2773515510
        0.4445379600         0.3157501452
s   1 1.0 
        0.1219496200         0.1470772262
p   1 1.0 
        0.8000000000         1.0784563492

  9 0
s   3 1.0 
       13.0107010000         0.1634903809
        1.9622572000         0.2773515510
        0.4445379600         0.3157501452
s   1 1.0 
        0.1219496200         0.1470772262
p   1 1.0 
        0.8000000000         1.0784563492

 10 0
s   6 1.0 
   113286.3877600000         7.5076141183
    17009.6263030000        13.8835270484
     3870.1842567000        22.7307285566
     1093.0357227000        30.8227297499
      356.3972179700        27.2481937511
      123.1253964300         9.6953381145
s   3 1.0 
      236.7408400700        -4.7631125758
       28.4686610700         5.6113863182
       11.8834437220         1.9900291396
s   3 1.0 
       21.2696333120        -1.5429794477
        3.6129226841         1.3310800628
        1.6626648969         0.4300130345
s   1 1.0 
        0.3482379323         0.3230852630
s   1 1.0 
        0.1301903139         0.1544699827
p   5 1.0 
     1560.2801881000       115.0180051576
      368.4785920500       143.9035925417
      117.2297884900       137.5255986684
       42.6489092480        78.9578527439
       16.0872250960        15.8580577654
p   3 1.0 
        8.6352810058         6.8437546680
        3.5613665502         3.7974971038
        1.5292626609         0.5585414278
p   1 1.0 
        0.5306429485         0.6455696201
p   1 1.0 
        0.1570275896         0.1408996918
d   4 1.0 
      104.8551864200       261.4493931636
       30.2811436880       176.6993802449
       10.6513942670        76.9545600188
        3.8699456233        17.5937671387
d   1 1.0 
        1.3240876762         4.6593398042
d   1 1.0 
        0.3890000000         0.5462379705

[5D]
[7F]
[9G]
[MO]
 Sym=     1a
 Ene= -4.82764932840524E+02
 Spin= Alpha
 Occup= 1.000000
  1       0.000005835968
  2      -0.000080956533
  3       0.000222412422
  4       0.000008964934
  5       0.000015506976
  6       0.000005822078
  7      -0.000011785558
  8      -0.000067993955
  9       0.000136764874
 10      -0.000001621320
 11       0.000002176243
 12       0.000001310195
 13      -0.000001250653
 14      -0.000005414707
 15       0.000001456184
 16      -0.000009096629
 17      -0.000212116627
 18       0.000000211392
 19       0.000003258625
 20       0.000002898504
 21       0.000019766596
 22      -0.000027815313
 23       0.000101813595
 24      -0.000000071223
 25      -0.000002136419
 26      -0.000001445160
 27      -0.000004554705
 28      -0.000000795385
 29      -0.000003992998
 30       0.000004833196
 31      -0.000001878330
 32       0.000002416833
 33       0.000001028987
 34       0.000001422453
 35      -0.000008106876
 36       0.000000909514
 37       0.000002135763
 38      -0.000003337892
 39      -0.000000234595
 40       0.000009038365
 41      -0.000000623481
 42       0.000000286546
 43      -0.000001684074
 44       0.000007806861
 45      -0.000153777926
 46       0.001082603777
 47      -0.000009334286
 48       0.000011401101
 49       0.000005372891
 50       0.000042693319
 51      -0.000391189758
 52      -0.000261451991
 53      -0.000004355758
 54       0.000005344670
 55       0.000014080037
 56      -0.000014461115
 57       0.000005066400
 58      -0.000010043196
 59       0.000006822838
 60       0.000005586516
 61       0.000002748244
 62      -0.000004088999
 63      -0.000042854024
 64      -0.000032769339
 65      -0.000006342905
 66       0.000000164872
 67       0.000006803172
 68       0.000004217790
 69      -0.001521620946
 70       0.000007533743
 71      -0.000000131192
 72       0.000000836225
 73      -0.994982696347
 74      -0.015687255012
 75       0.003908409121
 76      -0.002343388272
 77       0.001720949103
 78      -0.000001731662
 79      -0.000007576441
 80      -0.000003863298
 81       0.000005894031
 82       0.000025393156
 83       0.000012990769
 84      -0.000028619455
 85      -0.000125398748
 86      -0.000064347614
 87       0.000097278357
 88       0.000455521638
 89       0.000235037342
 90      -0.000003249849
 91       0.000002484300
 92       0.000011413102
 93      -0.000010507028
 94       0.000004918810
 95       0.000012583149
 96      -0.000009562716
 97      -0.000044183514
 98       0.000040710314
 99      -0.000018909005
100      -0.000030431199
101       0.000022931358
102       0.000107214443
103      -0.000098865819
104       0.000045078694
 Sym=     1a
 Ene= -6.24478974774729E+01
 Spin= Alpha
 Occup= 1.000000
  1      -0.000013893031
  2       0.000195036475
  3      -0.000525675146
  4      -0.000021473899
  5      -0.000037110002
  6      -0.000014044843
  7       0.000022084184
  8       0.000163588602
  9      -0.000332414688
 10       0.000004089998
 11      -0.000005057601
 12      -0.000003294339
 13       0.000003223246
 14       0.000012982490
 15      -0.000003499802
 16       0.000022431384
 17       0.000509110318
 18      -0.000000701997
 19      -0.000007842123
 20      -0.000007036404
 21      -0.000044495203
 22       0.000067597763
 23      -0.000244886385
 24       0.000000176816
 25       0.000005074151
 26       0.000003397292
 27       0.000010779234
 28       0.000001869425
 29       0.000010259801
 30      -0.000011889108
 31       0.000004603059
 32      -0.000005595125
 33      -0.000002200751
 34      -0.000003736500
 35       0.000018893176
 36      -0.000002185142
 37      -0.000005080482
 38       0.000007856890
 39       0.000001261215
 40      -0.000020460095
 41       0.000001473486
 42      -0.000000636764
 43       0.000003897366
 44      -0.000017770963
 45       0.000366953531
 46      -0.002660804085
 47       0.000022957501
 48      -0.000021202324
 49      -0.000009923519
 50      -0.000108856929
 51       0.000958053670
 52       0.000636103405
 53       0.000011348347
 54      -0.000013061731
 55      -0.000037713138
 56       0.000038200575
 57      -0.000011945451
 58       0.000023259539
 59      -0.000015228988
 60      -0.000013263722
 61      -0.000006497823
 62       0.000010228482
 63       0.000103156091
 64       0.000080749649
 65       0.000015763497
 66      -0.000000100516
 67      -0.000016320623
 68      -0.000009394632
 69       0.003742715163
 70      -0.000015850373
 71       0.000015011536
 72       0.000005612938
 73       0.347189471478
 74      -1.046963425439
 75      -0.018553913348
 76       0.006336834005
 77      -0.004378288988
 78      -0.000012335599
 79      -0.000092402170
 80      -0.000043450664
 81      -0.000015897402
 82      -0.000071336889
 83      -0.000036197370
 84       0.000070653026
 85       0.000310860741
 86       0.000159389662
 87      -0.000239002382
 88      -0.001120263319
 89      -0.000577931377
 90       0.000021956707
 91      -0.000011783801
 92      -0.000070692403
 93       0.000068794485
 94      -0.000023871666
 95      -0.000034841870
 96       0.000024655566
 97       0.000119789384
 98      -0.000111760197
 99       0.000049045413
100       0.000075085215
101      -0.000055952359
102      -0.000263366188
103       0.000243368878
104      -0.000110198357
 Sym=     1a
 Ene= -5.62813649015527E+01
 Spin= Alpha
 Occup= 1.000000
  1       0.000015881195
  2      -0.000237021991
  3       0.000664048281
  4       0.000024530916
  5       0.000043603266
  6       0.000015960212
  7      -0.000081822653
  8      -0.000218270625
  9       0.000305420740
 10      -0.000003591020
 11       0.000007794134
 12       0.000008634155
 13      -0.000003883142
 14      -0.000008588635
 15       0.000004829988
 16      -0.000036246866
 17      -0.000525949370
 18       0.000002787878
 19       0.000011387298
 20       0.000010979737
 21       0.000046891604
 22      -0.000063535982
 23       0.000243618360
 24       0.000001214840
 25      -0.000007843066
 26      -0.000006296093
 27      -0.000011866131
 28       0.000000136906
 29      -0.000016794310
 30       0.000022282845
 31      -0.000004109433
 32       0.000008110905
 33       0.000007877208
 34       0.000007090134
 35      -0.000017186536
 36       0.000000194670
 37       0.000005833308
 38      -0.000008582325
 39      -0.000006858448
 40       0.000028586617
 41       0.000000320978
 42      -0.000000651364
 43      -0.000001854816
 44       0.000010478386
 45      -0.000317587321
 46       0.002889320230
 47      -0.000029409409
 48      -0.000021153718
 49      -0.000010195283
 50       0.000118209585
 51      -0.001080498046
 52      -0.000749562042
 53      -0.000017135847
 54       0.000017486460
 55       0.000060484601
 56      -0.000061572381
 57       0.000012714618
 58       0.000000348593
 59       0.000073794539
 60       0.000017190071
 61      -0.000008204486
 62      -0.000021288909
 63      -0.000100808149
 64      -0.000047307975
 65      -0.000021202221
 66      -0.000016539154
 67       0.000012226154
 68      -0.000096140852
 69      -0.004603084212
 70       0.000020519215
 71      -0.000032100023
 72      -0.000012179076
 73       0.000054394797
 74      -0.000156735518
 75       0.000162714921
 76      -0.001054511945
 77       0.002268882145
 78       0.122054409711
 79       0.883305711242
 80       0.431753089810
 81       0.002940186716
 82       0.021224963704
 83       0.010376456339
 84      -0.000800583386
 85      -0.005543464840
 86      -0.002719987335
 87       0.000569077040
 88       0.003357130697
 89       0.001681132384
 90      -0.000012963082
 91       0.000008836154
 92       0.000044386620
 93      -0.000041695875
 94       0.000017672206
 95       0.000042333074
 96      -0.000030816401
 97      -0.000148712378
 98       0.000137865428
 99      -0.000061273775
100      -0.000100772526
101       0.000073913952
102       0.000356377087
103      -0.000329689375
104       0.000145787851
 Sym=     1a
 Ene= -5.62771960866232E+01
 Spin= Alpha
 Occup= 1.000000
  1      -0.000006132293
  2       0.000057093216
  3      -0.000201214554
  4      -0.000013090963
  5      -0.000023892612
  6      -0.000002562217
  7       0.000008242257
  8       0.000207608261
  9      -0.000303108969
 10      -0.000006476727
 11       0.000002041967
 12       0.000003014622
 13      -0.000002883696
 14      -0.000010816892
 15      -0.000001429287
 16       0.000010003709
 17       0.000402054802
 18      -0.000005594813
 19       0.000003215103
 20      -0.000006017627
 21       0.000019159751
 22       0.000003087457
 23      -0.000170247154
 24       0.000003721021
 25       0.000003258786
 26       0.000004216832
 27       0.000004998427
 28      -0.000001379795
 29      -0.000017714568
 30      -0.000063923716
 31       0.000008695221
 32      -0.000017993508
 33       0.000001545583
 34      -0.000012656169
 35      -0.000024271401
 36      -0.000000972213
 37       0.000002511025
 38       0.000008605388
 39       0.000001856118
 40      -0.000018337651
 41       0.000002771620
 42       0.000003554987
 43       0.000008207710
 44       0.000003529899
 45      -0.000076199441
 46       0.000420693516
 47       0.000041702454
 48       0.000024541557
 49       0.000006193581
 50      -0.000311708095
 51      -0.000351401192
 52      -0.000041042852
 53      -0.000001941878
 54      -0.000024748861
 55       0.000018538850
 56      -0.000004478389
 57      -0.000016778239
 58      -0.000130644615
 59      -0.000029272984
 60       0.000010862195
 61       0.000017462385
 62       0.000015906028
 63       0.000021546553
 64       0.000044671045
 65       0.000032407570
 66       0.000005635613
 67       0.000011106433
 68      -0.000026730967
 69      -0.000647487282
 70      -0.000050776478
 71      -0.000001478563
 72       0.000003383183
 73       0.000001341404
 74      -0.000003346191
 75       0.000012851604
 76      -0.000095695942
 77       0.000247466592
 78       0.972819569618
 79      -0.045374153229
 80      -0.182191207124
 81       0.023234455478
 82      -0.001077602322
 83      -0.004347726784
 84      -0.005634059984
 85       0.000230414078
 86       0.001036457519
 87       0.002115626098
 88       0.000052822757
 89      -0.000312107883
 90      -0.000002722113
 91       0.000005709388
 92       0.000000684851
 93      -0.000000619990
 94       0.000012151466
 95       0.000005944776
 96      -0.000009289464
 97      -0.000008961108
 98       0.000008348612
 99      -0.000018546490
100      -0.000013313298
101       0.000017604287
102       0.000027248749
103      -0.000025403598
104       0.000034384141
 Sym=     1a
 Ene= -5.62771851825490E+01
 Spin= Alpha
 Occup= 1.000000
  1       0.000006469426
  2      -0.000054075469
  3      -0.000074571464
  4       0.000009774698
  5       0.000017471134
  6       0.000025697282
  7       0.000100941068
  8       0.000010389449
  9      -0.000217720646
 10       0.000005939193
 11      -0.000001625635
 12      -0.000002463219
 13      -0.000001255907
 14       0.000001518344
 15      -0.000001324975
 16       0.000027832477
 17       0.000155606478
 18      -0.000008896756
 19       0.000008025335
 20      -0.000006944064
 21       0.000066958108
 22       0.000025952719
 23      -0.000017005140
 24      -0.000004297751
 25       0.000003381848
 26      -0.000002356001
 27      -0.000002874355
 28      -0.000002393356
 29      -0.000035813370
 30      -0.000083533386
 31       0.000005610182
 32       0.000008664942
 33       0.000007884441
 34      -0.000017845282
 35      -0.000054725646
 36       0.000003729334
 37      -0.000000542120
 38       0.000003667986
 39       0.000009390039
 40       0.000009992878
 41       0.000001022616
 42       0.000001275390
 43      -0.000001394030
 44       0.000002598585
 45      -0.000017895114
 46      -0.000085596101
 47      -0.000010168696
 48       0.000014493601
 49      -0.000045393408
 50      -0.000030034997
 51      -0.000062962517
 52       0.000374261062
 53       0.000005248766
 54      -0.000001315253
 55       0.000025982569
 56       0.000029362018
 57       0.000002033966
 58      -0.000069409813
 59      -0.000051973864
 60      -0.000021174111
 61       0.000013018857
 62      -0.000026256057
 63       0.000129980170
 64       0.000069375823
 65      -0.000003751498
 66      -0.000016716408
 67      -0.000001074881
 68       0.000016920385
 69       0.000166050229
 70       0.000009470606
 71      -0.000022448931
 72       0.000046872117
 73       0.000000049696
 74      -0.000000413207
 75      -0.000004690765
 76       0.000030942700
 77      -0.000070651958
 78      -0.142662840798
 79       0.446396730484
 80      -0.872931023685
 81      -0.003407730236
 82       0.010658094128
 83      -0.020847605313
 84       0.000827986015
 85      -0.002568350509
 86       0.005051413220
 87      -0.000314659786
 88       0.000909174622
 89      -0.001886732259
 90      -0.000007701651
 91      -0.000002454249
 92      -0.000008129767
 93      -0.000004242544
 94      -0.000001150202
 95       0.000008431820
 96       0.000003609166
 97       0.000011980794
 98       0.000002548446
 99       0.000002227722
100      -0.000011946501
101      -0.000006293413
102      -0.000021904034
103      -0.000000375104
104      -0.000004776345
 Sym=     1a
 Ene= -1.02187044573450E+01
 Spin= Alpha
 Occup= 1.000000
  1       0.072514496496
  2       0.002369653887
  3       0.002586135672
  4       0.001320464262
  5      -0.000362044081
  6       0.000950127418
  7       0.000590856462
  8       0.001639001496
  9      -0.005219788259
 10       0.000051036765
 11      -0.001317312754
 12       0.000081149999
 13      -0.000976330357
 14       0.000133523784
 15       0.005949655033
 16      -0.000301490051
 17       0.006207304054
 18       0.000268415461
 19      -0.000037119969
 20       0.000104601751
 21      -0.004669312712
 22       0.000264763309
 23      -0.003237375701
 24       0.000100289799
 25      -0.000041210269
 26      -0.000080894039
 27       0.000218968696
 28       0.000125746856
 29      -0.000763093093
 30      -0.000921084193
 31      -0.000133229769
 32      -0.000041790925
 33      -0.000228299481
 34       0.000751425346
 35       0.001857139121
 36      -0.000058603756
 37       0.000002329178
 38      -0.000024887959
 39      -0.000899116708
 40      -0.001800010545
 41      -0.000008330842
 42      -0.000066128908
 43       0.000129279844
 44       0.985053306444
 45       0.053516522870
 46      -0.055135048107
 47      -0.000747604625
 48      -0.000780462004
 49      -0.000881430538
 50      -0.001946569496
 51       0.006658261264
 52       0.003177790182
 53       0.000249165329
 54      -0.000518585208
 55      -0.000496796335
 56       0.000051285849
 57      -0.000117033018
 58      -0.002793161237
 59       0.007393582281
 60      -0.002224746556
 61      -0.000083994093
 62       0.001620209854
 63      -0.002665623793
 64       0.008010592769
 65       0.000253036935
 66       0.001700901262
 67      -0.002211523592
 68      -0.002282263806
 69       0.024372095794
 70       0.000039497764
 71      -0.002305737762
 72      -0.001001645682
 73      -0.000010992417
 74       0.000019560656
 75      -0.000191646723
 76       0.002105007204
 77      -0.007211901303
 78       0.000004859885
 79       0.000014818195
 80       0.000002262823
 81      -0.000017663227
 82      -0.000054691745
 83      -0.000009848433
 84       0.000135699807
 85       0.000478156764
 86       0.000166485273
 87      -0.000916016892
 88      -0.004088545982
 89      -0.001964743203
 90       0.000020290403
 91      -0.000014411715
 92      -0.000050250591
 93       0.000049721605
 94      -0.000031349453
 95      -0.000094775525
 96       0.000067333097
 97       0.000238752399
 98      -0.000235512621
 99       0.000145842080
100       0.000279614395
101      -0.000198274030
102      -0.000767046753
103       0.000745127390
104      -0.000419747346
 Sym=     1a
 Ene= -1.02173731045820E+01
 Spin= Alpha
 Occup= 1.000000
  1       0.984039710794
  2       0.047617169861
  3      -0.042248647732
  4       0.000468121941
  5      -0.000281527699
  6      -0.000356293066
  7       0.004393800901
  8       0.002120748448
  9      -0.004475154294
 10       0.001016519717
 11      -0.000268555189
 12      -0.000952132811
 13       0.001636998936
 14       0.000706022228
 15       0.055575188924
 16      -0.002052656862
 17       0.016659968490
 18       0.000149523539
 19      -0.000796550792
 20       0.002613383455
 21      -0.002550645707
 22       0.001142261906
 23      -0.005005850809
 24      -0.001050424505
 25      -0.000044715544
 26       0.000714480728
 27      -0.000265401180
 28      -0.000077119730
 29      -0.004675367773
 30       0.006252969672
 31       0.002551886661
 32       0.000585908582
 33      -0.001331417800
 34       0.000305002712
 35       0.000058672643
 36      -0.000174949768
 37       0.000081794469
 38      -0.000377354163
 39      -0.000323198717
 40      -0.001411044860
 41       0.000131423523
 42       0.000137296361
 43      -0.000417889282
 44      -0.072067880021
 45      -0.004305140933
 46       0.003161395078
 47      -0.001618203033
 48      -0.000372963122
 49      -0.001265915616
 50       0.001209075681
 51       0.004435923949
 52       0.005878093766
 53       0.000181623808
 54      -0.001208055601
 55      -0.000070748543
 56      -0.001027644914
 57      -0.000108005273
 58       0.000253483882
 59      -0.001618315959
 60       0.000463051041
 61      -0.000197784802
 62       0.000011505807
 63       0.000818433613
 64      -0.000254907948
 65       0.000309026552
 66      -0.000399602666
 67       0.000112866566
 68       0.000320800140
 69       0.012367156377
 70       0.000525906639
 71       0.000382793450
 72       0.000443775120
 73      -0.000008664828
 74       0.000015986175
 75      -0.000149007136
 76       0.001509429346
 77      -0.004521519435
 78      -0.000007821896
 79       0.000023889181
 80       0.000002185341
 81       0.000026083129
 82      -0.000083351692
 83      -0.000008602118
 84      -0.000073027686
 85       0.000506555148
 86       0.000121748311
 87      -0.000292867487
 88      -0.002853992975
 89      -0.001260910984
 90       0.000012724817
 91       0.000000248806
 92      -0.000037470187
 93       0.000040891478
 94      -0.000012459818
 95      -0.000059872795
 96       0.000001830868
 97       0.000179348520
 98      -0.000193175761
 99       0.000060411409
100       0.000181288489
101      -0.000043977521
102      -0.000581160267
103       0.000594165514
104      -0.000205541719
 Sym=     1a
 Ene= -1.02117229959959E+01
 Spin= Alpha
 Occup= 1.000000
  1      -0.054942084934
  2      -0.006926573071
  3       0.011865587508
  4      -0.000396557002
  5       0.000719706809
  6      -0.002657756057
  7      -0.000677093372
  8       0.000396444086
  9      -0.002124666318
 10      -0.001335771328
 11      -0.000001764143
 12       0.000878474709
 13      -0.000404681678
 14      -0.000132742507
 15       0.986559153643
 16       0.048495292886
 17      -0.030424252586
 18      -0.000040909138
 19      -0.000139030838
 20       0.000301312513
 21       0.000942725685
 22       0.000244492047
 23       0.000100576667
 24       0.001096031315
 25       0.000211997453
 26      -0.001311481945
 27       0.002112454893
 28       0.000541104050
 29       0.000267453297
 30      -0.001604937495
 31      -0.000272902646
 32      -0.000268450119
 33       0.000832580019
 34      -0.004650219968
 35       0.006858383703
 36       0.002700760475
 37      -0.000102270706
 38       0.001404200009
 39      -0.004198028811
 40       0.007434457091
 41      -0.002561119838
 42      -0.000776930754
 43       0.001392086726
 44      -0.001977736815
 45       0.000297749940
 46      -0.004990158742
 47       0.000284497592
 48      -0.000005860798
 49       0.000004320684
 50      -0.002724785381
 51      -0.000150792231
 52       0.002204871002
 53       0.000195307860
 54       0.000199269065
 55      -0.000076959861
 56       0.000180729594
 57      -0.000069440975
 58      -0.000441251760
 59      -0.001152947599
 60      -0.000002388334
 61       0.000100192164
 62       0.000049730666
 63       0.000647624751
 64       0.000969402470
 65       0.000067588046
 66      -0.000105545240
 67      -0.000148962541
 68      -0.000057257872
 69       0.002584547240
 70       0.000057102381
 71       0.000175502722
 72      -0.000215549536
 73      -0.000002622513
 74       0.000005036360
 75      -0.000044402757
 76       0.000367758505
 77      -0.000972998917
 78       0.000000287987
 79       0.000006207243
 80       0.000004735272
 81      -0.000001096519
 82      -0.000021509513
 83      -0.000016428898
 84       0.000011414147
 85       0.000118021081
 86       0.000089218301
 87      -0.000095992142
 88      -0.000573246954
 89      -0.000365978488
 90      -0.000000071050
 91      -0.000002197005
 92      -0.000011706457
 93       0.000005536131
 94      -0.000002250264
 95       0.000000024248
 96       0.000010259685
 97       0.000054370515
 98      -0.000026575301
 99       0.000010698746
100       0.000005582399
101      -0.000029688303
102      -0.000153888490
103       0.000087450661
104      -0.000034429428
 Sym=     1a
 Ene= -8.66610338108840E+00
 Spin= Alpha
 Occup= 1.000000
  1      -0.000034267165
  2       0.000420407980
  3      -0.000985233130
  4      -0.000043956988
  5      -0.000074505604
  6      -0.000029298417
  7      -0.000059947169
  8       0.000351445966
  9      -0.000781180046
 10       0.000011423903
 11      -0.000008719173
 12      -0.000009266425
 13       0.000010071208
 14       0.000027535847
 15      -0.000010013273
 16       0.000055641601
 17       0.001090347180
 18      -0.000004110811
 19      -0.000016279630
 20      -0.000015606051
 21      -0.000045582195
 22       0.000157847827
 23      -0.000532901618
 24       0.000000319950
 25       0.000009349171
 26       0.000005767863
 27       0.000021181773
 28       0.000003665217
 29       0.000029193923
 30      -0.000023630601
 31       0.000011466197
 32      -0.000008754194
 33       0.000000850190
 34      -0.000013017236
 35       0.000028816487
 36      -0.000004872830
 37      -0.000010214803
 38       0.000015050097
 39       0.000011671160
 40      -0.000021126824
 41       0.000003287337
 42      -0.000000644494
 43       0.000006937847
 44      -0.000029740598
 45       0.000747980447
 46      -0.006667912746
 47       0.000055927047
 48       0.000048907702
 49       0.000023914029
 50      -0.000330899493
 51       0.002330019301
 52       0.001484177108
 53       0.000037400157
 54      -0.000030555728
 55      -0.000137210167
 56       0.000133235285
 57      -0.000021971750
 58       0.000035061132
 59      -0.000001875450
 60      -0.000025779196
 61      -0.000012262337
 62       0.000026707966
 63       0.000223622791
 64       0.000215210509
 65       0.000040804920
 66       0.000003689742
 67      -0.000033451326
 68      -0.000043373357
 69       0.009419693726
 70       0.000003596946
 71       0.000273269852
 72       0.000136799145
 73       0.136666251674
 74      -0.516893521919
 75       1.093491829808
 76       0.032332213044
 77      -0.013958606592
 78      -0.000050000750
 79      -0.000339336554
 80      -0.000160365953
 81       0.000109545241
 82       0.000771075706
 83       0.000362410001
 84       0.000186236200
 85       0.000841906319
 86       0.000430304288
 87      -0.000595264086
 88      -0.002807094012
 89      -0.001447393445
 90      -0.000324916265
 91       0.000127971769
 92       0.000973275318
 93      -0.000989183176
 94       0.000265771216
 95      -0.000280977947
 96       0.000132375886
 97       0.000863716665
 98      -0.000860644527
 99       0.000270523211
100       0.000180230474
101      -0.000128018598
102      -0.000617612280
103       0.000576355232
104      -0.000252964049
 Sym=     1a
 Ene= -6.50300353882465E+00
 Spin= Alpha
 Occup= 1.000000
  1      -0.000017936899
  2       0.000255522481
  3      -0.000666369104
  4      -0.000026522205
  5      -0.000045562983
  6      -0.000018378161
  7       0.000064876097
  8       0.000239167059
  9      -0.000332131918
 10       0.000004584059
 11      -0.000006877369
 12      -0.000008831832
 13       0.000004851558
 14       0.000008999093
 15      -0.000005863544