[Molden Format]
[Title]
 Molden file created by orca_2mkl for BaseName=radical_027

[Atoms] AU
C    1   6          1.1741397593         0.9188944504         0.3532559548 
C    2   6          1.3231862390         0.0881840700         2.8296985896 
H    3   1          2.9444125249         1.3457930327        -0.6362670098 
H    4   1          3.1349384932        -0.0705302485         3.8049201069 
H    5   1         -0.3833498435        -0.4111382663         3.8853808663 
C    6   6         -1.0766280011         1.2221879360        -0.9876256796 
H    7   1         -2.9026080033         0.8565656134        -0.0879856488 
H    8   1         -1.0974055399         2.0290272959        -2.8875695628 
H    9   1         -1.2831089271        -1.9715078118        -2.5654657432 
Br  10  35         -1.8508242317        -4.3430290722        -3.8703480949 
[GTO]
  1 0
s   5 1.0 
     1238.4016938000         0.8208956682
      186.2900499200         1.4766449896
       42.2511763460         2.1526124058
       11.6765579320         2.1081722461
        3.5930506482         0.8290999933
s   1 1.0 
        0.4024514736         0.3601183351
s   1 1.0 
        0.1309018267         0.1551027052
p   3 1.0 
        9.4680970621         1.3467645142
        2.0103545142         1.0678070931
        0.5477100471         0.5108735714
p   1 1.0 
        0.1526861379         0.1360471976
d   1 1.0 
        0.8000000000         1.9292013661

  2 0
s   5 1.0 
     1238.4016938000         0.8208956682
      186.2900499200         1.4766449896
       42.2511763460         2.1526124058
       11.6765579320         2.1081722461
        3.5930506482         0.8290999933
s   1 1.0 
        0.4024514736         0.3601183351
s   1 1.0 
        0.1309018267         0.1551027052
p   3 1.0 
        9.4680970621         1.3467645142
        2.0103545142         1.0678070931
        0.5477100471         0.5108735714
p   1 1.0 
        0.1526861379         0.1360471976
d   1 1.0 
        0.8000000000         1.9292013661

  3 0
s   3 1.0 
       13.0107010000         0.1634903809
        1.9622572000         0.2773515510
        0.4445379600         0.3157501452
s   1 1.0 
        0.1219496200         0.1470772262
p   1 1.0 
        0.8000000000         1.0784563492

  4 0
s   3 1.0 
       13.0107010000         0.1634903809
        1.9622572000         0.2773515510
        0.4445379600         0.3157501452
s   1 1.0 
        0.1219496200         0.1470772262
p   1 1.0 
        0.8000000000         1.0784563492

  5 0
s   3 1.0 
       13.0107010000         0.1634903809
        1.9622572000         0.2773515510
        0.4445379600         0.3157501452
s   1 1.0 
        0.1219496200         0.1470772262
p   1 1.0 
        0.8000000000         1.0784563492

  6 0
s   5 1.0 
     1238.4016938000         0.8208956682
      186.2900499200         1.4766449896
       42.2511763460         2.1526124058
       11.6765579320         2.1081722461
        3.5930506482         0.8290999933
s   1 1.0 
        0.4024514736         0.3601183351
s   1 1.0 
        0.1309018267         0.1551027052
p   3 1.0 
        9.4680970621         1.3467645142
        2.0103545142         1.0678070931
        0.5477100471         0.5108735714
p   1 1.0 
        0.1526861379         0.1360471976
d   1 1.0 
        0.8000000000         1.9292013661

  7 0
s   3 1.0 
       13.0107010000         0.1634903809
        1.9622572000         0.2773515510
        0.4445379600         0.3157501452
s   1 1.0 
        0.1219496200         0.1470772262
p   1 1.0 
        0.8000000000         1.0784563492

  8 0
s   3 1.0 
       13.0107010000         0.1634903809
        1.9622572000         0.2773515510
        0.4445379600         0.3157501452
s   1 1.0 
        0.1219496200         0.1470772262
p   1 1.0 
        0.8000000000         1.0784563492

  9 0
s   3 1.0 
       13.0107010000         0.1634903809
        1.9622572000         0.2773515510
        0.4445379600         0.3157501452
s   1 1.0 
        0.1219496200         0.1470772262
p   1 1.0 
        0.8000000000         1.0784563492

 10 0
s   6 1.0 
   113286.3877600000         7.5076141183
    17009.6263030000        13.8835270484
     3870.1842567000        22.7307285566
     1093.0357227000        30.8227297499
      356.3972179700        27.2481937511
      123.1253964300         9.6953381145
s   3 1.0 
      236.7408400700        -4.7631125758
       28.4686610700         5.6113863182
       11.8834437220         1.9900291396
s   3 1.0 
       21.2696333120        -1.5429794477
        3.6129226841         1.3310800628
        1.6626648969         0.4300130345
s   1 1.0 
        0.3482379323         0.3230852630
s   1 1.0 
        0.1301903139         0.1544699827
p   5 1.0 
     1560.2801881000       115.0180051576
      368.4785920500       143.9035925417
      117.2297884900       137.5255986684
       42.6489092480        78.9578527439
       16.0872250960        15.8580577654
p   3 1.0 
        8.6352810058         6.8437546680
        3.5613665502         3.7974971038
        1.5292626609         0.5585414278
p   1 1.0 
        0.5306429485         0.6455696201
p   1 1.0 
        0.1570275896         0.1408996918
d   4 1.0 
      104.8551864200       261.4493931636
       30.2811436880       176.6993802449
       10.6513942670        76.9545600188
        3.8699456233        17.5937671387
d   1 1.0 
        1.3240876762         4.6593398042
d   1 1.0 
        0.3890000000         0.5462379705

[5D]
[7F]
[9G]
[MO]
 Sym=     1a
 Ene= -4.82765603210728E+02
 Spin= Alpha
 Occup= 1.000000
  1       0.000005640903
  2      -0.000070063700
  3       0.000081879500
  4       0.000007492796
  5       0.000016539666
  6       0.000006726194
  7       0.000052393868
  8      -0.000064981091
  9       0.000144316514
 10      -0.000001930397
 11       0.000001829740
 12      -0.000001354118
 13      -0.000000525233
 14      -0.000007307093
 15       0.000001146524
 16      -0.000004461057
 17      -0.000177337379
 18      -0.000000891660
 19       0.000002713876
 20       0.000001840278
 21       0.000016562712
 22      -0.000029633071
 23       0.000095685444
 24      -0.000001580583
 25      -0.000000084235
 26      -0.000000414248
 27      -0.000005172191
 28      -0.000001501139
 29      -0.000005481051
 30      -0.000003126109
 31      -0.000002299267
 32       0.000004583926
 33      -0.000001068296
 34      -0.000000009858
 35      -0.000012220266
 36       0.000001983156
 37       0.000001660252
 38      -0.000002536040
 39       0.000001153921
 40       0.000005898961
 41      -0.000000868756
 42       0.000001277562
 43      -0.000002978354
 44       0.000007850200
 45      -0.000150594830
 46       0.000646680546
 47      -0.000008460529
 48       0.000020700259
 49       0.000005142755
 50       0.000071650358
 51      -0.000222323249
 52      -0.000110843893
 53      -0.000002489111
 54       0.000002512023
 55       0.000012011373
 56      -0.000009446079
 57       0.000003213092
 58      -0.000025043355
 59      -0.000039967336
 60      -0.000004086056
 61       0.000007399533
 62      -0.000000601153
 63      -0.000042547081
 64      -0.000062642419
 65      -0.000006779670
 66       0.000003807843
 67      -0.000000490896
 68       0.000126964112
 69      -0.000976843951
 70      -0.000026044506
 71      -0.000144221880
 72      -0.000076895948
 73      -0.994981968782
 74      -0.015688890712
 75       0.003923005709
 76      -0.002327785181
 77       0.001716876050
 78      -0.000003251731
 79      -0.000012385826
 80      -0.000006866095
 81       0.000010503366
 82       0.000039520166
 83       0.000021963294
 84      -0.000040330813
 85      -0.000151576902
 86      -0.000084238020
 87       0.000097945094
 88       0.000382418621
 89       0.000211696030
 90      -0.000001531270
 91       0.000001735535
 92       0.000006615180
 93      -0.000005547892
 94       0.000003150774
 95       0.000004660926
 96      -0.000005319034
 97      -0.000020153362
 98       0.000016885958
 99      -0.000009694583
100      -0.000003669736
101       0.000004669866
102       0.000016302201
103      -0.000013396947
104       0.000008648667
 Sym=     1a
 Ene= -6.24487097701754E+01
 Spin= Alpha
 Occup= 1.000000
  1      -0.000013447645
  2       0.000169133024
  3      -0.000192009875
  4      -0.000018071865
  5      -0.000039429697
  6      -0.000016302436
  7      -0.000128361909
  8       0.000156938565
  9      -0.000343849728
 10       0.000004647407
 11      -0.000004219722
 12       0.000002780621
 13       0.000001665276
 14       0.000017086339
 15      -0.000002734572
 16       0.000011082289
 17       0.000421906135
 18       0.000002013002
 19      -0.000006565660
 20      -0.000004495076
 21      -0.000038049032
 22       0.000070488835
 23      -0.000227739932
 24       0.000003693984
 25       0.000000266049
 26       0.000001048224
 27       0.000012164133
 28       0.000003437082
 29       0.000013683511
 30       0.000008130089
 31       0.000005472956
 32      -0.000010863238
 33       0.000002463662
 34      -0.000000166634
 35       0.000028829740
 36      -0.000004631873
 37      -0.000003890835
 38       0.000005916786
 39      -0.000002214744
 40      -0.000014005668
 41       0.000002031793
 42      -0.000002945097
 43       0.000006971213
 44      -0.000018589914
 45       0.000362224177
 46      -0.001572754089
 47       0.000020359508
 48      -0.000048541799
 49      -0.000011925134
 50      -0.000172214697
 51       0.000538525974
 52       0.000267186543
 53       0.000005969851
 54      -0.000006054216
 55      -0.000028532809
 56       0.000022398284
 57      -0.000007443935
 58       0.000059267894
 59       0.000100279658
 60       0.000010273440
 61      -0.000016776796
 62       0.000001634677
 63       0.000101308914
 64       0.000153080507
 65       0.000016283073
 66      -0.000008373016
 67       0.000001978187
 68      -0.000332687902
 69       0.002409222267
 70       0.000065703146
 71       0.000359403973
 72       0.000191949557
 73       0.347186576066
 74      -1.046958083973
 75      -0.018589058864
 76       0.006298937012
 77      -0.004368977661
 78      -0.000081338030
 79      -0.000359988051
 80      -0.000194182204
 81      -0.000035353143
 82      -0.000138422935
 83      -0.000076480032
 84       0.000102328546
 85       0.000388247994
 86       0.000215654058
 87      -0.000240847488
 88      -0.000942990786
 89      -0.000522015127
 90       0.000011276255
 91      -0.000010501941
 92      -0.000045887029
 93       0.000039880956
 94      -0.000019590121
 95      -0.000013085469
 96       0.000014300844
 97       0.000055645925
 98      -0.000047056994
 99       0.000025694323
100       0.000007998474
101      -0.000010470981
102      -0.000035793304
103       0.000029286439
104      -0.000018774884
 Sym=     1a
 Ene= -5.62804739218088E+01
 Spin= Alpha
 Occup= 1.000000
  1       0.000014931385
  2      -0.000183614902
  3       0.000102309276
  4       0.000020784117
  5       0.000044416745
  6       0.000018719968
  7       0.000176161949
  8      -0.000179392713
  9       0.000411978911
 10      -0.000006301010
 11       0.000003408506
 12      -0.000003451524
 13      -0.000002894249
 14      -0.000020551476
 15       0.000003239694
 16      -0.000016203700
 17      -0.000452717643
 18      -0.000002820528
 19       0.000007800483
 20       0.000005014914
 21       0.000042654061
 22      -0.000080227020
 23       0.000250361644
 24      -0.000004048844
 25       0.000000859171
 26      -0.000000931882
 27      -0.000013537139
 28      -0.000004000988
 29      -0.000012610095
 30       0.000002332018
 31      -0.000007315069
 32       0.000011653098
 33      -0.000004087499
 34      -0.000001573016
 35      -0.000037729564
 36       0.000005663419
 37       0.000004280661
 38      -0.000005131934
 39       0.000001570488
 40       0.000015544097
 41      -0.000001782661
 42       0.000003649005
 43      -0.000007989038
 44       0.000016832072
 45      -0.000396827462
 46       0.001861520614
 47      -0.000028553317
 48       0.000041777219
 49       0.000004748382
 50       0.000257186131
 51      -0.000617260886
 52      -0.000285987582
 53      -0.000009156411
 54       0.000008195419
 55       0.000043436728
 56      -0.000037343904
 57       0.000008393621
 58      -0.000061555604
 59      -0.000104602425
 60      -0.000015395173
 61       0.000025342991
 62      -0.000002111973
 63      -0.000115692502
 64      -0.000182006664
 65      -0.000024334187
 66       0.000017099848
 67      -0.000004142293
 68       0.000609704715
 69      -0.002796138200
 70      -0.000182645064
 71      -0.000854111569
 72      -0.000463549124
 73       0.000181067038
 74      -0.000539413508
 75       0.000271844212
 76      -0.000997980039
 77       0.001939404035
 78       0.174703677061
 79       0.861763976066
 80       0.456420734740
 81       0.004225356932
 82       0.020792719388
 83       0.011017256539
 84      -0.001164519116
 85      -0.005581596873
 86      -0.002970979251
 87       0.000629393955
 88       0.002836020733
 89       0.001526384926
 90      -0.000011507523
 91       0.000011013846
 92       0.000046747021
 93      -0.000040645754
 94       0.000020081258
 95       0.000007196446
 96      -0.000008638883
 97      -0.000030502622
 98       0.000025428417
 99      -0.000015099492
100       0.000035292623
101      -0.000032949389
102      -0.000147334517
103       0.000127691829
104      -0.000060369738
 Sym=     1a
 Ene= -5.62783136687480E+01
 Spin= Alpha
 Occup= 1.000000
  1       0.000000801480
  2      -0.000012618482
  3       0.000134748229
  4       0.000002855653
  5       0.000008563031
  6      -0.000002972938
  7      -0.000065885824
  8      -0.000106327633
  9       0.000106903987
 10       0.000000714273
 11      -0.000000232344
 12      -0.000000809738
 13       0.000003971165
 14       0.000004971419
 15       0.000000236636
 16      -0.000003939846
 17      -0.000180316086
 18       0.000006293939
 19      -0.000009307607
 20       0.000001879603
 21      -0.000022539474
 22       0.000025032222
 23       0.000049103798
 24      -0.000000686669
 25      -0.000002614569
 26      -0.000002582666
 27      -0.000002676501
 28       0.000001036449
 29       0.000009408248
 30       0.000045396292
 31      -0.000001632316
 32       0.000006595851
 33       0.000002911068
 34       0.000012237489
 35       0.000032849570
 36      -0.000001982781
 37      -0.000004193275
 38      -0.000005915178
 39      -0.000002290333
 40       0.000030640233
 41      -0.000000608853
 42      -0.000003796328
 43      -0.000006518450
 44      -0.000003571960
 45       0.000054766015
 46      -0.000179319261
 47      -0.000015341213
 48      -0.000023851439
 49       0.000009455862
 50       0.000067360677
 51       0.000145008761
 52      -0.000051073343
 53       0.000005513203
 54       0.000004520483
 55      -0.000001222100
 56      -0.000001716805
 57      -0.000002640217
 58       0.000111916949
 59      -0.000114040754
 60      -0.000013651824
 61      -0.000004598018
 62       0.000013275382
 63      -0.000053948796
 64       0.000096544271
 65      -0.000010715498
 66      -0.000020346716
 67       0.000006587033
 68      -0.000002024951
 69       0.000199912735
 70      -0.000020717629
 71       0.000005332839
 72       0.000022129567
 73      -0.000001801331
 74       0.000005163222
 75      -0.000005874629
 76       0.000039876580
 77      -0.000129626432
 78      -0.675500927426
 79      -0.227526097503
 80       0.688155571353
 81      -0.016135778697
 82      -0.005437411366
 83       0.016434436141
 84       0.003904258870
 85       0.001326388473
 86      -0.003962177211
 87      -0.001447921631
 88      -0.000548204953
 89       0.001414564980
 90       0.000021064570
 91      -0.000007310783
 92       0.000016847827
 93       0.000003462395
 94      -0.000023937993
 95      -0.000007594138
 96       0.000004579520
 97      -0.000001433042
 98      -0.000005066838
 99       0.000010013190
100       0.000003190892
101      -0.000004991625
102      -0.000009409016
103       0.000010120966
104      -0.000006709032
 Sym=     1a
 Ene= -5.62782918118131E+01
 Spin= Alpha
 Occup= 1.000000
  1      -0.000008910662
  2       0.000098678245
  3      -0.000385017552
  4      -0.000020699766
  5      -0.000029947900
  6      -0.000020402059
  7       0.000206923780
  8       0.000149292544
  9       0.000112865092
 10      -0.000008958199
 11      -0.000006716164
 12       0.000005164470
 13      -0.000011467291
 14      -0.000009898982
 15      -0.000000599828
 16      -0.000007075056
 17       0.000114959395
 18       0.000001090846
 19      -0.000004537251
 20      -0.000003250705
 21      -0.000109340516
 22      -0.000039325682
 23      -0.000043799691
 24       0.000004269249
 25       0.000003119391
 26       0.000007334671
 27       0.000004642371
 28      -0.000002508475
 29       0.000003694750
 30      -0.000021771518
 31      -0.000003256308
 32      -0.000018141998
 33      -0.000018744285
 34       0.000010127830
 35       0.000031806253
 36       0.000000662897
 37       0.000002119260
 38       0.000003379798
 39      -0.000013372074
 40      -0.000070348305
 41      -0.000001433536
 42       0.000001626871
 43       0.000006364394
 44       0.000002742385
 45      -0.000063709134
 46       0.000482751488
 47       0.000023944022
 48       0.000028042097
 49       0.000035982150
 50       0.000015249722
 51      -0.000221475983
 52      -0.000097749860
 53       0.000005218310
 54      -0.000007434152
 55      -0.000001363131
 56      -0.000006224404
 57      -0.000000308367
 58      -0.000061039692
 59       0.000015965857
 60       0.000011166292
 61       0.000012585638
 62       0.000017164240
 63      -0.000098829372
 64       0.000080884387
 65       0.000009604265
 66       0.000006463122
 67       0.000015074778
 68       0.000006327684
 69      -0.000385724998
 70       0.000023646805
 71      -0.000052468243
 72      -0.000001408361
 73       0.000004390165
 74      -0.000012650841
 75       0.000013968954
 76      -0.000079337811
 77       0.000243151442
 78       0.703418261122
 79      -0.432565612737
 80       0.547463801558
 81       0.016804739622
 82      -0.010323569549
 83       0.013081104084
 84      -0.004073495849
 85       0.002465123547
 86      -0.003178696146
 87       0.001526355827
 88      -0.000789643329
 89       0.001228650476
 90       0.000015420742
 91       0.000017136196
 92       0.000012456600
 93       0.000017339065
 94       0.000020679193
 95      -0.000003490666
 96      -0.000008286146
 97      -0.000011224699
 98      -0.000000688895
 99      -0.000010809923
100      -0.000002456175
101       0.000005726729
102       0.000014539090
103      -0.000009416799
104       0.000008448463
 Sym=     1a
 Ene= -1.02157252535849E+01
 Spin= Alpha
 Occup= 1.000000
  1      -0.135007549115
  2      -0.003945495947
  3      -0.003498542240
  4      -0.001879765285
  5       0.000684554521
  6      -0.001141333191
  7      -0.000677459095
  8      -0.001301357361
  9       0.004519138898
 10      -0.000137463544
 11       0.001102461503
 12      -0.000329177300
 13       0.000989912638
 14      -0.000437111432
 15      -0.025816828852
 16      -0.000493506952
 17      -0.004567575541
 18      -0.000264799134
 19       0.000103272870
 20      -0.000184543471
 21       0.004851673761
 22      -0.000539440386
 23       0.002433862189
 24      -0.000046749614
 25      -0.000050991590
 26       0.000073033652
 27      -0.000220916041
 28      -0.000050458519
 29       0.000889422436
 30       0.000609781887
 31       0.000188403458
 32      -0.000031560343
 33       0.000290596845
 34      -0.000688991096
 35      -0.001993881310
 36      -0.000026634057
 37       0.000006339955
 38       0.000054209901
 39       0.000987000876
 40       0.001723722851
 41       0.000026298184
 42       0.000070265627
 43      -0.000109960134
 44      -0.978304179652
 45      -0.051593408385
 46       0.043832611360
 47       0.000723457889
 48       0.000784495222
 49       0.000753373802
 50       0.002035297351
 51      -0.005612738589
 52      -0.002027060039
 53      -0.000805747663
 54       0.000220861127
 55       0.001408723976
 56      -0.001426169489
 57      -0.000143964129
 58       0.003079466774
 59      -0.007472828788
 60       0.002388433786
 61       0.000931670252
 62      -0.001377976797
 63       0.003058817834
 64      -0.007848595294
 65      -0.000277693889
 66      -0.000884549623
 67       0.002838159416
 68      -0.000903657355
 69      -0.014795326432
 70       0.000038468807
 71      -0.000022630484
 72      -0.000090830811
 73       0.000011400447
 74      -0.000020477799
 75       0.000198011336
 76      -0.002266244223
 77       0.009138189328
 78      -0.000006464103
 79      -0.000015366460
 80      -0.000005192952
 81       0.000023036706
 82       0.000055948641
 83       0.000019768842
 84      -0.000166143934
 85      -0.000495953454
 86      -0.000230976235
 87       0.001232447570
 88       0.004718679727
 89       0.002535990523
 90      -0.000014060200
 91       0.000017373296
 92       0.000057210898
 93      -0.000047338209
 94       0.000032882063
 95       0.000067058834
 96      -0.000082435780
 97      -0.000275965149
 98       0.000228447753
 99      -0.000155437566
100      -0.000221560383
101       0.000259629486
102       0.000931177594
103      -0.000777438669
104       0.000484090415
 Sym=     1a
 Ene= -1.02142480303955E+01
 Spin= Alpha
 Occup= 1.000000
  1       0.768457079003
  2       0.035431161956
  3      -0.028782221155
  4      -0.000168314092
  5       0.000354515714
  6      -0.001880605232
  7       0.002945632436
  8       0.002444302108
  9      -0.005972976821
 10      -0.000238830182
 11      -0.000020935537
 12      -0.000346952396
 13       0.001466466698
 14       0.000255864472
 15       0.609906778619
 16       0.026702736976
 17      -0.003740444645
 18       0.000071170895
 19      -0.000758609939
 20       0.002187228150
 21      -0.000742387545
 22       0.001377602632
 23      -0.004294302398
 24      -0.000524883921
 25       0.000081534679
 26       0.000015703899
 27       0.000990885696
 28       0.000168928115
 29      -0.003782957044
 30       0.004149375036
 31       0.002024117771
 32       0.000251664926
 33      -0.000609490536
 34      -0.002655869009
 35       0.003742163970
 36       0.001432942587
 37      -0.000060944438
 38       0.000568050111
 39      -0.002581217697
 40       0.003595201684
 41      -0.001339646613
 42      -0.000293422854
 43       0.000528166595
 44      -0.121434182518
 45      -0.007817122950
 46       0.008474936792
 47      -0.001365037701
 48      -0.000146231818
 49      -0.001139086665
 50      -0.001394928171
 51       0.000602660322
 52       0.005585242315
 53       0.000043267667
 54      -0.000700098509
 55       0.000368992846
 56      -0.001101564131
 57       0.000040558367
 58       0.000217666185
 59      -0.003483094243
 60       0.000657494409
 61      -0.000008296655
 62      -0.000124151230
 63       0.001793182411
 64      -0.000137932085
 65       0.000318987798
 66      -0.000303685343
 67       0.000528926914
 68      -0.000421626542
 69       0.007566247812
 70       0.000178724502
 71      -0.000198591534
 72      -0.000064689063
 73      -0.000008388871
 74       0.000015313596
 75      -0.000144857308
 76       0.001452791338
 77      -0.005106713683
 78      -0.000004092456
 79       0.000023439398
 80       0.000004668004
 81       0.000013169234
 82      -0.000081959448
 83      -0.000017235998
 84      -0.000004178441
 85       0.000502589917
 86       0.000166380715
 87      -0.000527170398
 88      -0.002897936162
 89      -0.001431561236
 90       0.000011008177
 91      -0.000006440450
 92      -0.000040860833
 93       0.000037216306
 94      -0.000018036216
 95      -0.000051763512
 96       0.000033055534
 97       0.000194784548
 98      -0.000175734271
 99       0.000087562735
100       0.000151786380
101      -0.000121361289
102      -0.000598194134
103       0.000525964307
104      -0.000276420898
 Sym=     1a
 Ene= -1.02138301813821E+01
 Spin= Alpha
 Occup= 1.000000
  1       0.606501206088
  2       0.032596496743
  3      -0.034094411613
  4       0.000362305146
  5      -0.000657205992
  6       0.001548815669
  7       0.002667603416
  8       0.000233148456
  9       0.000199446817
 10       0.001567030328
 11       0.000078294245
 12      -0.001545841342
 13       0.001409534958
 14       0.000219620686
 15      -0.776932070140
 16      -0.040776548794
 17       0.033171935099
 18       0.000125180066
 19      -0.000396162011
 20       0.001051579061
 21      -0.001907762414
 22       0.000701438440
 23      -0.002472662286
 24      -0.001342251730
 25      -0.000151171409
 26       0.001551376216
 27      -0.001716355319
 28      -0.000289897387
 29      -0.002640038770
 30       0.005293555981
 31       0.001637143230
 32       0.000528202378
 33      -0.001392200035
 34       0.003882689538
 35      -0.005693006385
 36      -0.002300061070
 37       0.000205897137
 38      -0.001269101047
 39       0.003260269648
 40      -0.006758956103
 41       0.002154750394
 42       0.000633039469
 43      -0.001356702402
 44      -0.062685319863
 45      -0.004783523768
 46       0.010665115772
 47      -0.001405519894
 48      -0.000058967601
 49      -0.000738852931
 50       0.003737118235
 51       0.001406287829
 52       0.000143787059
 53      -0.000091507965
 54      -0.000691157797
 55       0.000374984502
 56      -0.001010373806
 57       0.000087983872
 58       0.001005778232
 59       0.000103856794
 60       0.000534629305
 61      -0.000012916572
 62      -0.000098427525
 63       0.000091626280
 64      -0.001940675657
 65       0.000039307329
 66      -0.000185021833
 67       0.000387663383
 68      -0.000115693712
 69       0.003109255232
 70       0.000161359881
 71      -0.000088577061
 72       0.000189429484
 73      -0.000003498993
 74       0.000006421433
 75      -0.000060311959
 76       0.000585758165
 77      -0.002083368148
 78      -0.000004423302
 79       0.000010716327
 80       0.000001046620
 81       0.000014696854
 82      -0.000037526148
 83      -0.000004253235
 84      -0.000040860652
 85       0.000215721698
 86       0.000057665716
 87      -0.000148328154
 88      -0.001186450665
 89      -0.000573180281
 90       0.000003977750
 91      -0.000001189212
 92      -0.000017181595
 93       0.000016904318
 94      -0.000006570060
 95      -0.000017325452
 96       0.000007115948
 97       0.000080529013
 98      -0.000076677227
 99       0.000031663794
100       0.000045370016
101      -0.000034598936
102      -0.000238410328
103       0.000209846084
104      -0.000099693300
 Sym=     1a
 Ene= -8.66666912738083E+00
 Spin= Alpha
 Occup= 1.000000
  1       0.000034508242
  2      -0.000384354759
  3       0.000450451182
  4       0.000039762659
  5       0.000078606045
  6       0.000036458940
  7       0.000264148991
  8      -0.000357236952
  9       0.000644392162
 10      -0.000009371530
 11       0.000008750096
 12       0.000002348105
 13      -0.000008003098
 14      -0.000027664556
 15       0.000008017427
 16      -0.000030953664
 17      -0.000833968141
 18      -0.000001391040
 19       0.000015414024
 20       0.000011626171
 21       0.000057918808
 22      -0.000133949239
 23       0.000448504239
 24      -0.000006254393
 25      -0.000002398541
 26      -0.000004050095
 27      -0.000023034414
 28      -0.000004420116
 29      -0.000041614558
 30      -0.000030943092
 31      -0.000009413689
 32       0.000022100772
 33      -0.000000852912
 34       0.000004273355
 35      -0.000050995239
 36       0.000007254536
 37       0.000007173104
 38      -0.000011235986
 39      -0.000003369054
 40       0.000028811636
 41      -0.000003188365
 42       0.000004007991
 43      -0.000011709982
 44       0.000042264572
 45      -0.000762120068
 46       0.003521428899
 47      -0.000043033586
 48       0.000081044028
 49       0.000017467210
 50       0.000330144346
 51      -0.001207277877
 52      -0.000597271217
 53      -0.000013534856
 54       0.000013466049
 55       0.000055191433
 56      -0.000043368864
 57       0.000010982300
 58      -0.000102977299
 59      -0.000258854058
 60      -0.000024129595
 61       0.000014517932
 62      -0.000010270615
 63      -0.000189316997
 64      -0.000340248352
 65      -0.000033009248
 66      -0.000003263714
 67      -0.000015126488
 68       0.001017308564
 69      -0.006350191173
 70      -0.000139353254
 71      -0.000752991604
 72      -0.000403843122
 73      -0.136659818797
 74       0.516877704754
 75      -1.093410855287
 76      -0.032284816205
 77       0.014195023327
 78       0.000342298741
 79       0.001474074948
 80       0.000799633931
 81      -0.000804365186
 82      -0.003472068953
 83      -0.001882408204
 84      -0.000301383431
 85      -0.001197158379
 86      -0.000661380922
 87       0.000634890274
 88       0.002529639137
 89       0.001398679274
 90       0.000181708120
 91      -0.000163189166
 92      -0.000720509296
 93       0.000629511347
 94      -0.000302994478
 95       0.000145482069
 96      -0.000143205342
 97      -0.000591340746
 98       0.000508724028
 99      -0.000254501212
100      -0.000025944205
101       0.000034050121
102       0.000116326265
103      -0.000094874282
104       0.000054845614
 Sym=     1a
 Ene= -6.49942371813606E+00
 Spin= Alpha
 Occup= 1.000000
  1      -0.000017709753
  2       0.000225891682
  3      -0.000316732085
  4      -0.000024233317
  5      -0.000044966370
  6      -0.000020993896
  7      -0.000092866139
  8       0.000208698251
  9      -0.000323892614
 10       0.000004518950
 11      -0.000005513721
 12      -0.000002111801
 13       0.000003870522
 14       0.000013943205
 15      -0.000004576008