
                                 *****************
                                 * O   R   C   A *
                                 *****************

                                            #,                                       
                                            ###                                      
                                            ####                                     
                                            #####                                    
                                            ######                                   
                                           ########,                                 
                                     ,,################,,,,,                         
                               ,,#################################,,                 
                          ,,##########################################,,             
                       ,#########################################, ''#####,          
                    ,#############################################,,   '####,        
                  ,##################################################,,,,####,       
                ,###########''''           ''''###############################       
              ,#####''   ,,,,##########,,,,          '''####'''          '####       
            ,##' ,,,,###########################,,,                        '##       
           ' ,,###''''                  '''############,,,                           
         ,,##''                                '''############,,,,        ,,,,,,###''
      ,#''                                            '''#######################'''  
     '                                                          ''''####''''         
             ,#######,   #######,   ,#######,      ##                                
            ,#'     '#,  ##    ##  ,#'     '#,    #''#        ,####,    ,#,          
            ##       ##  ##   ,#'  ##            #'  '#       #'       ,# #          
            ##       ##  #######   ##           ,######,      #####,      #          
            '#,     ,#'  ##    ##  '#,     ,#' ,#      #,     #,   #      #          
             '#######'   ##     ##  '#######'  #'      '#     '####' #    #          



                #########################################################
                #                        -***-                          #
                #          Department of theory and spectroscopy        #
                #                                                       #
                #                      Frank Neese                      #
                #                                                       #
                #     Directorship, Architecture, Infrastructure        #
                #                    SHARK, DRIVERS                     #
                #        Core code/Algorithms in most modules           #
                #                                                       #
                #        Max Planck Institute fuer Kohlenforschung      #
                #                Kaiser Wilhelm Platz 1                 #
                #                 D-45470 Muelheim/Ruhr                 #
                #                      Germany                          #
                #                                                       #
                #                  All rights reserved                  #
                #                        -***-                          #
                #########################################################


                         Program Version 6.1.0  -  RELEASE   -
                                (GIT: $679e74b$)
                          ($2025-06-10 18:02:51 +0200$)


 With contributions from (in alphabetic order):
[Max-Planck-Institut fuer Kohlenforschung]                               
  Daniel Aravena         : Magnetic Suceptibility                        
  Michael Atanasov       : Ab Initio Ligand Field Theory (pilot matlab implementation)
  Alexander A. Auer      : GIAO ZORA, VPT2 properties, NMR spectrum      
  Ute Becker             : All parallelization in ORCA, NUMFREQ, NUMCALC 
  Giovanni Bistoni       : ED, misc. LED, open-shell LED, HFLD           
  Dmytro Bykov           : pre 5.0 version of the SCF Hessian            
  Marcos Casanova-Páez   : Triplet and SCS-CIS(D). UHF-(DLPNO)-IP/EA/STEOM-CCSD. UHF-CVS-IP/STEOM-CCSD   
  Vijay G. Chilkuri      : MRCI spin determinant printing, contributions to CSF-ICE 
  Pauline Colinet        : FMM embedding                                 
  Dipayan Datta          : RHF DLPNO-CCSD density                        
  Achintya Kumar Dutta   : EOM-CC, STEOM-CC                              
  Nicolas Foglia         : Exact transition moments, OPA infrastructure, MCD improvements    
  Dmitry Ganyushin       : Spin-Orbit,Spin-Spin,Magnetic field MRCI      
  Miquel Garcia-Rates    : C-PCM and meta-GGA Hessian, CCSD/C-PCM, Gaussian charge scheme 
  Tiago L. C. Gouveia    : GS-ROHF, GS-ROCIS                             
  Yang Guo               : DLPNO-NEVPT2, F12-NEVPT2, CIM, IAO-localization        
  Andreas Hansen         : Spin unrestricted coupled pair/coupled cluster methods 
  Ingolf Harden          : AUTO-CI MPn and infrastructure                
  Benjamin Helmich-Paris : MC-RPA, TRAH-(SCF,CASSCF), AVAS, COSX integrals, SCF dyn. polar., MC-PDFT, srDFT 
  Lee Huntington         : MR-EOM, pCC                                   
  Robert Izsak           : Overlap fitted RIJCOSX, COSX-SCS-MP3, EOM     
  Riya Kayal             : Wick's Theorem for AUTO-CI, AUTO-CI UHF-CCSDT 
  Emily Kempfer          : AUTO-CI RHF CISDT and CCSDT, approximate NEVPT4
  Christian Kollmar      : KDIIS, OOCD, Brueckner-CCSD(T), CCSD density, CASPT2, CASPT2-K, improved NEVPT2 
  Axel Koslowski         : Symmetry handling                             
  Simone Kossmann        : meta-GGA functionals, TD-DFT gradient, OOMP2, (MP2 Hessian; deprecated post 5.0) 
  Lucas Lang             : DCDCAS, Hyperfine gauge corrections, ICE-SOC+SSC
  Marvin Lechner         : AUTO-CI (C++ implementation), FIC-MRCC        
  Spencer Leger          : CASSCF response                               
  Dagmar Lenk            : GEPOL surface, SMD, ORCA-2-JSON               
  Dimitrios Liakos       : Extrapolation schemes; Compound Job, Property file
  Dimitrios Manganas     : Further ROCIS development; embedding schemes. LFT, Crystal Embedding 
  Dimitrios Pantazis     : SARC Basis sets                               
  Anastasios Papadopoulos: AUTO-CI, single reference methods and gradients 
  Taras Petrenko         : pre 6.0 DFT Hessian and TD-DFT gradient,  ECA, NRVS 
  Petra Pikulova         : Analytic Raman intensities                    
  Peter Pinski           : DLPNO-MP2, DLPNO-MP2 Gradient                 
  Shashank Vittal Rao    : ES-AILFT, MagRelax                            
  Christoph Reimann      : Effective Core Potentials                     
  Marius Retegan         : Local ZFS, SOC                                
  Christoph Riplinger    : Optimizer, TS searches, QM/MM, DLPNO-CCSD(T), (RO)-DLPNO pert. Triples 
  Michael Roemelt        : Original ROCIS implementation, recursive CI coupling coefficients
  Masaaki Saitow         : Open-shell DLPNO-CCSD energy and density      
  Barbara Sandhoefer     : DKH picture change effects                    
  Yorick L. A. Schmerwitz: GMF and freeze-and-release deltaSCF, NEB S-IDPP initial path                    
  Kantharuban Sivalingam : CASSCF convergence/infrastructure, NEVPT2, NEVPT3, NEVPT4(SD), FIC-MRCI and CEPA variants
  Bernardo de Souza      : ESD, SOC TD-DFT                               
  Georgi L. Stoychev     : AutoAux, RI-MP2 NMR, DLPNO-MP2 response, X2C  
  Van Anh Tran           : RI-MP2 g-tensors                              
  Willem Van den Heuvel  : Paramagnetic NMR                              
  Zikuan Wang            : NOTCH, Electric field optimization            
  Frank Wennmohs         : Technical directorship and infrastructure     
  Hang Xu                : AUTO-CI-Response properties                   
                                                                         
[FACCTs GmbH]                                                            
  Markus Bursch, Nicolas Foglia, Miquel Garcia-Rates, Ingolf Harden, Hagen Neugebauer, Anastasios Papadopoulos, 
  Christoph Riplinger, Bernardo de Souza, Georgi L. Stoychev                                                    
                                                                 
  APM, various basis sets, CI-OPT, improved COSX, DLPNO-Multilevel,           
  DOCKER, DRACO, updates on ESD, Fragmentator, GOAT, IRC, LR-CPCM, L-BFGS, MBIS, meta-GGA TD-DFT gradient, ML-optimized integration grids, 
  MM, NACMEs, nearIR, NEB, NEB-TS, NL-DFT gradient (VV10), 2- and 3-layer-ONIOM, interface openCOSMO-RS, QMMM,   
  Crystal-QMMM, RESP, rigid body optimization, SF, symmetry and pop. for TD-DFT, various functionals, SOLVATOR                                   
                                                                         
[Other institutions]                                                     
  V. Asgeirsson          : NEB                                           
  Christoph Bannwarth    : sTDA-DFT, sTD-DFT, PBEh-3c, B97-3c, D3        
  Giovanni Bistoni       : ETS/NOCV, ADLD/ADEX, COVALED                  
  Martin Brehm           : Molecular dynamics                            
  Ronald Cardenas        : ETS/NOCV                                      
  Martina Colucci        : COVALED                                       
  Sebastian Ehlert       : rSCAN, r2SCAN, r2SCAN-3c, D4, dhf basis sets  
  Marvin Friede          : D4 for Fr, Ra, Ac-Lr                          
  Lars Goerigk           : TD-DFT with DH, B97 family of functionals     
  Stefan Grimme          : VdW corrections, initial TS optimization, DFT functionals, gCP, sTDA/sTD-DF 
  Waldemar Hujo          : DFT-NL                                        
  H. Jonsson             : NEB                                           
  Holger Kruse           : gCP                                           
  Marcel Mueller         : wB97X-3c, vDZP basis set                      
  Hagen Neugebauer       : wr2SCAN, Native XTB                           
  Gianluca Regni         : ADLD/ADEX                                     
  Tobias Risthaus        : pre 6.0 range-separated hybrid DFT and stability analysis
  Lukas Wittmann         : regularized MP2, r2SCAN double-hybrids, wr2SCAN        
                                                                         
We gratefully acknowledge several colleagues who have allowed us to      
interface, adapt or use parts of their codes:                            
  Ed Valeev, F. Pavosevic, A. Kumar             : LibInt (2-el integral package), F12 methods 
  Garnet Chan, S. Sharma, J. Yang, R. Olivares  : DMRG                   
  Ulf Ekstrom                                   : XCFun DFT Library      
  Mihaly Kallay                                 : mrcc  (arbitrary order and MRCC methods)
  Frank Weinhold                                : gennbo (NPA and NBO analysis)           
  Simon Mueller                                 : openCOSMO-RS                            
  Christopher J. Cramer and Donald G. Truhlar   : smd solvation model                     
  S Lehtola, MJT Oliveira, MAL Marques          : LibXC Library                           
  Liviu Ungur et al                             : ANISO software                          


 Your calculation uses the libint2 library for the computation of 2-el integrals
 For citations please refer to: http://libint.valeyev.net

 Your ORCA version has been built with support for libXC version: 7.0.0
 For citations please refer to: https://libxc.gitlab.io

 This ORCA versions uses:
   CBLAS   interface :  Fast vector & matrix operations
   LAPACKE interface :  Fast linear algebra routines
   SCALAPACK package :  Parallel linear algebra routines
   Shared memory     :  Shared parallel matrices
   BLAS/LAPACK       :  OpenBLAS 0.3.29  USE64BITINT DYNAMIC_ARCH NO_AFFINITY Zen SINGLE_THREADED
        Core in use  :  Zen
   Copyright (c) 2011-2014, The OpenBLAS Project


  ***********************************
  * Starting time: Sun Apr  5 14:31:08 2026
  * Host name:     QC1
  * Process ID:    27391
  * Working dir.:  /home/user/QC/radical/allyl/split-ts1_2
  ***********************************

NOTE: MaxCore=1200 MB was set to SCF,MP2,MDCI,CIPSI,MRCI,RASCI and CIS
      => If you want to overwrite this, your respective input block should be placed after the MaxCore statement
Warning: RI is on but no J-basis has been assigned. Assigning Def2/J (nothing to worry about!)
================================================================================

----- Orbital basis set information -----
Your calculation utilizes the basis: def-SVP
   H-Kr: A. Schäfer, H. Horn, R. Ahlrichs; J. Chem. Phys. 97, 2571 (1992)
   Rb-At: K. Eichkorn, F. Weigend, O. Treutler, R. Ahlrichs; Theor. Chem. Acc. 97, 119 (1997)
   Rn: F. Weigend, R. Ahlrichs; Phys. Chem. Chem. Phys. 7, 3297 (2005)
   Fr-Ra: I. S. Lim, P. Schwerdtfeger, B. Metz, H. Stoll, J. Chem. Phys. 122, 104103 (2005)
   Ac-Lr: X. Cao, M. Dolg, J. Molec. Struct. Theochem. 673 (2004)
----- AuxJ basis set information -----
Your calculation utilizes the auxiliary basis: def2/J
   H-Rn: F. Weigend, Phys. Chem. Chem. Phys. 8, 1057 (2006).
   Fr-Lr: K. Eichkorn, F. Weigend, O. Treutler, R. Ahlrichs; Theor. Chem. Acc. 97, 119 (1997).

================================================================================
                                        WARNINGS
                       Please study these warnings very carefully!
================================================================================


WARNING: your system is open-shell and RHF/RKS was chosen
  ===> : WILL SWITCH to UHF/UKS


================================================================================
                                       INPUT FILE
================================================================================
NAME = radical_021.inp
|  1> ! B3LYP def-SVP 
|  2> %maxcore 1200
|  3> %pal nprocs 8 end
|  4> * xyz 0 2
|  5> C    0.62289300   0.46664200   0.17987800
|  6> C    0.69809300   0.04345000   1.49190500
|  7> H    1.55987200   0.69433900  -0.34455100
|  8> H    1.65402000  -0.01898500   2.01639000
|  9> H   -0.20631300  -0.22333800   2.04803200
| 10> C   -0.56999500   0.60775400  -0.53743300
| 11> H   -1.53573300   0.42572200  -0.05416200
| 12> H   -0.58464100   1.06158800  -1.53133900
| 13> H   -0.67749900  -0.98136600  -1.33456500
| 14> Br  -0.96982300  -2.25337200  -2.01988500
| 15> *
| 16> 
| 17>                          ****END OF INPUT****
================================================================================

                       ****************************
                       * Single Point Calculation *
                       ****************************

---------------------------------
CARTESIAN COORDINATES (ANGSTROEM)
---------------------------------
  C      0.622893    0.466642    0.179878
  C      0.698093    0.043450    1.491905
  H      1.559872    0.694339   -0.344551
  H      1.654020   -0.018985    2.016390
  H     -0.206313   -0.223338    2.048032
  C     -0.569995    0.607754   -0.537433
  H     -1.535733    0.425722   -0.054162
  H     -0.584641    1.061588   -1.531339
  H     -0.677499   -0.981366   -1.334565
  Br    -0.969823   -2.253372   -2.019885

----------------------------
CARTESIAN COORDINATES (A.U.)
----------------------------
  NO LB      ZA    FRAG     MASS         X           Y           Z
   0 C     6.0000    0    12.011    1.177097    0.881826    0.339920
   1 C     6.0000    0    12.011    1.319205    0.082109    2.819292
   2 H     1.0000    0     1.008    2.947731    1.312111   -0.651107
   3 H     1.0000    0     1.008    3.125645   -0.035876    3.810425
   4 H     1.0000    0     1.008   -0.389875   -0.422048    3.870220
   5 C     6.0000    0    12.011   -1.077134    1.148489   -1.015601
   6 H     1.0000    0     1.008   -2.902115    0.804498   -0.102351
   7 H     1.0000    0     1.008   -1.104811    2.006111   -2.893811
   8 H     1.0000    0     1.008   -1.280288   -1.854513   -2.521962
   9 Br   35.0000    0    79.900   -1.832700   -4.258256   -3.817029

--------------------------------
INTERNAL COORDINATES (ANGSTROEM)
--------------------------------
 C      0   0   0     0.000000000000     0.00000000     0.00000000
 C      1   0   0     1.380638025549     0.00000000     0.00000000
 H      1   2   0     1.097634431990   118.10752017     0.00000000
 H      2   1   3     1.092144255023   121.43734640     2.95946831
 H      2   1   3     1.094716077305   120.82824376   181.77803036
 C      1   2   3     1.399081644440   124.37302389   179.03317883
 H      6   1   2     1.095142179404   120.58804956     2.97916694
 H      6   1   2     1.092716313463   121.30928563   172.41955551
 H      6   1   2     1.781089248140   101.00733141   266.65169601
 Br     9   6   1     1.474149275824   171.85198301   160.80476855

---------------------------
INTERNAL COORDINATES (A.U.)
---------------------------
 C      0   0   0     0.000000000000     0.00000000     0.00000000
 C      1   0   0     2.609027758366     0.00000000     0.00000000
 H      1   2   0     2.074228471624   118.10752017     0.00000000
 H      2   1   3     2.063853540728   121.43734640     2.95946831
 H      2   1   3     2.068713580506   120.82824376   181.77803036
 C      1   2   3     2.643881146988   124.37302389   179.03317883
 H      6   1   2     2.069518796779   120.58804956     2.97916694
 H      6   1   2     2.064934574513   121.30928563   172.41955551
 H      6   1   2     3.365770899056   101.00733141   266.65169601
 Br     9   6   1     2.785738411825   171.85198301   160.80476855

---------------------
BASIS SET INFORMATION
---------------------
There are 3 groups of distinct atoms

 Group   1 Type C   : 7s4p1d contracted to 3s2p1d pattern {511/31/1}
 Group   2 Type H   : 4s1p contracted to 2s1p pattern {31/1}
 Group   3 Type Br  : 14s10p6d contracted to 5s4p3d pattern {63311/5311/411}

Atom   0C    basis set group =>   1
Atom   1C    basis set group =>   1
Atom   2H    basis set group =>   2
Atom   3H    basis set group =>   2
Atom   4H    basis set group =>   2
Atom   5C    basis set group =>   1
Atom   6H    basis set group =>   2
Atom   7H    basis set group =>   2
Atom   8H    basis set group =>   2
Atom   9Br   basis set group =>   3
---------------------------------
AUXILIARY/J BASIS SET INFORMATION
---------------------------------
There are 3 groups of distinct atoms

 Group   1 Type C   : 12s5p4d2f1g contracted to 6s4p3d1f1g pattern {711111/2111/211/2/1}
 Group   2 Type H   : 5s2p1d contracted to 3s1p1d pattern {311/2/1}
 Group   3 Type Br  : 19s5p5d3f1g contracted to 8s4p3d2f1g pattern {121111111/2111/311/21/1}

Atom   0C    basis set group =>   1
Atom   1C    basis set group =>   1
Atom   2H    basis set group =>   2
Atom   3H    basis set group =>   2
Atom   4H    basis set group =>   2
Atom   5C    basis set group =>   1
Atom   6H    basis set group =>   2
Atom   7H    basis set group =>   2
Atom   8H    basis set group =>   2
Atom   9Br   basis set group =>   3


           ************************************************************
           *        Program running with 8 parallel MPI-processes     *
           *              working on a common directory               *
           ************************************************************
------------------------------------------------------------------------------
                             ORCA STARTUP CALCULATIONS
                           -- RI-GTO INTEGRALS CHOSEN --
------------------------------------------------------------------------------
------------------------------------------------------------------------------
                   ___                                                        
                  /   \      - P O W E R E D   B Y -                         
                 /     \                                                     
                 |  |  |   _    _      __       _____    __    __             
                 |  |  |  | |  | |    /  \     |  _  \  |  |  /  |          
                  \  \/   | |  | |   /    \    | | | |  |  | /  /          
                 / \  \   | |__| |  /  /\  \   | |_| |  |  |/  /          
                |  |  |   |  __  | /  /__\  \  |    /   |      \           
                |  |  |   | |  | | |   __   |  |    \   |  |\   \          
                \     /   | |  | | |  |  |  |  | |\  \  |  | \   \       
                 \___/    |_|  |_| |__|  |__|  |_| \__\ |__|  \__/        
                                                                              
                      - O R C A' S   B I G   F R I E N D -                    
                                      &                                       
                       - I N T E G R A L  F E E D E R -                       
                                                                              
 v1 FN, 2020, v2 2021, v3 2022-2024                                           
------------------------------------------------------------------------------


----------------------
SHARK INTEGRAL PACKAGE
----------------------

Number of atoms                             ...     10
Number of basis functions                   ...    104
Number of shells                            ...     48
Maximum angular momentum                    ...      2
Integral batch strategy                     ... SHARK/LIBINT Hybrid
RI-J (if used) integral strategy            ... SPLIT-RIJ (Revised 2003 algorithm where possible)
Printlevel                                  ...      1
Contraction scheme used                     ... SEGMENTED contraction
Prescreening option                         ... SCHWARTZ
   Thresh                                   ... 1.000e-10
   Tcut                                     ... 1.000e-11
   Tpresel                                  ... 1.000e-11 
Coulomb Range Separation                    ... NOT USED
Exchange Range Separation                   ... NOT USED
Multipole approximations                    ... NOT USED
Finite Nucleus Model                        ... NOT USED
CABS basis                                  ... NOT available
Auxiliary Coulomb fitting basis             ... AVAILABLE
   # of basis functions in Aux-J            ...    271
   # of shells in Aux-J                     ...     93
   Maximum angular momentum in Aux-J        ...      4
Auxiliary J/K fitting basis                 ... NOT available
Auxiliary Correlation fitting basis         ... NOT available
Auxiliary 'external' fitting basis          ... NOT available

Checking pre-screening integrals            ... done (  0.0 sec) Dimension = 48
   => SHARK Basis and OBASIS are compatible. Storing Pre-screening
Shell pair information
Shell pair cut-off parameter TPreSel        ...   1.0e-11
Total number of shell pairs                 ...      1176
Shell pairs after pre-screening             ...      1079
Total number of primitive shell pairs       ...      4753
Primitive shell pairs kept                  ...      3278
          la=0 lb=0:    331 shell pairs
          la=1 lb=0:    383 shell pairs
          la=1 lb=1:    124 shell pairs
          la=2 lb=0:    138 shell pairs
          la=2 lb=1:     85 shell pairs
          la=2 lb=2:     18 shell pairs

Checking whether 4 symmetric matrices of dimension 104 fit in memory
:Max Core in MB      =   1200.00
 MB in use           =      4.71
 MB left             =   1195.29
 MB needed           =      0.17
 Data fit in memory  = YES
Calculating RI/J V-Matrix + Cholesky decomp.... done (  0.0 sec)
Calculating Nuclear repulsion               ... done (  0.0 sec) ENN=    192.780733639557 Eh

Diagonalization of the overlap matrix:
Smallest eigenvalue                        ... 2.641e-03
Time for diagonalization                   ...    0.001 sec
Threshold for overlap eigenvalues          ... 1.000e-07
Number of eigenvalues below threshold      ... 0
Time for construction of square roots      ...    0.000 sec
Total time needed                          ...    0.002 sec

-------------------
DFT GRID GENERATION
-------------------

General Integration Accuracy     IntAcc      ... 4.388
Radial Grid Type                 RadialGrid  ... OptM3 with GC (2021)
Angular Grid (max. ang.)         AngularGrid ... 4 (Lebedev-302)
Angular grid pruning method      GridPruning ... 4 (adaptive)
Weight generation scheme         WeightScheme... mBecke (2022)
Basis function cutoff            BFCut       ... 1.0000e-10
Integration weight cutoff        WCut        ... 1.0000e-14
Partially contracted basis set               ... off
Rotationally invariant grid construction     ... off
Angular grids for H and He will be reduced by one unit
Core-polarized basis detected: some atoms will have their core
                               angular grid increased.

Total number of grid points                  ...    49043
Total number of batches                      ...      772
Average number of points per batch           ...       63
Average number of grid points per atom       ...     4904

--------------------
COSX GRID GENERATION
--------------------

GRIDX 1
-------
General Integration Accuracy     IntAcc      ... 3.816
Radial Grid Type                 RadialGrid  ... OptM3 with GC (2021)
Angular Grid (max. ang.)         AngularGrid ... 1 (Lebedev-50)
Angular grid pruning method      GridPruning ... 4 (adaptive)
Weight generation scheme         WeightScheme... mBecke (2022)
Basis function cutoff            BFCut       ... 1.0000e-10
Integration weight cutoff        WCut        ... 1.0000e-14
Partially contracted basis set               ... on
Rotationally invariant grid construction     ... off
Angular grids for H and He will be reduced by one unit
Core-polarized basis detected: some atoms will have their core
                               angular grid increased.

Total number of grid points                  ...    11067
Total number of batches                      ...       92
Average number of points per batch           ...      120
Average number of grid points per atom       ...     1107
UseSFitting                                  ... on

GRIDX 2
-------
General Integration Accuracy     IntAcc      ... 4.020
Radial Grid Type                 RadialGrid  ... OptM3 with GC (2021)
Angular Grid (max. ang.)         AngularGrid ... 2 (Lebedev-110)
Angular grid pruning method      GridPruning ... 4 (adaptive)
Weight generation scheme         WeightScheme... mBecke (2022)
Basis function cutoff            BFCut       ... 1.0000e-10
Integration weight cutoff        WCut        ... 1.0000e-14
Partially contracted basis set               ... on
Rotationally invariant grid construction     ... off
Angular grids for H and He will be reduced by one unit
Core-polarized basis detected: some atoms will have their core
                               angular grid increased.

Total number of grid points                  ...    16395
Total number of batches                      ...      133
Average number of points per batch           ...      123
Average number of grid points per atom       ...     1640
UseSFitting                                  ... on

GRIDX 3
-------
General Integration Accuracy     IntAcc      ... 4.338
Radial Grid Type                 RadialGrid  ... OptM3 with GC (2021)
Angular Grid (max. ang.)         AngularGrid ... 3 (Lebedev-194)
Angular grid pruning method      GridPruning ... 4 (adaptive)
Weight generation scheme         WeightScheme... mBecke (2022)
Basis function cutoff            BFCut       ... 1.0000e-10
Integration weight cutoff        WCut        ... 1.0000e-14
Partially contracted basis set               ... on
Rotationally invariant grid construction     ... off
Angular grids for H and He will be reduced by one unit
Core-polarized basis detected: some atoms will have their core
                               angular grid increased.

Total number of grid points                  ...    28559
Total number of batches                      ...      228
Average number of points per batch           ...      125
Average number of grid points per atom       ...     2856
UseSFitting                                  ... on
Grids setup in   0.4 sec
Initializing property integral containers    ... done (  0.0 sec)

SHARK setup successfully completed in   0.4 seconds

Maximum memory used throughout the entire STARTUP-calculation: 17.5 MB


           ************************************************************
           *        Program running with 8 parallel MPI-processes     *
           *              working on a common directory               *
           ************************************************************
-------------------------------------------------------------------------------
                                 ORCA GUESS
                   Start orbitals & Density for SCF / CASSCF
-------------------------------------------------------------------------------

------------
SCF SETTINGS
------------
Hamiltonian:
 Density Functional     Method          .... DFT(GTOs)
 Exchange Functional    Exchange        .... B88
   X-Alpha parameter    XAlpha          ....  0.666667
   Becke's b parameter  XBeta           ....  0.004200
 Correlation Functional Correlation     .... LYP
 LDA part of GGA corr.  LDAOpt          .... VWN-5
 Gradients option       PostSCFGGA      .... off
 Hybrid DFT is turned on
   Fraction HF Exchange ScalHFX         ....  0.200000
   Scaling of DF-GGA-X  ScalDFX         ....  0.720000
   Scaling of DF-GGA-C  ScalDFC         ....  0.810000
   Scaling of DF-LDA-C  ScalLDAC        ....  1.000000
   Perturbative correction              ....  0.000000
   NL short-range parameter             ....  4.800000
 RI-approximation to the Coulomb term is turned on
   Number of AuxJ basis functions       .... 271
   RIJ-COSX (HFX calculated with COS-X)).... on


General Settings:
 Integral files         IntName         .... radical_021
 Hartree-Fock type      HFTyp           .... UHF
 Total Charge           Charge          ....    0
 Multiplicity           Mult            ....    2
 Number of Electrons    NEL             ....   59
 Basis Dimension        Dim             ....  104
 Nuclear Repulsion      ENuc            ....    192.7807336396 Eh

Convergence Acceleration:
 AO-DIIS                CNVDIIS         .... on
   Start iteration      DIISMaxIt       ....    12
   Startup error        DIISStart       ....  0.200000
   # of expansion vecs  DIISMaxEq       ....     5
   Bias factor          DIISBfac        ....   1.050
   Max. coefficient     DIISMaxC        ....  10.000
 MO-DIIS                CNVKDIIS        .... off
 Trust-Rad. Augm. Hess. CNVTRAH         .... auto
   Auto Start mean grad. ratio tolernc. ....  1.125000
   Auto Start start iteration           ....    50
   Auto Start num. interpolation iter.  ....    10
   Max. Number of Micro iterations      ....    24
   Max. Number of Macro iterations      .... Maxiter - #DIIS iter
   Number of Davidson start vectors     ....     2
   Converg. threshold    (grad. norm)   ....   5.000e-05
   Grad. Scal. Fac. for Micro threshold ....   0.100
   Minimum threshold for Micro iter.    ....   1.000e-02
   NR start threshold (gradient norm)   ....   1.000e-04
   Initial trust radius                 ....   0.400
   Minimum AH scaling param. (alpha)    ....   1.000
   Maximum AH scaling param. (alpha)    .... 1000.000
   Quad. conv. algorithm                .... NR
   White noise on init. David. guess    .... on
   Maximum white noise                  ....   0.010
   Pseudo random numbers                .... off
   Inactive MOs                         .... canonical
   Orbital update algorithm             .... Taylor
   Preconditioner                       .... Diag
   Full preconditioner red. dimension   ....   250
 SOSCF                 CNVSOSCF           .... on
   Start iteration     SOSCFMaxIt         ....   150
   Startup grad/error  SOSCFStart         ....  0.003300
   Hessian update      SOSCFHessUp        .... L-BFGS
   Autom. constraints  SOSCFAutoConstrain .... off
 Level Shifting         CNVShift        .... on
   Level shift para.    LevelShift      ....    0.2500
   Turn off err/grad.   ShiftErr        ....    0.0010
 Zerner damping         CNVZerner       .... off
 Static damping         CNVDamp         .... on
   Fraction old density DampFac         ....    0.7000
   Max. Damping (<1)    DampMax         ....    0.9800
   Min. Damping (>=0)   DampMin         ....    0.0000
   Turn off err/grad.   DampErr         ....    0.1000

SCF Procedure:
 Maximum # iterations   MaxIter         ....   125
 SCF integral mode      SCFMode         .... Direct
   Integral package                     .... SHARK and LIBINT hybrid scheme
 Reset frequency        DirectResetFreq ....    20
 Integral Threshold     Thresh          ....  1.000e-10 Eh
 Primitive CutOff       TCut            ....  1.000e-11 Eh

Convergence Tolerance:
 Convergence Check Mode ConvCheckMode   .... Total+1el-Energy
 Convergence forced     ConvForced      .... 0
 Energy Change          TolE            ....  1.000e-06 Eh
 1-El. energy change                    ....  1.000e-03 Eh
 Orbital Gradient       TolG            ....  5.000e-05
 Orbital Rotation angle TolX            ....  5.000e-05
 DIIS Error             TolErr          ....  1.000e-06

------------------------------
INITIAL GUESS: MODEL POTENTIAL
------------------------------
Loading Hartree-Fock densities                     ... done
Calculating cut-offs                               ... done
Initializing the effective Hamiltonian             ... done
Setting up the integral package (SHARK)            ... done
Starting the Coulomb interaction                   ... done (   0.0 sec)
Making the grid                                    ... done (   0.1 sec)
Mapping shells                                     ... done
Starting the XC term evaluation                    ... done (   0.0 sec)
  promolecular density results
     # of electrons  =     58.998290897
     EX              =   -106.843771312
     EC              =     -2.448800740
     EX+EC           =   -109.292572052
Transforming the Hamiltonian                       ... done (   0.0 sec)
Diagonalizing the Hamiltonian                      ... done (   0.0 sec)
Back transforming the eigenvectors                 ... done (   0.0 sec)
Now organizing SCF variables                       ... done
                      ------------------
                      INITIAL GUESS DONE (   0.1 sec)
                      ------------------
             **** ENERGY FILE WAS UPDATED (radical_021.en.tmp) ****
Finished Guess after   0.4 sec
Maximum memory used throughout the entire GUESS-calculation: 8.8 MB


           ************************************************************
           *        Program running with 8 parallel MPI-processes     *
           *              working on a common directory               *
           ************************************************************

-------------------------------------------------------------------------------------------
                                      ORCA LEAN-SCF
                              memory conserving SCF solver
-------------------------------------------------------------------------------------------

----------------------------------------D-I-I-S--------------------------------------------
Iteration    Energy (Eh)           Delta-E    RMSDP     MaxDP     DIISErr   Damp  Time(sec)
-------------------------------------------------------------------------------------------
               ***  Starting incremental Fock matrix formation  ***
    1    -2691.3392967349591345     0.00e+00  4.15e-03  3.05e-02  6.90e-02  0.700   0.2
    2    -2691.3761230098734814    -3.68e-02  3.07e-03  2.05e-02  3.84e-02  0.700   0.2
                               ***Turning on AO-DIIS***
    3    -2691.3927666310664790    -1.66e-02  1.40e-03  1.06e-02  1.65e-02  0.700   0.2
    4    -2691.4024416712618404    -9.68e-03  2.83e-03  2.15e-02  1.06e-02  0.000   0.2
    5    -2691.4236730920010814    -2.12e-02  5.54e-04  4.54e-03  3.77e-03  0.000   0.2
                              *** Initializing SOSCF ***
---------------------------------------S-O-S-C-F--------------------------------------
Iteration    Energy (Eh)           Delta-E    RMSDP     MaxDP     MaxGrad    Time(sec)
--------------------------------------------------------------------------------------
    6    -2691.4239487262302646    -2.76e-04  3.78e-04  4.51e-03  2.55e-03     0.2
               *** Restarting incremental Fock matrix formation ***
    7    -2691.4240206211870827    -7.19e-05  3.25e-04  3.41e-03  2.48e-03     0.2
    8    -2691.4240723342791171    -5.17e-05  3.65e-04  4.79e-03  1.74e-03     0.2
    9    -2691.4240862789838502    -1.39e-05  1.36e-04  1.35e-03  1.26e-03     0.2
   10    -2691.4240932618604347    -6.98e-06  3.97e-05  2.95e-04  1.49e-04     0.2
   11    -2691.4240931458634805     1.16e-07  2.34e-05  2.02e-04  1.80e-04     0.2
                 **** Energy Check signals convergence ****

               *****************************************************
               *                     SUCCESS                       *
               *           SCF CONVERGED AFTER  11 CYCLES          *
               *****************************************************

Recomputing exchange energy using gridx3       ... done (    0.246 sec)
Old exchange energy                            :    -21.430364560 Eh
New exchange energy                            :    -21.430363778 Eh
Exchange energy change after final integration :      0.000000782 Eh
Total energy after final integration           :  -2691.424092822 Eh
             **** ENERGY FILE WAS UPDATED (radical_021.en.tmp) ****

----------------
TOTAL SCF ENERGY
----------------

Total Energy       :      -2691.42409282170729 Eh          -73237.37288 eV

Components:
Nuclear Repulsion  :        192.78073363955741 Eh            5245.83046 eV
Electronic Energy  :      -2884.20482724339672 Eh          -78483.20336 eV
One Electron Energy:      -4122.89078324442562 Eh         -112189.56182 eV
Two Electron Energy:       1238.68595600102890 Eh           33706.35846 eV

Virial components:
Potential Energy   :      -5378.52097746979598 Eh         -146356.99644 eV
Kinetic Energy     :       2687.09688464808823 Eh           73119.62356 eV
Virial Ratio       :          2.00161036552063

DFT components:
N(Alpha)           :       29.999982345562 electrons
N(Beta)            :       28.999980647056 electrons
N(Total)           :       58.999962992619 electrons
E(X)               :      -85.245120828580 Eh       
E(C)               :       -2.871617184865 Eh       
E(XC)              :      -88.116738013444 Eh       

---------------
SCF CONVERGENCE
---------------

  Last Energy change         ...   -1.1600e-07  Tolerance :   1.0000e-06
  Last MAX-Density change    ...    2.0155e-04  Tolerance :   1.0000e-05
  Last RMS-Density change    ...    2.3376e-05  Tolerance :   1.0000e-06
  Last DIIS Error            ...    2.5533e-03  Tolerance :   1.0000e-06
  Last Orbital Gradient      ...    1.8015e-04  Tolerance :   5.0000e-05
  Last Orbital Rotation      ...    4.3394e-04  Tolerance :   5.0000e-05


----------------------
UHF SPIN CONTAMINATION
----------------------

Warning: in a DFT calculation there is little theoretical justification to 
         calculate <S**2> as in Hartree-Fock theory. We will do it anyways
         but you should keep in mind that the values have only limited relevance

Expectation value of <S**2>     :     0.778043
Ideal value S*(S+1) for S=0.5   :     0.750000
Deviation                       :     0.028043

----------------
ORBITAL ENERGIES
----------------
                 SPIN UP ORBITALS
  NO   OCC          E(Eh)            E(eV) 
   0   1.0000    -482.761669    -13136.6129 
   1   1.0000     -62.444825     -1699.2101 
   2   1.0000     -56.276618     -1531.3646 
   3   1.0000     -56.274435     -1531.3052 
   4   1.0000     -56.274414     -1531.3046 
   5   1.0000     -10.217766      -278.0395 
   6   1.0000     -10.215968      -277.9906 
   7   1.0000     -10.215492      -277.9777 
   8   1.0000      -8.662841      -235.7279 
   9   1.0000      -6.495561      -176.7532 
  10   1.0000      -6.483883      -176.4354 
  11   1.0000      -6.483833      -176.4341 
  12   1.0000      -2.609933       -71.0199 
  13   1.0000      -2.606536       -70.9275 
  14   1.0000      -2.606494       -70.9263 
  15   1.0000      -2.597288       -70.6758 
  16   1.0000      -2.597284       -70.6757 
  17   1.0000      -0.809671       -22.0323 
  18   1.0000      -0.757172       -20.6037 
  19   1.0000      -0.695203       -18.9174 
  20   1.0000      -0.571415       -15.5490 
  21   1.0000      -0.497684       -13.5427 
  22   1.0000      -0.457261       -12.4427 
  23   1.0000      -0.426162       -11.5965 
  24   1.0000      -0.406054       -11.0493 
  25   1.0000      -0.380023       -10.3410 
  26   1.0000      -0.333162        -9.0658 
  27   1.0000      -0.273649        -7.4464 
  28   1.0000      -0.273414        -7.4400 
  29   1.0000      -0.223256        -6.0751 
  30   0.0000       0.000200         0.0054 
  31   0.0000       0.061487         1.6731 
  32   0.0000       0.079209         2.1554 
  33   0.0000       0.093029         2.5315 
  34   0.0000       0.096647         2.6299 
  35   0.0000       0.141726         3.8566 
  36   0.0000       0.144063         3.9202 
  37   0.0000       0.259823         7.0701 
  38   0.0000       0.310634         8.4528 
  39   0.0000       0.337163         9.1747 
  40   0.0000       0.372923        10.1478 

                 SPIN DOWN ORBITALS
  NO   OCC          E(Eh)            E(eV) 
   0   1.0000    -482.761355    -13136.6043 
   1   1.0000     -62.444660     -1699.2056 
   2   1.0000     -56.275972     -1531.3470 
   3   1.0000     -56.274312     -1531.3019 
   4   1.0000     -56.274291     -1531.3013 
   5   1.0000     -10.219137      -278.0768 
   6   1.0000     -10.208973      -277.8003 
   7   1.0000     -10.206906      -277.7440 
   8   1.0000      -8.662373      -235.7152 
   9   1.0000      -6.494311      -176.7192 
  10   1.0000      -6.483668      -176.4296 
  11   1.0000      -6.483618      -176.4282 
  12   1.0000      -2.609060       -70.9961 
  13   1.0000      -2.605837       -70.9084 
  14   1.0000      -2.605795       -70.9073 
  15   1.0000      -2.597164       -70.6724 
  16   1.0000      -2.597159       -70.6723 
  17   1.0000      -0.799634       -21.7591 
  18   1.0000      -0.752654       -20.4808 
  19   1.0000      -0.672486       -18.2993 
  20   1.0000      -0.565096       -15.3770 
  21   1.0000      -0.492955       -13.4140 
  22   1.0000      -0.451524       -12.2866 
  23   1.0000      -0.414209       -11.2712 
  24   1.0000      -0.400344       -10.8939 
  25   1.0000      -0.377478       -10.2717 
  26   1.0000      -0.307770        -8.3748 
  27   1.0000      -0.272113        -7.4046 
  28   1.0000      -0.271809        -7.3963 
  29   0.0000      -0.114823        -3.1245 
  30   0.0000       0.018935         0.5152 
  31   0.0000       0.064063         1.7432 
  32   0.0000       0.082070         2.2332 
  33   0.0000       0.102146         2.7795 
  34   0.0000       0.113274         3.0823 
  35   0.0000       0.144904         3.9430 
  36   0.0000       0.146019         3.9734 
  37   0.0000       0.260389         7.0855 
  38   0.0000       0.313732         8.5371 
  39   0.0000       0.340910         9.2766 
*Only the first 10 virtual orbitals were printed.

                    ********************************
                    * MULLIKEN POPULATION ANALYSIS *
                    ********************************

--------------------------------------------
MULLIKEN ATOMIC CHARGES AND SPIN POPULATIONS
--------------------------------------------
   0 C :   -0.046331   -0.258340
   1 C :   -0.004728    0.649985
   2 H :    0.018511    0.009149
   3 H :    0.040590   -0.030333
   4 H :    0.034228   -0.028198
   5 C :   -0.047571    0.622305
   6 H :    0.047466   -0.025088
   7 H :    0.050510   -0.026483
   8 H :    0.104332   -0.012735
   9 Br:   -0.197007    0.099737
Sum of atomic charges         :    0.0000000
Sum of atomic spin populations:    1.0000000

-----------------------------------------------------
MULLIKEN REDUCED ORBITAL CHARGES AND SPIN POPULATIONS
-----------------------------------------------------
CHARGE
  0 C s       :     3.141089  s :     3.141089
      pz      :     0.953523  p :     2.868089
      px      :     0.954838
      py      :     0.959728
      dz2     :     0.009098  d :     0.037153
      dxz     :     0.012606
      dyz     :     0.006220
      dx2y2   :     0.004865
      dxy     :     0.004365

  1 C s       :     3.133771  s :     3.133771
      pz      :     0.958959  p :     2.846197
      px      :     0.937038
      py      :     0.950200
      dz2     :     0.006524  d :     0.024760
      dxz     :     0.009842
      dyz     :     0.004327
      dx2y2   :     0.002948
      dxy     :     0.001119

  2 H s       :     0.959072  s :     0.959072
      pz      :     0.006074  p :     0.022417
      px      :     0.011837
      py      :     0.004506

  3 H s       :     0.935941  s :     0.935941
      pz      :     0.006426  p :     0.023469
      px      :     0.012328
      py      :     0.004715

  4 H s       :     0.942469  s :     0.942469
      pz      :     0.006820  p :     0.023303
      px      :     0.011334
      py      :     0.005149

  5 C s       :     3.113476  s :     3.113476
      pz      :     0.960092  p :     2.909070
      px      :     0.967041
      py      :     0.981937
      dz2     :     0.005847  d :     0.025025
      dxz     :     0.007560
      dyz     :     0.002940
      dx2y2   :     0.005199
      dxy     :     0.003479

  6 H s       :     0.929128  s :     0.929128
      pz      :     0.006169  p :     0.023405
      px      :     0.012435
      py      :     0.004802

  7 H s       :     0.925722  s :     0.925722
      pz      :     0.012965  p :     0.023768
      px      :     0.003720
      py      :     0.007083

  8 H s       :     0.854920  s :     0.854920
      pz      :     0.011287  p :     0.040748
      px      :     0.007562
      py      :     0.021898

  9 Brs       :     7.941378  s :     7.941378
      pz      :     5.834019  p :    17.237108
      px      :     5.957896
      py      :     5.445193
      dz2     :     2.000997  d :    10.018522
      dxz     :     2.000618
      dyz     :     2.008287
      dx2y2   :     2.006541
      dxy     :     2.002079


SPIN
  0 C s       :    -0.035428  s :    -0.035428
      pz      :    -0.049300  p :    -0.231411
      px      :    -0.022815
      py      :    -0.159296
      dz2     :     0.001861  d :     0.008500
      dxz     :     0.000157
      dyz     :     0.004007
      dx2y2   :     0.000513
      dxy     :     0.001962

  1 C s       :     0.064887  s :     0.064887
      pz      :     0.063152  p :     0.587293
      px      :     0.032761
      py      :     0.491379
      dz2     :    -0.000439  d :    -0.002195
      dxz     :    -0.000029
      dyz     :    -0.000803
      dx2y2   :    -0.000890
      dxy     :    -0.000034

  2 H s       :     0.010065  s :     0.010065
      pz      :    -0.000120  p :    -0.000916
      px      :    -0.000055
      py      :    -0.000742

  3 H s       :    -0.033445  s :    -0.033445
      pz      :     0.000228  p :     0.003112
      px      :     0.000185
      py      :     0.002699

  4 H s       :    -0.030954  s :    -0.030954
      pz      :     0.000188  p :     0.002757
      px      :     0.000151
      py      :     0.002418

  5 C s       :     0.055667  s :     0.055667
      pz      :     0.090084  p :     0.568732
      px      :     0.023180
      py      :     0.455468
      dz2     :    -0.000142  d :    -0.002093
      dxz     :    -0.000138
      dyz     :    -0.000620
      dx2y2   :    -0.000691
      dxy     :    -0.000502

  6 H s       :    -0.027667  s :    -0.027667
      pz      :     0.000268  p :     0.002580
      px      :     0.000102
      py      :     0.002209

  7 H s       :    -0.029454  s :    -0.029454
      pz      :     0.000728  p :     0.002971
      px      :    -0.000075
      py      :     0.002318

  8 H s       :    -0.018830  s :    -0.018830
      pz      :     0.001188  p :     0.006094
      px      :     0.000057
      py      :     0.004849

  9 Brs       :     0.000141  s :     0.000141
      pz      :     0.018779  p :     0.100094
      px      :     0.001765
      py      :     0.079550
      dz2     :    -0.000003  d :    -0.000498
      dxz     :    -0.000012
      dyz     :    -0.000256
      dx2y2   :    -0.000204
      dxy     :    -0.000024



                     *******************************
                     * LOEWDIN POPULATION ANALYSIS *
                     *******************************

-------------------------------------------
LOEWDIN ATOMIC CHARGES AND SPIN POPULATIONS
-------------------------------------------
   0 C :   -0.039513   -0.146372
   1 C :   -0.000926    0.539954
   2 H :    0.035798    0.000586
   3 H :    0.028980   -0.001817
   4 H :    0.027402   -0.002056
   5 C :   -0.041604    0.504664
   6 H :    0.030341   -0.000439
   7 H :    0.032719   -0.000039
   8 H :    0.023972    0.015894
   9 Br:   -0.097169    0.089625

----------------------------------------------------
LOEWDIN REDUCED ORBITAL CHARGES AND SPIN POPULATIONS
----------------------------------------------------
CHARGE
  0 C s       :     2.872845  s :     2.872845
      pz      :     1.061656  p :     3.070251
      px      :     1.060177
      py      :     0.948418
      dz2     :     0.024972  d :     0.096417
      dxz     :     0.034201
      dyz     :     0.014630
      dx2y2   :     0.012537
      dxy     :     0.010077

  1 C s       :     2.902151  s :     2.902151
      pz      :     1.045977  p :     3.035410
      px      :     1.048920
      py      :     0.940513
      dz2     :     0.017482  d :     0.063364
      dxz     :     0.026158
      dyz     :     0.009626
      dx2y2   :     0.007222
      dxy     :     0.002876

  2 H s       :     0.899531  s :     0.899531
      pz      :     0.017462  p :     0.064672
      px      :     0.033574
      py      :     0.013636

  3 H s       :     0.901609  s :     0.901609
      pz      :     0.017832  p :     0.069411
      px      :     0.036312
      py      :     0.015267

  4 H s       :     0.903746  s :     0.903746
      pz      :     0.018868  p :     0.068852
      px      :     0.033494
      py      :     0.016491

  5 C s       :     2.906523  s :     2.906523
      pz      :     1.039985  p :     3.071543
      px      :     1.060057
      py      :     0.971501
      dz2     :     0.014468  d :     0.063539
      dxz     :     0.020941
      dyz     :     0.007228
      dx2y2   :     0.013643
      dxy     :     0.007259

  6 H s       :     0.898897  s :     0.898897
      pz      :     0.018264  p :     0.070762
      px      :     0.036200
      py      :     0.016298

  7 H s       :     0.895722  s :     0.895722
      pz      :     0.038635  p :     0.071559
      px      :     0.010484
      py      :     0.022441

  8 H s       :     0.860902  s :     0.860902
      pz      :     0.030464  p :     0.115126
      px      :     0.018460
      py      :     0.066202

  9 Brs       :     7.831864  s :     7.831864
      pz      :     5.830760  p :    17.235360
      px      :     5.952892
      py      :     5.451707
      dz2     :     2.001199  d :    10.029945
      dxz     :     2.000852
      dyz     :     2.014028
      dx2y2   :     2.010953
      dxy     :     2.002913


SPIN
  0 C s       :    -0.009149  s :    -0.009149
      pz      :    -0.022582  p :    -0.158052
      px      :    -0.008430
      py      :    -0.127040
      dz2     :     0.004723  d :     0.020830
      dxz     :     0.000983
      dyz     :     0.009081
      dx2y2   :     0.001121
      dxy     :     0.004922

  1 C s       :     0.017798  s :     0.017798
      pz      :     0.053955  p :     0.526704
      px      :     0.015796
      py      :     0.456954
      dz2     :    -0.001101  d :    -0.004548
      dxz     :    -0.000667
      dyz     :    -0.001646
      dx2y2   :    -0.001053
      dxy     :    -0.000081

  2 H s       :     0.004615  s :     0.004615
      pz      :    -0.000596  p :    -0.004029
      px      :    -0.000537
      py      :    -0.002896

  3 H s       :    -0.014978  s :    -0.014978
      pz      :     0.001506  p :     0.013160
      px      :     0.001646
      py      :     0.010008

  4 H s       :    -0.014361  s :    -0.014361
      pz      :     0.001503  p :     0.012305
      px      :     0.001425
      py      :     0.009377

  5 C s       :     0.017471  s :     0.017471
      pz      :     0.072114  p :     0.491514
      px      :     0.011907
      py      :     0.407492
      dz2     :    -0.000528  d :    -0.004321
      dxz     :    -0.000741
      dyz     :    -0.000890
      dx2y2   :    -0.000901
      dxy     :    -0.001262

  6 H s       :    -0.013336  s :    -0.013336
      pz      :     0.001924  p :     0.012897
      px      :     0.001504
      py      :     0.009470

  7 H s       :    -0.013862  s :    -0.013862
      pz      :     0.003240  p :     0.013822
      px      :     0.000221
      py      :     0.010362

  8 H s       :    -0.007151  s :    -0.007151
      pz      :     0.004752  p :     0.023045
      px      :     0.000381
      py      :     0.017912

  9 Brs       :     0.000372  s :     0.000372
      pz      :     0.016647  p :     0.089225
      px      :     0.001468
      py      :     0.071110
      dz2     :     0.000019  d :     0.000028
      dxz     :    -0.000020
      dyz     :     0.000003
      dx2y2   :     0.000048
      dxy     :    -0.000023



                      *****************************
                      * MAYER POPULATION ANALYSIS *
                      *****************************

  NA   - Mulliken gross atomic population
  ZA   - Total nuclear charge
  QA   - Mulliken gross atomic charge
  VA   - Mayer's total valence
  BVA  - Mayer's bonded valence
  FA   - Mayer's free valence

  ATOM       NA         ZA         QA         VA         BVA        FA
  0 C      6.0463     6.0000    -0.0463     4.1194     4.0875     0.0320
  1 C      6.0047     6.0000    -0.0047     3.9208     3.6210     0.2998
  2 H      0.9815     1.0000     0.0185     0.9792     0.9791     0.0001
  3 H      0.9594     1.0000     0.0406     0.9765     0.9754     0.0011
  4 H      0.9658     1.0000     0.0342     0.9852     0.9842     0.0010
  5 C      6.0476     6.0000    -0.0476     3.9054     3.6250     0.2804
  6 H      0.9525     1.0000     0.0475     0.9881     0.9873     0.0008
  7 H      0.9495     1.0000     0.0505     0.9800     0.9791     0.0009
  8 H      0.8957     1.0000     0.1043     1.0442     1.0436     0.0006
  9 Br    35.1970    35.0000    -0.1970     0.9581     0.9479     0.0102

  Mayer bond orders larger than 0.100000
B(  0-C ,  1-C ) :   1.5759 B(  0-C ,  2-H ) :   0.9628 B(  0-C ,  5-C ) :   1.4425 
B(  1-C ,  3-H ) :   0.9559 B(  1-C ,  4-H ) :   0.9588 B(  1-C ,  5-C ) :   0.1031 
B(  5-C ,  6-H ) :   0.9536 B(  5-C ,  7-H ) :   0.9447 B(  5-C ,  8-H ) :   0.1603 
B(  8-H ,  9-Br) :   0.8508 

-------
TIMINGS
-------

Total SCF time: 0 days 0 hours 0 min 2 sec 

Total time                  ....       2.817 sec
Sum of individual times     ....       2.630 sec  ( 93.4%)

SCF preparation             ....       0.318 sec  ( 11.3%)
Fock matrix formation       ....       2.150 sec  ( 76.3%)
  Startup                   ....       0.004 sec  (  0.2% of F)
  Split-RI-J                ....       0.131 sec  (  6.1% of F)
  Chain of spheres X        ....       1.638 sec  ( 76.2% of F)
  XC integration            ....       0.470 sec  ( 21.9% of F)
    XC Preparation          ....       0.000 sec  (  0.0% of XC)
    Basis function eval.    ....       0.106 sec  ( 22.6% of XC)
    Density eval.           ....       0.094 sec  ( 19.9% of XC)
    XC-Functional eval.     ....       0.036 sec  (  7.6% of XC)
    XC-Potential eval.      ....       0.117 sec  ( 24.8% of XC)
Diagonalization             ....       0.000 sec  (  0.0%)
Density matrix formation    ....       0.025 sec  (  0.9%)
Total Energy calculation    ....       0.012 sec  (  0.4%)
Population analysis         ....       0.009 sec  (  0.3%)
Orbital Transformation      ....       0.014 sec  (  0.5%)
Orbital Orthonormalization  ....       0.000 sec  (  0.0%)
DIIS solution               ....       0.062 sec  (  2.2%)
SOSCF solution              ....       0.040 sec  (  1.4%)
Finished LeanSCF after   2.8 sec

Maximum memory used throughout the entire LEANSCF-calculation: 9.1 MB

-------------------------   --------------------
FINAL SINGLE POINT ENERGY     -2691.424092821707
-------------------------   --------------------



           ************************************************************
           *        Program running with 8 parallel MPI-processes     *
           *              working on a common directory               *
           ************************************************************

------------------------------------------------------------------------------
                              ORCA PROPERTY CALCULATIONS
------------------------------------------------------------------------------

GBWName                                 ... radical_021.gbw
Number of atoms                         ...     10
Number of basis functions               ...    104
Max core memory                         ...   1200 MB

Electric properties:
Dipole moment                           ... YES
Quadrupole moment                       ...  NO
Static polarizability (Dipole/Dipole)   ...  NO
Static polarizability (Dipole/Quad.)    ...  NO
Static polarizability (Quad./Quad.)     ...  NO
Static polarizability (Velocity)        ...  NO
Static hyperpolarizability              ...  NO

Atomic electric properties:
Dipole moment                           ...  NO
Quadrupole moment                       ...  NO
Static polarizability                   ...  NO

Choice of electric origin               ... Center of mass
Position of electric origin             ...    -1.057440    -2.566281    -2.276668

General magnetic properties:
Magnetizability                         ...  NO

EPR properties:
g-Tensor (aka g-matrix)                 ...  NO
Zero-Field splitting spin-orbit         ...  NO
Zero-field splitting spin-spin          ...  NO
Hyperfine couplings                     ...  NO (   0 nuclei)
Quadrupole couplings                    ...  NO (   0 nuclei)
Contact density                         ...  NO (   0 nuclei)

NMR properties:
Chemical shifts                         ...  NO (   0 nuclei)
Spin-rotation constants                 ...  NO (   0 nuclei)
Spin-spin couplings                     ...  NO (   0 nuclei,    0 pairs)

Choice of magnetic origin               ... GIAO
Position of magnetic origin             ...     0.000000     0.000000     0.000000

Properties with geometric perturbations:
SCF Hessian                             ...  NO
IR spectrum                             ...  NO
VCD spectrum                            ...  NO
X-ray spectroscopy properties:
SCF XES/XAS/RIXS spectra                ...  NO

SCF SOC stabilization energy            ...  NO
Diagonal Born-Oppenheimer correction    ...  NO

-------------
DIPOLE MOMENT
-------------

Method             : SCF
Type of density    : Electron Density
Multiplicity       :   2
Irrep              :   0
Energy             : -2691.4240928217072906 Eh
Basis              : AO
                                X                 Y                 Z
Electronic contribution:     -6.836526179     -16.046986332     -14.469731807
Nuclear contribution   :      7.155782018      16.856465353      15.100458896
                        -----------------------------------------
Total Dipole Moment    :      0.319255838       0.809479021       0.630727089
                        -----------------------------------------
Magnitude (a.u.)       :      1.074707977
Magnitude (Debye)      :      2.731690586



--------------------
Rotational spectrum 
--------------------
 
Rotational constants in cm-1:             0.387800             0.041287             0.038895 
Rotational constants in MHz :         11625.953408          1237.758550          1166.028252 

Dipole components along the rotational axes: 
x,y,z [a.u.] :    -1.064310    -0.149107     0.002824 
x,y,z [Debye]:    -2.705262    -0.379000     0.007178 

 

Dipole moment calculation done in   0.0 sec 

Maximum memory used throughout the entire PROP-calculation: 5.2 MB

--------------------------------
SUGGESTED CITATIONS FOR THIS RUN
--------------------------------

Below you find a list of papers that are relevant to this ORCA run
We neither can nor want to force you to cite these papers, but we appreciate if you do
You receive ORCA, which is the product of decades of hard work by many enthusiastic individuals, for free
The only thing we kindly ask in return is that you cite our papers,
We deeply appreciate it, if you show your appreciation for ORCA by not just citing the generic ORCA reference.

Please note that relegating all ORCA citations to the supporting information does *not* help us.
SI sections are not indexed - citations you put there will not count into any citation statistics
But we need these citations in order to attract the funding resources that allow us to do what we are doing

Therefore, if you are a happy ORCA user, please consider citing a few of the papers listed below in the main body of your paper

In addition to the list printed below, the program has created the file radical_021.bibtex that contains the list in bibtex format
You can import this file easily into all common literature databanks and citation aid programs


List of essential papers. We consider these as the minimum necessary citations

  1. Neese, F.
     Software update: the ORCA program system, version 6.0
     WIRES Comput. Molec. Sci. 2025 15(1), e70019
     doi.org/10.1002/wcms.7019

List of papers to cite with high priority. The work reported in these papers was absolutely
necessary for this run to complete.
Our perspective: the developers of density functionals and basis sets usually get cited in chemistry papers
Good! But without the algorithms to do something with them, the functionals or basis sets would not do anything.
Hence, in our opinion, the algorithm design and method developments papers are equally worthy of getting cited

  1. Neese, F.
     An improvement of the resolution of the identity approximation for the formation of the Coulomb matrix
     J. Comp. Chem. 2003 24(14), 1740-1747
     doi.org/10.1002/jcc.10318
  2. Neese, F.; Wennmohs, F.; Hansen, A.; Becker, U.
     Efficient, approximate and parallel Hartree-Fock and hybrid DFT calculations. A 'chain-of-spheres' algorithm for the Hartree-Fock exchange
     Chem. Phys. 2009 356(1-3), 98-109
     doi.org/10.1016/j.chemphys.2008.10.036
  3. Helmich-Paris, B.; de Souza, B.; Neese, F.; Izsák, R.
     An improved chain of spheres for exchange algorithm
     J. Chem. Phys. 2021 155(10), 104109
     doi.org/10.1063/5.0058766
  4. Neese, F.
     The SHARK Integral Generation and Digestion System
     J. Comp. Chem. 2022 44(3), 381
     doi.org/10.1002/jcc.26942

List of suggested additional citations. These are papers that are important in the 'surrounding' of 
of this run, or papers that preceded the highly important papers. If you like your results we are grateful for a citation.

  1. Izsak, R.; Neese, F.
     An overlap fitted chain of spheres exchange method
     J. Chem. Phys. 2011 135 , 144105
     doi.org/10.1063/1.3646921
  2. Izsak, R.; Hansen, A.; Neese, F.
     The resolution of identity and chain of spheres approximations for the LPNO-CCSD singles Fock term
     Molec. Phys. 2012 110 , 2413-2417
     doi.org/10.1080/00268976.2012.687466
  3. Neese, F.
     The ORCA program system
     WIRES Comput. Molec. Sci. 2012 2(1), 73-78
     doi.org/10.1002/wcms.81
  4. Izsak, R.; Neese, F.; Klopper, W.
     Robust fitting techniques in the chain of spheres approximation to the Fock exchange: The role of the complementary space
     J. Chem. Phys. 2013 139 , 
     doi.org/10.1063/1.4819264
  5. Neese, F.
     Software update: the ORCA program system, version 4.0
     WIRES Comput. Molec. Sci. 2018 8(1), 1-6
     doi.org/10.1002/wcms.1327
  6. Neese, F.; Wennmohs, F.; Becker, U.; Riplinger, C.
     The ORCA quantum chemistry program package
     J. Chem. Phys. 2020 152(22), 224108
     doi.org/10.1063/5.0004608
  7. Neese, F.
     Software update: The ORCA program system—Version 5.0
     WIRES Comput. Molec. Sci. 2022 12(1), e1606
     doi.org/10.1002/wcms.1606

List of optional additional citations

  1. Neese, F.
     Approximate second-order SCF convergence for spin unrestricted wavefunctions
     Chem. Phys. Lett. 2000 325(1-3), 93-98
     doi.org/10.1016/s0009-2614(00)00662-x

Timings for individual modules:

Sum of individual times          ...        4.742 sec (=   0.079 min)
Startup calculation              ...        0.814 sec (=   0.014 min)  17.2 %
SCF iterations                   ...        3.435 sec (=   0.057 min)  72.4 %
Property calculations            ...        0.493 sec (=   0.008 min)  10.4 %
                             ****ORCA TERMINATED NORMALLY****
TOTAL RUN TIME: 0 days 0 hours 0 minutes 5 seconds 182 msec
