[Molden Format]
[Title]
 Molden file created by orca_2mkl for BaseName=radical_009

[Atoms] AU
C    1   6          1.2077447592         0.8174652899         0.3544162467 
C    2   6          1.3153211988         0.1088047616         2.7963619309 
H    3   1          2.9670004214         1.2865104342        -0.6349744372 
H    4   1          3.1101169404         0.0193980388         3.8152039966 
H    5   1         -0.3898939651        -0.4292834167         3.8395984712 
C    6   6         -1.1184835452         0.8400021638        -1.1657985082 
H    7   1         -2.8867683189         0.9082552923        -0.0787033140 
H    8   1         -1.1282439807         2.1558165811        -2.7724909104 
H    9   1         -1.2286205638        -1.1319176083        -2.1894990597 
Br  10  35         -1.8309254155        -4.2394985362        -3.8021138636 
[GTO]
  1 0
s   5 1.0 
     1238.4016938000         0.8208956682
      186.2900499200         1.4766449896
       42.2511763460         2.1526124058
       11.6765579320         2.1081722461
        3.5930506482         0.8290999933
s   1 1.0 
        0.4024514736         0.3601183351
s   1 1.0 
        0.1309018267         0.1551027052
p   3 1.0 
        9.4680970621         1.3467645142
        2.0103545142         1.0678070931
        0.5477100471         0.5108735714
p   1 1.0 
        0.1526861379         0.1360471976
d   1 1.0 
        0.8000000000         1.9292013661

  2 0
s   5 1.0 
     1238.4016938000         0.8208956682
      186.2900499200         1.4766449896
       42.2511763460         2.1526124058
       11.6765579320         2.1081722461
        3.5930506482         0.8290999933
s   1 1.0 
        0.4024514736         0.3601183351
s   1 1.0 
        0.1309018267         0.1551027052
p   3 1.0 
        9.4680970621         1.3467645142
        2.0103545142         1.0678070931
        0.5477100471         0.5108735714
p   1 1.0 
        0.1526861379         0.1360471976
d   1 1.0 
        0.8000000000         1.9292013661

  3 0
s   3 1.0 
       13.0107010000         0.1634903809
        1.9622572000         0.2773515510
        0.4445379600         0.3157501452
s   1 1.0 
        0.1219496200         0.1470772262
p   1 1.0 
        0.8000000000         1.0784563492

  4 0
s   3 1.0 
       13.0107010000         0.1634903809
        1.9622572000         0.2773515510
        0.4445379600         0.3157501452
s   1 1.0 
        0.1219496200         0.1470772262
p   1 1.0 
        0.8000000000         1.0784563492

  5 0
s   3 1.0 
       13.0107010000         0.1634903809
        1.9622572000         0.2773515510
        0.4445379600         0.3157501452
s   1 1.0 
        0.1219496200         0.1470772262
p   1 1.0 
        0.8000000000         1.0784563492

  6 0
s   5 1.0 
     1238.4016938000         0.8208956682
      186.2900499200         1.4766449896
       42.2511763460         2.1526124058
       11.6765579320         2.1081722461
        3.5930506482         0.8290999933
s   1 1.0 
        0.4024514736         0.3601183351
s   1 1.0 
        0.1309018267         0.1551027052
p   3 1.0 
        9.4680970621         1.3467645142
        2.0103545142         1.0678070931
        0.5477100471         0.5108735714
p   1 1.0 
        0.1526861379         0.1360471976
d   1 1.0 
        0.8000000000         1.9292013661

  7 0
s   3 1.0 
       13.0107010000         0.1634903809
        1.9622572000         0.2773515510
        0.4445379600         0.3157501452
s   1 1.0 
        0.1219496200         0.1470772262
p   1 1.0 
        0.8000000000         1.0784563492

  8 0
s   3 1.0 
       13.0107010000         0.1634903809
        1.9622572000         0.2773515510
        0.4445379600         0.3157501452
s   1 1.0 
        0.1219496200         0.1470772262
p   1 1.0 
        0.8000000000         1.0784563492

  9 0
s   3 1.0 
       13.0107010000         0.1634903809
        1.9622572000         0.2773515510
        0.4445379600         0.3157501452
s   1 1.0 
        0.1219496200         0.1470772262
p   1 1.0 
        0.8000000000         1.0784563492

 10 0
s   6 1.0 
   113286.3877600000         7.5076141183
    17009.6263030000        13.8835270484
     3870.1842567000        22.7307285566
     1093.0357227000        30.8227297499
      356.3972179700        27.2481937511
      123.1253964300         9.6953381145
s   3 1.0 
      236.7408400700        -4.7631125758
       28.4686610700         5.6113863182
       11.8834437220         1.9900291396
s   3 1.0 
       21.2696333120        -1.5429794477
        3.6129226841         1.3310800628
        1.6626648969         0.4300130345
s   1 1.0 
        0.3482379323         0.3230852630
s   1 1.0 
        0.1301903139         0.1544699827
p   5 1.0 
     1560.2801881000       115.0180051576
      368.4785920500       143.9035925417
      117.2297884900       137.5255986684
       42.6489092480        78.9578527439
       16.0872250960        15.8580577654
p   3 1.0 
        8.6352810058         6.8437546680
        3.5613665502         3.7974971038
        1.5292626609         0.5585414278
p   1 1.0 
        0.5306429485         0.6455696201
p   1 1.0 
        0.1570275896         0.1408996918
d   4 1.0 
      104.8551864200       261.4493931636
       30.2811436880       176.6993802449
       10.6513942670        76.9545600188
        3.8699456233        17.5937671387
d   1 1.0 
        1.3240876762         4.6593398042
d   1 1.0 
        0.3890000000         0.5462379705

[5D]
[7F]
[9G]
[MO]
 Sym=     1a
 Ene= -4.82762017559042E+02
 Spin= Alpha
 Occup= 1.000000
  1       0.000005892033
  2      -0.000083258292
  3       0.000220377562
  4       0.000008964030
  5       0.000015532456
  6       0.000005911204
  7      -0.000009091351
  8      -0.000070476595
  9       0.000133642068
 10      -0.000001701180
 11       0.000002409771
 12       0.000001800702
 13      -0.000001558822
 14      -0.000005095492
 15       0.000001532912
 16      -0.000010076033
 17      -0.000207689332
 18       0.000000344328
 19       0.000003505223
 20       0.000003040749
 21       0.000017894403
 22      -0.000028220665
 23       0.000100051974
 24       0.000000041050
 25      -0.000002221443
 26      -0.000001500076
 27      -0.000004732156
 28      -0.000000636982
 29      -0.000004868680
 30       0.000003908729
 31      -0.000001852776
 32       0.000002466114
 33       0.000001202468
 34       0.000001734660
 35      -0.000007895445
 36       0.000000801799
 37       0.000002225024
 38      -0.000003266699
 39      -0.000000880178
 40       0.000008344044
 41      -0.000000532782
 42       0.000000200077
 43      -0.000001528624
 44       0.000007014972
 45      -0.000149580825
 46       0.001110129348
 47      -0.000009602001
 48       0.000006319034
 49       0.000002495586
 50       0.000045908021
 51      -0.000402920393
 52      -0.000261337436
 53      -0.000005314133
 54       0.000005410285
 55       0.000017393315
 56      -0.000017492716
 57       0.000004659486
 58      -0.000009189808
 59       0.000006573518
 60       0.000005210958
 61       0.000001576375
 62      -0.000005156001
 63      -0.000041514295
 64      -0.000032136589
 65      -0.000006865340
 66      -0.000001699714
 67       0.000005897666
 68      -0.000000892132
 69      -0.001603738317
 70       0.000006346996
 71      -0.000009431159
 72      -0.000003530127
 73      -0.994982607736
 74      -0.015687442392
 75       0.003909893368
 76      -0.002357004405
 77       0.001784330680
 78      -0.000001786586
 79      -0.000007794097
 80      -0.000003998797
 81       0.000006054867
 82       0.000025977138
 83       0.000013373236
 84      -0.000029418948
 85      -0.000128293603
 86      -0.000066220325
 87       0.000104049931
 88       0.000486645774
 89       0.000252202222
 90      -0.000003255406
 91       0.000002538508
 92       0.000011611268
 93      -0.000010628460
 94       0.000005013398
 95       0.000012622780
 96      -0.000009785237
 97      -0.000045010757
 98       0.000041237903
 99      -0.000019301774
100      -0.000030953768
101       0.000023761087
102       0.000110649793
103      -0.000101499149
104       0.000046588295
 Sym=     1a
 Ene= -6.24450522044102E+01
 Spin= Alpha
 Occup= 1.000000
  1       0.000013968419
  2      -0.000199905892
  3       0.000518363646
  4       0.000021368777
  5       0.000037039307
  6       0.000014165692
  7      -0.000014859076
  8      -0.000169111439
  9       0.000324863975
 10      -0.000004284807
 11       0.000005632002
 12       0.000004441395
 13      -0.000003930745
 14      -0.000012218855
 15       0.000003674495
 16      -0.000024769266
 17      -0.000497402240
 18       0.000001028904
 19       0.000008397493
 20       0.000007360388
 21       0.000039632298
 22      -0.000068537147
 23       0.000240223804
 24       0.000000086670
 25      -0.000005236606
 26      -0.000003496466
 27      -0.000011179717
 28      -0.000001500712
 29      -0.000012303530
 30       0.000009702110
 31      -0.000004558198
 32       0.000005675688
 33       0.000002539424
 34       0.000004488165
 35      -0.000018291581
 36       0.000001939042
 37       0.000005284095
 38      -0.000007666914
 39      -0.000002822997
 40       0.000018581912
 41      -0.000001261334
 42       0.000000430941
 43      -0.000003526363
 44       0.000015680153
 45      -0.000355304881
 46       0.002724090441
 47      -0.000023544700
 48       0.000007966348
 49       0.000002544401
 50       0.000117187439
 51      -0.000984883161
 52      -0.000634495771
 53      -0.000013848654
 54       0.000013208452
 55       0.000046209610
 56      -0.000046114130
 57       0.000010933793
 58      -0.000020926339
 59       0.000014466417
 60       0.000012399836
 61       0.000003748254
 62      -0.000012795398
 63      -0.000099605062
 64      -0.000079412951
 65      -0.000017033213
 66      -0.000004326821
 67       0.000014184670
 68      -0.000002029496
 69      -0.003936810546
 70       0.000012388459
 71      -0.000040785542
 72      -0.000017824867
 73      -0.347189209781
 74       1.046962823235
 75       0.018557756225
 76      -0.006368645647
 77       0.004529651918
 78       0.000015396140
 79       0.000109586515
 80       0.000052252704
 81       0.000016572750
 82       0.000074415837
 83       0.000038011474
 84      -0.000072531194
 85      -0.000318010425
 86      -0.000164076510
 87       0.000254926479
 88       0.001193715785
 89       0.000618612995
 90      -0.000021531509
 91       0.000011988449
 92       0.000070251461
 93      -0.000067893619
 94       0.000024166367
 95       0.000034636163
 96      -0.000025148416
 97      -0.000120782065
 98       0.000111985649
 99      -0.000049742422
100      -0.000075898285
101       0.000057728167
102       0.000269929982
103      -0.000248082827
104       0.000113175548
 Sym=     1a
 Ene= -5.62784509516247E+01
 Spin= Alpha
 Occup= 1.000000
  1      -0.000015378843
  2       0.000237300561
  3      -0.000648747617
  4      -0.000022926862
  5      -0.000042547637
  6      -0.000015161219
  7       0.000075427327
  8       0.000219353125
  9      -0.000284765563
 10       0.000003643181
 11      -0.000009013481
 12      -0.000009653039
 13       0.000003755787
 14       0.000007270602
 15      -0.000005033789
 16       0.000039527628
 17       0.000495680905
 18      -0.000003313903
 19      -0.000011876564
 20      -0.000011418152
 21      -0.000038254597
 22       0.000063134494
 23      -0.000230233612
 24      -0.000001558501
 25       0.000007904984
 26       0.000006288368
 27       0.000011998527
 28      -0.000000669262
 29       0.000019595754
 30      -0.000019103402
 31       0.000003769623
 32      -0.000007801525
 33      -0.000008151468
 34      -0.000008193006
 35       0.000015327541
 36       0.000000239765
 37      -0.000006051659
 38       0.000008180788
 39       0.000009145618
 40      -0.000024762777
 41      -0.000000705336
 42       0.000000969870
 43       0.000001116306
 44      -0.000004279311
 45       0.000270968119
 46      -0.002884043714
 47       0.000029137919
 48       0.000057747316
 49       0.000028772656
 50      -0.000126655482
 51       0.001095918334
 52       0.000735826802
 53       0.000023928880
 54      -0.000017702986
 55      -0.000083628332
 56       0.000083713276
 57      -0.000010724053
 58      -0.000008121808
 59      -0.000080011400
 60      -0.000017835268
 61       0.000011489135
 62       0.000025385574
 63       0.000089574588
 64       0.000037105773
 65       0.000022596637
 66       0.000023068243
 67      -0.000011518346
 68       0.000120026074
 69       0.004775596152
 70      -0.000007487295
 71       0.000113690429
 72       0.000053292753
 73      -0.000061925606
 74       0.000179541177
 75      -0.000167017294
 76       0.001081329686
 77      -0.002423292779
 78      -0.125744869420
 79      -0.882024365912
 80      -0.433309448868
 81      -0.003028840989
 82      -0.021195853495
 83      -0.010414751804
 84       0.000822845616
 85       0.005539760046
 86       0.002732001386
 87      -0.000591168684
 88      -0.003422379772
 89      -0.001722656230
 90       0.000012919592
 91      -0.000008891676
 92      -0.000044643076
 93       0.000041804112
 94      -0.000017712636
 95      -0.000040831574
 96       0.000030190323
 97       0.000145077162
 98      -0.000133919911
 99       0.000059818294
100       0.000098580409
101      -0.000073446555
102      -0.000352865778
103       0.000325023519
104      -0.000144428841
 Sym=     1a
 Ene= -5.62743484574707E+01
 Spin= Alpha
 Occup= 1.000000
  1       0.000006133235
  2      -0.000059086861
  3       0.000232603385
  4       0.000013132223
  5       0.000024690712
  6       0.000001114120
  7      -0.000023994876
  8      -0.000223230130
  9       0.000331904688
 10       0.000006008667
 11      -0.000001794684
 12      -0.000003267730
 13       0.000003800611
 14       0.000010951856
 15       0.000001647465
 16      -0.000012958161
 17      -0.000437987554
 18       0.000006748643
 19      -0.000004132958
 20       0.000006940702
 21      -0.000024711405
 22      -0.000004187788
 23       0.000180636760
 24      -0.000003511273
 25      -0.000003798672
 26      -0.000004568661
 27      -0.000005129490
 28       0.000001733744
 29       0.000020613535
 30       0.000074290037
 31      -0.000009142035
 32       0.000018656675
 33      -0.000001521770
 34       0.000014998110
 35       0.000030361706
 36       0.000000599953
 37      -0.000002703151
 38      -0.000009535032
 39      -0.000002599295
 40       0.000019757752
 41      -0.000003004054
 42      -0.000003897365
 43      -0.000008648956
 44      -0.000003432079
 45       0.000077779170
 46      -0.000430155716
 47      -0.000041933416
 48      -0.000024908591
 49      -0.000001619452
 50       0.000324982581
 51       0.000371873669
 52       0.000003326102
 53       0.000002979100
 54       0.000023760946
 55      -0.000021636985
 56       0.000003311401
 57       0.000014148845
 58       0.000143959483
 59       0.000030566439
 60      -0.000010154770
 61      -0.000017919841
 62      -0.000012835837
 63      -0.000034237660
 64      -0.000053069477
 65      -0.000033633838
 66      -0.000004818112
 67      -0.000011348640
 68       0.000028761698
 69       0.000658975433
 70       0.000046720733
 71       0.000006433703
 72      -0.000004839190
 73      -0.000001375775
 74       0.000003487734
 75      -0.000012210365
 76       0.000093085185
 77      -0.000257344384
 78      -0.958340678902
 79       0.013286701992
 80       0.251069754740
 81      -0.022890008584
 82       0.000311829801
 83       0.005993117224
 84       0.005552742940
 85      -0.000047360264
 86      -0.001436026862
 87      -0.002090333467
 88      -0.000122897506
 89       0.000458738675
 90       0.000003658349
 91      -0.000006326883
 92       0.000000530763
 93       0.000000447870
 94      -0.000013703035
 95      -0.000006744215
 96       0.000009936440
 97       0.000007098617
 98      -0.000007601345
 99       0.000020060506
100       0.000014493519
101      -0.000018707633
102      -0.000024191130
103       0.000024030525
104      -0.000036842692
 Sym=     1a
 Ene= -5.62743375636141E+01
 Spin= Alpha
 Occup= 1.000000
  1      -0.000007390975
  2       0.000063764536
  3       0.000052641067
  4      -0.000011647492
  5      -0.000020625693
  6      -0.000027254465
  7      -0.000093616425
  8       0.000007749728
  9       0.000217789109
 10      -0.000006895608
 11       0.000001329746
 12       0.000002618089
 13       0.000000648183
 14      -0.000002862571
 15       0.000001107662
 16      -0.000026858240
 17      -0.000141271620
 18       0.000008679808
 19      -0.000008864163
 20       0.000006172450
 21      -0.000070800767
 22      -0.000028615998
 23       0.000011049110
 24       0.000004584741
 25      -0.000002874754
 26       0.000003260030
 27       0.000003381736
 28       0.000002086386
 29       0.000036286749
 30       0.000081695688
 31      -0.000005408141
 32      -0.000010943456
 33      -0.000009075103
 34       0.000017617113
 35       0.000055639582
 36      -0.000003561392
 37       0.000000691046
 38      -0.000003285396
 39      -0.000009339693
 40      -0.000013675033
 41      -0.000001143016
 42      -0.000001094501
 43       0.000001624351
 44      -0.000002312340
 45       0.000008459335
 46       0.000155279693
 47       0.000013698434
 48      -0.000012481181
 49       0.000047114014
 50       0.000015118385
 51       0.000024835351
 52      -0.000395933721
 53      -0.000002917279
 54       0.000000181742
 55      -0.000021873653
 56      -0.000029682523
 57      -0.000002926099
 58       0.000061409584
 59       0.000051297105
 60       0.000023019851
 61      -0.000010637447
 62       0.000029103879
 63      -0.000136973770
 64      -0.000062318599
 65       0.000006091343
 66       0.000016033992
 67       0.000003126498
 68      -0.000022322265
 69      -0.000245033238
 70      -0.000013100232
 71       0.000017431173
 72      -0.000045210336
 73       0.000000131207
 74      -0.000000075155
 75       0.000005822183
 76      -0.000039990606
 77       0.000101088841
 78       0.217711164737
 79      -0.451013793678
 80       0.854879343257
 81       0.005200548005
 82      -0.010768524490
 83       0.020417931945
 84      -0.001263529797
 85       0.002593827123
 86      -0.004950453490
 87       0.000480451680
 88      -0.000904636571
 89       0.001860585833
 90       0.000008793535
 91       0.000003380656
 92       0.000009185236
 93       0.000005136723
 94       0.000002352357
 95      -0.000009332375
 96      -0.000004876587
 97      -0.000013588626
 98      -0.000003060971
 99      -0.000003990184
100       0.000012991826
101       0.000008578808
102       0.000025760284
103       0.000000000736
104       0.000008062452
 Sym=     1a
 Ene= -1.02203961092051E+01
 Spin= Alpha
 Occup= 1.000000
  1      -0.045219481574
  2      -0.001082493896
  3      -0.003659705927
  4      -0.001313765017
  5       0.000372057933
  6      -0.000962008250
  7      -0.000517103480
  8      -0.001619971913
  9       0.005094757788
 10      -0.000023140441
 11       0.001308424171
 12      -0.000112666985
 13       0.001026717443
 14      -0.000116970935
 15      -0.004515294407
 16       0.000227173220
 17      -0.005793711201
 18      -0.000263674982
 19       0.000021244990
 20      -0.000025206434
 21       0.004641627237
 22      -0.000267861601
 23       0.003110989434
 24      -0.000129941323
 25       0.000033388130
 26       0.000099870572
 27      -0.000229948287
 28      -0.000126427228
 29       0.000621631668
 30       0.001100514772
 31       0.000213254731
 32       0.000060529419
 33       0.000197389452
 34      -0.000744625547
 35      -0.001870364819
 36       0.000051104716
 37       0.000001557044
 38       0.000013690546
 39       0.000891262520
 40       0.001781022926
 41       0.000012282276
 42       0.000070468253
 43      -0.000141989871
 44      -0.986659515289
 45      -0.053691572173
 46       0.055529429536
 47       0.000695161885
 48       0.000815035918
 49       0.000853231706
 50       0.001991890492
 51      -0.006872771913
 52      -0.003114728549
 53      -0.000278839193
 54       0.000481979888
 55       0.000538566551
 56      -0.000134264260
 57       0.000093823415
 58       0.002804711757
 59      -0.007426771878
 60       0.002251762750
 61       0.000103008771
 62      -0.001618843447
 63       0.002704389029
 64      -0.007996808369
 65      -0.000246771494
 66      -0.001687150278
 67       0.002253117492
 68       0.002112052809
 69      -0.024838603656
 70      -0.000019696303
 71       0.002362878765
 72       0.001023723031
 73       0.000010122737
 74      -0.000017559124
 75       0.000178108121
 76      -0.002080047989
 77       0.007662944142
 78      -0.000004189567
 79      -0.000010413794
 80      -0.000000492478
 81       0.000015482726
 82       0.000039938218
 83       0.000003968482
 84      -0.000131582508
 85      -0.000428882491
 86      -0.000149302643
 87       0.000962863426
 88       0.004230477427
 89       0.002057151105
 90      -0.000019475219
 91       0.000015114018
 92       0.000049701711
 93      -0.000048045337
 94       0.000032183748
 95       0.000091694604
 96      -0.000070974632
 97      -0.000238351781
 98       0.000229857505
 99      -0.000150569037
100      -0.000275102892
101       0.000208986676
102       0.000775162656
103      -0.000740259702
104       0.000435539750
 Sym=     1a
 Ene= -1.02181831691090E+01
 Spin= Alpha
 Occup= 1.000000
  1      -0.985367402470
  2      -0.047724962022
  3       0.042364632546
  4      -0.000485726635
  5       0.000312081353
  6       0.000363545648
  7      -0.004414124868
  8      -0.002268439223
  9       0.004745847621
 10      -0.001008792876
 11       0.000307502424
 12       0.000955745469
 13      -0.001616706728
 14      -0.000709598901
 15      -0.060804684558
 16       0.001794391655
 17      -0.016869239323
 18      -0.000155915105
 19       0.000812055905
 20      -0.002609647806
 21       0.002697072400
 22      -0.001200754341
 23       0.005194281963
 24       0.001040210406
 25       0.000044768609
 26      -0.000716410237
 27       0.000241291947
 28       0.000067979219
 29       0.004704421954
 30      -0.006237251470
 31      -0.002545197579
 32      -0.000573311691
 33       0.001336468544
 34      -0.000301333677
 35      -0.000162152424
 36       0.000164696300
 37      -0.000081073358
 38       0.000366790088
 39       0.000373709058
 40       0.001429618352
 41      -0.000118093896
 42      -0.000130898066
 43       0.000400942972
 44       0.044767824754
 45       0.002736037984
 46      -0.001123577807
 47       0.001632244484
 48       0.000424041640
 49       0.001297212858
 50      -0.001073957233
 51      -0.004861770524
 52      -0.006070506929
 53      -0.000187366551
 54       0.001219434953
 55       0.000074388728
 56       0.001035507541
 57       0.000113716825
 58      -0.000200601015
 59       0.001471287464
 60      -0.000405490162
 61       0.000201111850
 62      -0.000057429546
 63      -0.000795173009
 64       0.000069821290
 65      -0.000318142597
 66       0.000351413139
 67      -0.000056155587
 68      -0.000267634036
 69      -0.014012308200
 70      -0.000517936357
 71      -0.000277270790
 72      -0.000389553533
 73       0.000009078551
 74      -0.000016679935
 75       0.000156352537
 76      -0.001639448573
 77       0.005258756105
 78       0.000008477615
 79      -0.000024341579
 80      -0.000001770458
 81      -0.000028264715
 82       0.000085043841
 83       0.000007276642
 84       0.000078909021
 85      -0.000525819958
 86      -0.000122869841
 87       0.000353538685
 88       0.003229267760
 89       0.001443940160
 90      -0.000013587446
 91      -0.000000332618
 92       0.000040164696
 93      -0.000043744021
 94       0.000013853380
 95       0.000063879338
 96      -0.000001702332
 97      -0.000192220625
 98       0.000206568850
 99      -0.000067039861
100      -0.000195360112
101       0.000048296552
102       0.000631101298
103      -0.000642720931
104       0.000228860779
 Sym=     1a
 Ene= -1.02130228143318E+01
 Spin= Alpha
 Occup= 1.000000
  1       0.060030158339
  2       0.007146643840
  3      -0.011970248400
  4       0.000403382736
  5      -0.000725341920
  6       0.002647457605
  7       0.000637250020
  8      -0.000442769056
  9       0.002221477965
 10       0.001339982938
 11       0.000002540771
 12      -0.000894994092
 13       0.000411007008
 14       0.000132636772
 15      -0.986253177252
 16      -0.048528691104
 17       0.030380698847
 18       0.000041388523
 19       0.000134444943
 20      -0.000282361225
 21      -0.000941040131
 22      -0.000251401236
 23      -0.000072845812
 24      -0.001092624196
 25      -0.000205168179
 26       0.001325600217
 27      -0.002106231693
 28      -0.000520458401
 29      -0.000276384386
 30       0.001682257628
 31       0.000283289129
 32       0.000274457791
 33      -0.000838560605
 34       0.004650042416
 35      -0.006858955378
 36      -0.002702166687
 37       0.000118193235
 38      -0.001401939645
 39       0.004194419746
 40      -0.007433477262
 41       0.002562715951
 42       0.000771956258
 43      -0.001397211585
 44       0.001858806458
 45      -0.000341607232
 46       0.005158445420
 47      -0.000298982052
 48       0.000008587032
 49      -0.000005865538
 50       0.002788369674
 51       0.000140800647
 52      -0.002317137992
 53      -0.000193037528
 54      -0.000204742856
 55       0.000075659679
 56      -0.000190836370
 57       0.000070320524
 58       0.000459159472
 59       0.001206916338
 60       0.000011864677
 61      -0.000101780977
 62      -0.000049189258
 63      -0.000678063137
 64      -0.001026390568
 65      -0.000072783081
 66       0.000102127208
 67       0.000144204131
 68       0.000063903902
 69      -0.002809554391
 70      -0.000053390630
 71      -0.000166127038
 72       0.000225179306
 73       0.000002731565
 74      -0.000005219050
 75       0.000046344496
 76      -0.000394156665
 77       0.001101367161
 78      -0.000000273140
 79      -0.000006487688
 80      -0.000004771346
 81       0.000001061879
 82       0.000022504697
 83       0.000016581910
 84      -0.000012047974
 85      -0.000124596816
 86      -0.000091790629
 87       0.000108582176
 88       0.000638481598
 89       0.000402956251
 90      -0.000000044572
 91       0.000002368280
 92       0.000012656695
 93      -0.000005924729
 94       0.000002531223
 95       0.000000479382
 96      -0.000011074744
 97      -0.000058767242
 98       0.000028418208
 99      -0.000011990218
100      -0.000006666005
101       0.000032345302
102       0.000167153033
103      -0.000093899163
104       0.000038185069
 Sym=     1a
 Ene= -8.66331950686734E+00
 Spin= Alpha
 Occup= 1.000000
  1       0.000033478689
  2      -0.000421162614
  3       0.000928207790
  4       0.000042491587
  5       0.000072144289
  6       0.000028563931
  7       0.000088947578
  8      -0.000356359939
  9       0.000761721696
 10      -0.000011957905
 11       0.000009767384
 12       0.000011486980
 13      -0.000011581931
 14      -0.000025944430
 15       0.000010263684
 16      -0.000059974596
 17      -0.001046303873
 18       0.000004800817
 19       0.000016923807
 20       0.000015814259
 21       0.000029729727
 22      -0.000158669182
 23       0.000515323118
 24       0.000000203675
 25      -0.000009165576
 26      -0.000005548517
 27      -0.000021736323
 28      -0.000002994052
 29      -0.000032828019
 30       0.000018739419
 31      -0.000011650085
 32       0.000008369525
 33      -0.000001129713
 34       0.000014669943
 35      -0.000026306886
 36       0.000004472550
 37       0.000010456078
 38      -0.000014355097
 39      -0.000015198781
 40       0.000014212570
 41      -0.000002909867
 42       0.000000207400
 43      -0.000006206391
 44       0.000023422242
 45      -0.000711543536
 46       0.006771579314
 47      -0.000056121737
 48      -0.000081970436
 49      -0.000041283176
 50       0.000355891621
 51      -0.002366027486
 52      -0.001456888983
 53      -0.000044085252
 54       0.000030415121
 55       0.000156551526
 56      -0.000152321152
 57       0.000018869411
 58      -0.000027839873
 59      -0.000006463722
 60       0.000023469289
 61       0.000007098202
 62      -0.000031781923
 63      -0.000211348172
 64      -0.000216367120
 65      -0.000043437932
 66      -0.000012317174
 67       0.000028816993
 68       0.000044295324
 69      -0.009796442078
 70      -0.000017129587
 71      -0.000359246307
 72      -0.000178450143
 73      -0.136665530522
 74       0.516891772981
 75      -1.093480440677
 76      -0.032395555178
 77       0.014279932223
 78       0.000062189312
 79       0.000405686533
 80       0.000194521044
 81      -0.000138657023
 82      -0.000929687523
 83      -0.000443847925
 84      -0.000191044759
 85      -0.000865579339
 86      -0.000445489671
 87       0.000625853236
 88       0.002950247950
 89       0.001528523401
 90       0.000313598738
 91      -0.000128866723
 92      -0.000948233177
 93       0.000957778736
 94      -0.000266420061
 95       0.000270880907
 96      -0.000132854599
 97      -0.000839644327
 98       0.000831345738
 99      -0.000268520311
100      -0.000175758482
101       0.000128377148
102       0.000608568268
103      -0.000564478205
104       0.000250649977
 Sym=     1a
 Ene= -6.49987843595913E+00
 Spin= Alpha
 Occup= 1.000000
  1       0.000016852705
  2      -0.000249439223
  3       0.000624134946
  4       0.000024493583
  5       0.000042715330
  6       0.000016901021
  7      -0.000053083022
  8      -0.000236645015
  9       0.000303747397
 10      -0.000004711254
 11       0.000007771600
 12       0.000010175509
 13      -0.000005220801
 14      -0.000007430361
 15       0.000006033655