[Molden Format]
[Title]
 Molden file created by orca_2mkl for BaseName=radical_001

[Atoms] AU
C    1   6          1.2161672686         0.8084078326         0.3616860231 
C    2   6          1.3219976012         0.1238980042         2.8076606035 
H    3   1          2.9781876001         1.2832090826        -0.6224455529 
H    4   1          3.1131386125         0.0605997377         3.8348798251 
H    5   1         -0.3830644949        -0.4197440791         3.8485123094 
C    6   6         -1.1172419952         0.8271406877        -1.1693852084 
H    7   1         -2.8720719187         0.9339725753        -0.0608567404 
H    8   1         -1.1249615264         2.2098381821        -2.7216364904 
H    9   1         -1.2387268191        -1.0940928500        -2.2080807368 
Br  10  35         -1.8761767975        -4.3976780623        -3.9083297004 
[GTO]
  1 0
s   5 1.0 
     1238.4016938000         0.8208956682
      186.2900499200         1.4766449896
       42.2511763460         2.1526124058
       11.6765579320         2.1081722461
        3.5930506482         0.8290999933
s   1 1.0 
        0.4024514736         0.3601183351
s   1 1.0 
        0.1309018267         0.1551027052
p   3 1.0 
        9.4680970621         1.3467645142
        2.0103545142         1.0678070931
        0.5477100471         0.5108735714
p   1 1.0 
        0.1526861379         0.1360471976
d   1 1.0 
        0.8000000000         1.9292013661

  2 0
s   5 1.0 
     1238.4016938000         0.8208956682
      186.2900499200         1.4766449896
       42.2511763460         2.1526124058
       11.6765579320         2.1081722461
        3.5930506482         0.8290999933
s   1 1.0 
        0.4024514736         0.3601183351
s   1 1.0 
        0.1309018267         0.1551027052
p   3 1.0 
        9.4680970621         1.3467645142
        2.0103545142         1.0678070931
        0.5477100471         0.5108735714
p   1 1.0 
        0.1526861379         0.1360471976
d   1 1.0 
        0.8000000000         1.9292013661

  3 0
s   3 1.0 
       13.0107010000         0.1634903809
        1.9622572000         0.2773515510
        0.4445379600         0.3157501452
s   1 1.0 
        0.1219496200         0.1470772262
p   1 1.0 
        0.8000000000         1.0784563492

  4 0
s   3 1.0 
       13.0107010000         0.1634903809
        1.9622572000         0.2773515510
        0.4445379600         0.3157501452
s   1 1.0 
        0.1219496200         0.1470772262
p   1 1.0 
        0.8000000000         1.0784563492

  5 0
s   3 1.0 
       13.0107010000         0.1634903809
        1.9622572000         0.2773515510
        0.4445379600         0.3157501452
s   1 1.0 
        0.1219496200         0.1470772262
p   1 1.0 
        0.8000000000         1.0784563492

  6 0
s   5 1.0 
     1238.4016938000         0.8208956682
      186.2900499200         1.4766449896
       42.2511763460         2.1526124058
       11.6765579320         2.1081722461
        3.5930506482         0.8290999933
s   1 1.0 
        0.4024514736         0.3601183351
s   1 1.0 
        0.1309018267         0.1551027052
p   3 1.0 
        9.4680970621         1.3467645142
        2.0103545142         1.0678070931
        0.5477100471         0.5108735714
p   1 1.0 
        0.1526861379         0.1360471976
d   1 1.0 
        0.8000000000         1.9292013661

  7 0
s   3 1.0 
       13.0107010000         0.1634903809
        1.9622572000         0.2773515510
        0.4445379600         0.3157501452
s   1 1.0 
        0.1219496200         0.1470772262
p   1 1.0 
        0.8000000000         1.0784563492

  8 0
s   3 1.0 
       13.0107010000         0.1634903809
        1.9622572000         0.2773515510
        0.4445379600         0.3157501452
s   1 1.0 
        0.1219496200         0.1470772262
p   1 1.0 
        0.8000000000         1.0784563492

  9 0
s   3 1.0 
       13.0107010000         0.1634903809
        1.9622572000         0.2773515510
        0.4445379600         0.3157501452
s   1 1.0 
        0.1219496200         0.1470772262
p   1 1.0 
        0.8000000000         1.0784563492

 10 0
s   6 1.0 
   113286.3877600000         7.5076141183
    17009.6263030000        13.8835270484
     3870.1842567000        22.7307285566
     1093.0357227000        30.8227297499
      356.3972179700        27.2481937511
      123.1253964300         9.6953381145
s   3 1.0 
      236.7408400700        -4.7631125758
       28.4686610700         5.6113863182
       11.8834437220         1.9900291396
s   3 1.0 
       21.2696333120        -1.5429794477
        3.6129226841         1.3310800628
        1.6626648969         0.4300130345
s   1 1.0 
        0.3482379323         0.3230852630
s   1 1.0 
        0.1301903139         0.1544699827
p   5 1.0 
     1560.2801881000       115.0180051576
      368.4785920500       143.9035925417
      117.2297884900       137.5255986684
       42.6489092480        78.9578527439
       16.0872250960        15.8580577654
p   3 1.0 
        8.6352810058         6.8437546680
        3.5613665502         3.7974971038
        1.5292626609         0.5585414278
p   1 1.0 
        0.5306429485         0.6455696201
p   1 1.0 
        0.1570275896         0.1408996918
d   4 1.0 
      104.8551864200       261.4493931636
       30.2811436880       176.6993802449
       10.6513942670        76.9545600188
        3.8699456233        17.5937671387
d   1 1.0 
        1.3240876762         4.6593398042
d   1 1.0 
        0.3890000000         0.5462379705

[5D]
[7F]
[9G]
[MO]
 Sym=     1a
 Ene= -4.82767869264057E+02
 Spin= Alpha
 Occup= 1.000000
  1      -0.000005639071
  2       0.000076992208
  3      -0.000223702056
  4      -0.000008727685
  5      -0.000015134004
  6      -0.000005428182
  7       0.000016180396
  8       0.000063649511
  9      -0.000140897057
 10       0.000001589801
 11      -0.000001917286
 12      -0.000000777393
 13       0.000000785724
 14       0.000005848887
 15      -0.000001360115
 16       0.000008081540
 17       0.000216526832
 18      -0.000000140711
 19      -0.000002812829
 20      -0.000002712785
 21      -0.000021105874
 22       0.000026935016
 23      -0.000103108054
 24       0.000000132008
 25       0.000002066770
 26       0.000001353152
 27       0.000004270882
 28       0.000000982723
 29       0.000002602782
 30      -0.000006566212
 31       0.000001904410
 32      -0.000002123845
 33      -0.000000778831
 34      -0.000001210998
 35       0.000007825120
 36      -0.000000994104
 37      -0.000001985564
 38       0.000003430599
 39      -0.000000421000
 40      -0.000009617346
 41       0.000000736246
 42      -0.000000363440
 43       0.000001856033
 44      -0.000008351748
 45       0.000156155595
 46      -0.001049733365
 47       0.000008674723
 48      -0.000015062754
 49      -0.000008216405
 50      -0.000036984959
 51       0.000377474152
 52       0.000266766155
 53       0.000003663122
 54      -0.000005192537
 55      -0.000011517957
 56       0.000012572102
 57      -0.000005392915
 58       0.000010276125
 59      -0.000007835774
 60      -0.000006318768
 61      -0.000003795489
 62       0.000002802880
 63       0.000044887677
 64       0.000033788066
 65       0.000005648698
 66      -0.000001962913
 67      -0.000007856285
 68      -0.000008605844
 69       0.001442651562
 70      -0.000007805490
 71      -0.000005746001
 72      -0.000002912801
 73       0.994982780986
 74       0.015687082121
 75      -0.003906979291
 76       0.002329649202
 77      -0.001663812343
 78       0.000001666280
 79       0.000007407002
 80       0.000003716016
 81      -0.000005690483
 82      -0.000024938163
 83      -0.000012548183
 84       0.000027530137
 85       0.000122615460
 86       0.000061957382
 87      -0.000090206048
 88      -0.000426804618
 89      -0.000217677223
 90       0.000003261231
 91      -0.000002368981
 92      -0.000011029261
 93       0.000010301263
 94      -0.000004736419
 95      -0.000012599392
 96       0.000009104968
 97       0.000042632978
 98      -0.000039841616
 99       0.000018176921
100       0.000030068867
101      -0.000021612030
102      -0.000102319364
103       0.000095604049
104      -0.000042882523
 Sym=     1a
 Ene= -6.24507714647641E+01
 Spin= Alpha
 Occup= 1.000000
  1      -0.000013461404
  2       0.000185909548
  3      -0.000530700915
  4      -0.000020993497
  5      -0.000036312869
  6      -0.000013137303
  7       0.000033409408
  8       0.000153430499
  9      -0.000342502044
 10       0.000004010202
 11      -0.000004428030
 12      -0.000002041135
 13       0.000002127951
 14       0.000014015601
 15      -0.000003277258
 16       0.000020006799
 17       0.000520630619
 18      -0.000000526004
 19      -0.000006792395
 20      -0.000006604027
 21      -0.000048013498
 22       0.000065493681
 23      -0.000248308851
 24       0.000000313021
 25       0.000004937295
 26       0.000003201605
 27       0.000010116224
 28       0.000002310231
 29       0.000006924897
 30      -0.000016099197
 31       0.000004646605
 32      -0.000004922487
 33      -0.000001652145
 34      -0.000003232530
 35       0.000018264349
 36      -0.000002375597
 37      -0.000004727604
 38       0.000008094199
 39      -0.000000329043
 40      -0.000022049602
 41       0.000001735521
 42      -0.000000821879
 43       0.000004305766
 44      -0.000019269972
 45       0.000374249511
 46      -0.002583532642
 47       0.000021418513
 48      -0.000031134088
 49      -0.000017287773
 50      -0.000094391077
 51       0.000925747578
 52       0.000650290093
 53       0.000009434235
 54      -0.000012706241
 55      -0.000030958803
 56       0.000033022483
 57      -0.000012804640
 58       0.000024055162
 59      -0.000017745645
 60      -0.000014998749
 61      -0.000008954671
 62       0.000007092344
 63       0.000108468223
 64       0.000083139580
 65       0.000014062975
 66      -0.000004377609
 67      -0.000018776194
 68      -0.000019698284
 69       0.003554247398
 70      -0.000017030140
 71      -0.000002270453
 72      -0.000000953677
 73       0.347189710674
 74      -1.046963959139
 75      -0.018550280829
 76       0.006304459685
 77      -0.004241019453
 78      -0.000009802452
 79      -0.000078386548
 80      -0.000036251706
 81      -0.000015178743
 82      -0.000068979881
 83      -0.000034436613
 84       0.000068077883
 85       0.000304138022
 86       0.000153527724
 87      -0.000222170939
 88      -0.001051965020
 89      -0.000536392423
 90       0.000022312003
 91      -0.000011446901
 92      -0.000070591402
 93       0.000069279863
 94      -0.000023358341
 95      -0.000035100576
 96       0.000023597783
 97       0.000116911193
 98      -0.000110512445
 99       0.000047470942
100       0.000074532767
101      -0.000052928480
102      -0.000252839689
103       0.000236714456
104      -0.000105368594
 Sym=     1a
 Ene= -5.62842932774343E+01
 Spin= Alpha
 Occup= 1.000000
  1       0.000015884323
  2      -0.000230844001
  3       0.000678600534
  4       0.000025212805
  5       0.000043662346
  6       0.000015613267
  7      -0.000094617359
  8      -0.000210990355
  9       0.000330889241
 10      -0.000003636908
 11       0.000006651703
 12       0.000007181887
 13      -0.000003176222
 14      -0.000010376475
 15       0.000004563830
 16      -0.000032736593
 17      -0.000558186883
 18       0.000002415694
 19       0.000010209175
 20       0.000010422861
 21       0.000054623280
 22      -0.000062869101
 23       0.000256400257
 24       0.000000971959
 25      -0.000007788686
 26      -0.000006111310
 27      -0.000011389018
 28      -0.000000545577
 29      -0.000012100518
 30       0.000028373194
 31      -0.000004434982
 32       0.000007645048
 33       0.000007256484
 34       0.000006191036
 35      -0.000017611232
 36       0.000000591945
 37       0.000005438978
 38      -0.000009097821
 39      -0.000004278946
 40       0.000032159141
 41      -0.000000148080
 42      -0.000000316483
 43      -0.000002675209
 44       0.000015469755
 45      -0.000356764944
 46       0.002870105804
 47      -0.000028286949
 48       0.000008608975
 49       0.000007344019
 50       0.000101998480
 51      -0.001056955557
 52      -0.000780022491
 53      -0.000012040374
 54       0.000017096291
 55       0.000041708255
 56      -0.000045398273
 57       0.000014415723
 58      -0.000004892108
 59       0.000070781818
 60       0.000018231756
 61      -0.000004764289
 62      -0.000016421836
 63      -0.000114119180
 64      -0.000058924790
 65      -0.000019175477
 66      -0.000009711672
 67       0.000014061402
 68      -0.000070936498
 69      -0.004425074905
 70       0.000028632696
 71       0.000027600036
 72       0.000015940011
 73       0.000048253465
 74      -0.000138192481
 75       0.000158958004
 76      -0.001023144912
 77       0.002120021178
 78       0.118875215214
 79       0.884129840343
 80       0.430953307394
 81       0.002863728043
 82       0.021243969806
 83       0.010356308747
 84      -0.000780270710
 85      -0.005544174122
 86      -0.002710427523
 87       0.000545257296
 88       0.003288825963
 89       0.001635676931
 90      -0.000012978214
 91       0.000008537973
 92       0.000043268841
 93      -0.000041058807
 94       0.000017236941
 95       0.000043356195
 96      -0.000030275938
 97      -0.000147776547
 98       0.000138583855
 99      -0.000060767284
100      -0.000101858343
101       0.000071724739
102       0.000349525484
103      -0.000327024360
104       0.000142742934
 Sym=     1a
 Ene= -5.62800744693426E+01
 Spin= Alpha
 Occup= 1.000000
  1      -0.000006159464
  2       0.000055692743
  3      -0.000173103583
  4      -0.000013094902
  5      -0.000023218784
  6      -0.000003957342
  7      -0.000006791949
  8       0.000192487763
  9      -0.000279400955
 10      -0.000006726476
 11       0.000002315811
 12       0.000002732106
 13      -0.000001970904
 14      -0.000010332998
 15      -0.000001204430
 16       0.000007104596
 17       0.000371582002
 18      -0.000004461875
 19       0.000002424598
 20      -0.000005044310
 21       0.000013601121
 22       0.000002038865
 23      -0.000162251784
 24       0.000003906963
 25       0.000002683510
 26       0.000003877819
 27       0.000004930552
 28      -0.000000973953
 29      -0.000015252937
 30      -0.000054458759
 31       0.000008254756
 32      -0.000017182031
 33       0.000001662228
 34      -0.000010316115
 35      -0.000018259266
 36      -0.000001407693
 37       0.000002340867
 38       0.000007745244
 39       0.000001052258
 40      -0.000017174978
 41       0.000002586064
 42       0.000003255622
 43       0.000007905079
 44       0.000003297033
 45      -0.000069545755
 46       0.000383637522
 47       0.000041172265
 48       0.000023140327
 49       0.000010065437
 50      -0.000299839008
 51      -0.000321267701
 52      -0.000070166271
 53      -0.000001206539
 54      -0.000025411792
 55       0.000015133731
 56      -0.000005618251
 57      -0.000018383873
 58      -0.000117134354
 59      -0.000026876554
 60       0.000011482914
 61       0.000016189518
 62       0.000018268573
 63       0.000012035961
 64       0.000037326721
 65       0.000031110277
 66       0.000006182475
 67       0.000010416145
 68      -0.000023837713
 69      -0.000609543112
 70      -0.000052701202
 71       0.000003358285
 72       0.000001202286
 73       0.000001221361
 74      -0.000002973914
 75       0.000012995640
 76      -0.000094288482
 77       0.000229256534
 78       0.980766527994
 79      -0.073545106508
 80      -0.119663792138
 81       0.023422881677
 82      -0.001749945048
 83      -0.002854348925
 84      -0.005677114235
 85       0.000391846644
 86       0.000674764670
 87       0.002125450939
 88      -0.000014030528
 89      -0.000183030969
 90      -0.000002043591
 91       0.000005073185
 92       0.000001474401
 93      -0.000000779828
 94       0.000010706798
 95       0.000005322084
 96      -0.000008414990
 97      -0.000009923700
 98       0.000008776211
 99      -0.000016720278
100      -0.000012287589
101       0.000015962848
102       0.000028179066
103      -0.000025723289
104       0.000031103138
 Sym=     1a
 Ene= -5.62800627257130E+01
 Spin= Alpha
 Occup= 1.000000
  1       0.000005901978
  2      -0.000048691268
  3      -0.000077524603
  4       0.000008532428
  5       0.000015536916
  6       0.000024331950
  7       0.000105365582
  8       0.000021967814
  9      -0.000203456629
 10       0.000005065579
 11      -0.000001796826
 12      -0.000002731190
 13      -0.000001701637
 14      -0.000000216595
 15      -0.000001478455
 16       0.000028656848
 17       0.000148650267
 18      -0.000009049256
 19       0.000007131906
 20      -0.000007524961
 21       0.000065065151
 22       0.000021331425
 23      -0.000013117695
 24      -0.000004169146
 25       0.000003782567
 26      -0.000001496365
 27      -0.000002670803
 28      -0.000002702476
 29      -0.000034797408
 30      -0.000083550582
 31       0.000005440090
 32       0.000006828771
 33       0.000006708848
 34      -0.000017973874
 35      -0.000054041204
 36       0.000004027888
 37      -0.000000287480
 38       0.000003657015
 39       0.000009866626
 40       0.000007265570
 41       0.000000689444
 42       0.000001446751
 43      -0.000001579057
 44       0.000003408922
 45      -0.000034119499
 46       0.000013573388
 47      -0.000007446628
 48       0.000017665705
 49      -0.000042460735
 50      -0.000038857401
 51      -0.000110970954
 52       0.000341385442
 53       0.000007131822
 54      -0.000002308199
 55       0.000029241098
 56       0.000028525929
 57       0.000001124898
 58      -0.000076270959
 59      -0.000051809228
 60      -0.000019032704
 61       0.000015822357
 62      -0.000023259408
 63       0.000120417786
 64       0.000074544697
 65      -0.000002109102
 66      -0.000016767312
 67       0.000001450025
 68       0.000011429305
 69       0.000055870000
 70       0.000005818741
 71      -0.000025532230
 72       0.000046586066
 73       0.000000337981
 74      -0.000001182160
 75      -0.000002779892
 76       0.000016226705
 77      -0.000029920264
 78      -0.074797296492
 79       0.440980393639
 80      -0.884066665171
 81      -0.001786560074
 82       0.010529037214
 83      -0.021111984123
 84       0.000433857448
 85      -0.002540518459
 86       0.005111329527
 87      -0.000163359138
 88       0.000919682704
 89      -0.001894433869
 90      -0.000006792358
 91      -0.000001684485
 92      -0.000006906052
 93      -0.000003768278
 94      -0.000000190134
 95       0.000007796935
 96       0.000002356925
 97       0.000009395307
 98       0.000003055269
 99       0.000000459853
100      -0.000011537449
101      -0.000003864598
102      -0.000015665468
103      -0.000003112080
104      -0.000001140131
 Sym=     1a
 Ene= -1.02170244870325E+01
 Spin= Alpha
 Occup= 1.000000
  1       0.129145634685
  2       0.005061136707
  3       0.000311353956
  4       0.001334939894
  5      -0.000352781279
  6       0.000925019342
  7       0.000798666459
  8       0.001669942095
  9      -0.005464175725
 10       0.000113551278
 11      -0.001331278982
 12       0.000023648203
 13      -0.000876919549
 14       0.000179024715
 15       0.008846873956
 16      -0.000450974019
 17       0.007076248905
 18       0.000275809545
 19      -0.000072749905
 20       0.000265459481
 21      -0.004739994066
 22       0.000276553962
 23      -0.003474505512
 24       0.000036617330
 25      -0.000053560775
 26      -0.000041640085
 27       0.000198196086
 28       0.000121630616
 29      -0.001052004160
 30      -0.000565497719
 31       0.000024245755
 32       0.000000630964
 33      -0.000295490844
 34       0.000763354966
 35       0.001826681523
 36      -0.000071438829
 37       0.000008226156
 38      -0.000048863040
 39      -0.000913143967
 40      -0.001861458595
 41      -0.000000087702
 42      -0.000058105191
 43       0.000106693324
 44       0.979274871509
 45       0.053078470298
 46      -0.054410950270
 47      -0.000862886908
 48      -0.000727451722
 49      -0.000953224322
 50      -0.001824836009
 51       0.006486060405
 52       0.003449414937
 53       0.000236006795
 54      -0.000602807920
 55      -0.000462158874
 56      -0.000060384367
 57      -0.000124091276
 58      -0.002785090201
 59       0.007307699029
 60      -0.002181699557
 61      -0.000072903725
 62       0.001618838331
 63      -0.002608784977
 64       0.008036278686
 65       0.000266738682
 66       0.001708025740
 67      -0.002155350296
 68      -0.002396955128
 69       0.024100687425
 70       0.000072610967
 71      -0.002230307925
 72      -0.000971945335
 73      -0.000011865359
 74       0.000021463216
 75      -0.000205615862
 76       0.002156190971
 77      -0.006904466869
 78       0.000004700388
 79       0.000019377068
 80       0.000003144948
 81      -0.000017031570
 82      -0.000070067239
 83      -0.000012736525
 84       0.000129449867
 85       0.000539318282
 86       0.000174859123
 87      -0.000861692225
 88      -0.004035803531
 89      -0.001884686167
 90       0.000022191503
 91      -0.000013151500
 92      -0.000050995815
 93       0.000052987372
 94      -0.000030228757
 95      -0.000103088879
 96       0.000061472360
 97       0.000241280628
 98      -0.000249450487
 99       0.000140354009
100       0.000298625649
101      -0.000183871110
102      -0.000770402194
103       0.000775787249
104      -0.000405006711
 Sym=     1a
 Ene= -1.02163227729634E+01
 Spin= Alpha
 Occup= 1.000000
  1       0.978377827251
  2       0.047314031179
  3      -0.042075852716
  4       0.000427264293
  5      -0.000217028253
  6      -0.000372615395
  7       0.004375719642
  8       0.001877858948
  9      -0.004029355766
 10       0.001023065387
 11      -0.000203814012
 12      -0.000950256285
 13       0.001678673055
 14       0.000700148741
 15       0.052440206383
 16      -0.002183949512
 17       0.016130522237
 18       0.000130274692
 19      -0.000770125837
 20       0.002614420886
 21      -0.002254418754
 22       0.001058869143
 23      -0.004686334687
 24      -0.001062933704
 25      -0.000042817220
 26       0.000701477038
 27      -0.000294367111
 28      -0.000089805686
 29      -0.004639922715
 30       0.006289313071
 31       0.002553247125
 32       0.000607841239
 33      -0.001312907121
 34       0.000275897814
 35      -0.000087353505
 36      -0.000176131399
 37       0.000080858915
 38      -0.000385553973
 39      -0.000257745677
 40      -0.001320624601
 41       0.000136965610
 42       0.000141849638
 43      -0.000434744384
 44      -0.128728620477
 45      -0.007474944751
 46       0.006982213115
 47      -0.001566829970
 48      -0.000298586106
 49      -0.001201183836
 50       0.001418286720
 51       0.003737665644
 52       0.005604381494
 53       0.000164936891
 54      -0.001175336789
 55      -0.000047887722
 56      -0.001019192060
 57      -0.000098879544
 58       0.000382161497
 59      -0.002006013832
 60       0.000583592484
 61      -0.000186913004
 62      -0.000084365268
 63       0.000923107547
 64      -0.000671678556
 65       0.000290920764
 66      -0.000497436588
 67       0.000235484015
 68       0.000440870975
 69       0.009918899962
 70       0.000526352874
 71       0.000540508535
 72       0.000518522702
 73      -0.000007675901
 74       0.000014205516
 75      -0.000131860130
 76       0.001292985597
 77      -0.003613372515
 78      -0.000007608942
 79       0.000022411935
 80       0.000001987334
 81       0.000025438179
 82      -0.000078050979
 83      -0.000007782439
 84      -0.000075607180
 85       0.000463389896
 86       0.000107120324
 87      -0.000201034163
 88      -0.002362785649
 89      -0.001014276104
 90       0.000011266163
 91       0.000000805936
 92      -0.000032737328
 93       0.000036273207
 94      -0.000009944689
 95      -0.000053036565
 96      -0.000001012326
 97       0.000156743354
 98      -0.000171312853
 99       0.000048567605
100       0.000158582353
101      -0.000031145121
102      -0.000500311095
103       0.000518501411
104      -0.000167116032
 Sym=     1a
 Ene= -1.02103408169649E+01
 Spin= Alpha
 Occup= 1.000000
  1      -0.052224862566
  2      -0.006834839668
  3       0.011838441384
  4      -0.000393585339
  5       0.000706166529
  6      -0.002672366243
  7      -0.000697489965
  8       0.000351279326
  9      -0.002015945357
 10      -0.001337191337
 11       0.000002319225
 12       0.000856508801
 13      -0.000405103365
 14      -0.000137022460
 15       0.986713575218
 16       0.048466102170
 17      -0.030492815595
 18      -0.000036916776
 19      -0.000135784284
 20       0.000312650018
 21       0.000936842101
 22       0.000227926203
 23       0.000133689947
 24       0.001116303763
 25       0.000214907471
 26      -0.001287758709
 27       0.002117127473
 28       0.000569141946
 29       0.000270638376
 30      -0.001559092121
 31      -0.000270988306
 32      -0.000263470723
 33       0.000831415014
 34      -0.004647041041
 35       0.006858517418
 36       0.002697483066
 37      -0.000075994834
 38       0.001409152359
 39      -0.004198408796
 40       0.007428164466
 41      -0.002560977532
 42      -0.000779495761
 43       0.001390946941
 44      -0.002029531511
 45       0.000248239412
 46      -0.004741955346
 47       0.000272979295
 48      -0.000002818065
 49       0.000003865765
 50      -0.002653938368
 51      -0.000181328974
 52       0.002094793047
 53       0.000196868608
 54       0.000197160750
 55      -0.000076729055
 56       0.000172713611
 57      -0.000067821656
 58      -0.000428422390
 59      -0.001103708584
 60       0.000007884008
 61       0.000097511350
 62       0.000051776218
 63       0.000614309598
 64       0.000911442642
 65       0.000060883686
 66      -0.000108015536
 67      -0.000154581411
 68      -0.000044753826
 69       0.002301689988
 70       0.000060976221
 71       0.000181264212
 72      -0.000208556606
 73      -0.000002455831
 74       0.000004738946
 75      -0.000041501950
 76       0.000333908072
 77      -0.000837379418
 78       0.000000311889
 79       0.000005787834
 80       0.000004628482
 81      -0.000001160528
 82      -0.000020040678
 83      -0.000016030575
 84       0.000010748235
 85       0.000108967047
 86       0.000085160364
 87      -0.000082237557
 88      -0.000500652380
 89      -0.000324179217
 90      -0.000000166273
 91      -0.000001995626
 92      -0.000010557575
 93       0.000005035424
 94      -0.000001907648
 95       0.000000435647
 96       0.000009296069
 97       0.000049016995
 98      -0.000024186996
 99       0.000009102982
100       0.000004504971
101      -0.000026481544
102      -0.000137575253
103       0.000079022886
104      -0.000029574912
 Sym=     1a
 Ene= -8.66892324578230E+00
 Spin= Alpha
 Occup= 1.000000
  1      -0.000033883809
  2       0.000407039716
  3      -0.001028450513
  4      -0.000043974898
  5      -0.000074307848
  6      -0.000027961378
  7      -0.000022576801
  8       0.000333751144
  9      -0.000806262908
 10       0.000011149273
 11      -0.000007360881
 12      -0.000006836617
 13       0.000007891526
 14       0.000029578810
 15      -0.000009588867
 16       0.000051065569
 17       0.001130143963
 18      -0.000003773685
 19      -0.000014395391
 20      -0.000015118530
 21      -0.000057352091
 22       0.000154020518
 23      -0.000545296565
 24       0.000000541936
 25       0.000009542784
 26       0.000005707070
 27       0.000019973901
 28       0.000004481629
 29       0.000022103124
 30      -0.000033914981
 31       0.000011375318
 32      -0.000007712872
 33       0.000001229556
 34      -0.000012043181
 35       0.000027988852
 36      -0.000005104640
 37      -0.000009610962
 38       0.000015754985
 39       0.000008163881
 40      -0.000027272501
 41       0.000003726034
 42      -0.000001060881
 43       0.000007671497
 44      -0.000035184645
 45       0.000778468495
 46      -0.006519172616
 47       0.000053535884
 48       0.000018295389
 49       0.000003970415
 50      -0.000289830064
 51       0.002272001387
 52       0.001538636477
 53       0.000030602819
 54      -0.000030473227
 55      -0.000119257194
 56       0.000116710863
 57      -0.000025096099
 58       0.000039033214
 59      -0.000012034945
 60      -0.000029678943
 61      -0.000016739356
 62       0.000019771578
 63       0.000240490732
 64       0.000217963152
 65       0.000036884062
 66      -0.000005066494
 67      -0.000038759056
 68      -0.000050910531
 69       0.009029526291
 70      -0.000005077029
 71       0.000201459352
 72       0.000105269173
 73       0.136666852595
 74      -0.516894916568
 75       1.093501614457
 76       0.032266182193
 77      -0.013658331853
 78      -0.000040033614
 79      -0.000286541713
 80      -0.000132843574
 81       0.000085831076
 82       0.000644638297
 83       0.000296920549
 84       0.000180113374
 85       0.000822545709
 86       0.000413936386
 87      -0.000560615087
 88      -0.002668468865
 89      -0.001359931066
 90      -0.000334032047
 91       0.000127559681
 92       0.000997189604
 93      -0.001016964660
 94       0.000265827238
 95      -0.000289557538
 96       0.000130901927
 97       0.000881961878
 98      -0.000884523254
 99       0.000270586477
100       0.000184034564
101      -0.000124169595
102      -0.000613338343
103       0.000579660432
104      -0.000249289229
 Sym=     1a
 Ene= -6.50612697389751E+00
 Spin= Alpha
 Occup= 1.000000
  1      -0.000018367943
  2       0.000253844292
  3      -0.000703696251
  4      -0.000027741707
  5      -0.000046971479
  6      -0.000018455561
  7       0.000083381720
  8       0.000234354473
  9      -0.000366172423
 10       0.000004564250
 11      -0.000005867210
 12      -0.000007169189
 13       0.000003905367
 14       0.000010919329
 15      -0.000005624586