[Molden Format]
[Title]
 Molden file created by orca_2mkl for BaseName=radical_038

[Atoms] AU
C    1   6          1.1712446989         0.9507155488         0.3680619591 
C    2   6          1.3268882125         0.0947584273         2.8381796805 
H    3   1          2.9424585481         1.3820738848        -0.6190421561 
H    4   1          3.1441641361        -0.1025989010         3.7964616928 
H    5   1         -0.3770041432        -0.3982597827         3.9015701501 
C    6   6         -1.0758399853         1.2791045974        -0.9666421607 
H    7   1         -2.9051043316         0.9155779811        -0.0721006109 
H    8   1         -1.0892457025         2.0647072150        -2.8757134210 
H    9   1         -1.2856732855        -2.0896818356        -2.6071379840 
Br  10  35         -1.8691356780        -4.4319482457        -3.9256395918 
[GTO]
  1 0
s   5 1.0 
     1238.4016938000         0.8208956682
      186.2900499200         1.4766449896
       42.2511763460         2.1526124058
       11.6765579320         2.1081722461
        3.5930506482         0.8290999933
s   1 1.0 
        0.4024514736         0.3601183351
s   1 1.0 
        0.1309018267         0.1551027052
p   3 1.0 
        9.4680970621         1.3467645142
        2.0103545142         1.0678070931
        0.5477100471         0.5108735714
p   1 1.0 
        0.1526861379         0.1360471976
d   1 1.0 
        0.8000000000         1.9292013661

  2 0
s   5 1.0 
     1238.4016938000         0.8208956682
      186.2900499200         1.4766449896
       42.2511763460         2.1526124058
       11.6765579320         2.1081722461
        3.5930506482         0.8290999933
s   1 1.0 
        0.4024514736         0.3601183351
s   1 1.0 
        0.1309018267         0.1551027052
p   3 1.0 
        9.4680970621         1.3467645142
        2.0103545142         1.0678070931
        0.5477100471         0.5108735714
p   1 1.0 
        0.1526861379         0.1360471976
d   1 1.0 
        0.8000000000         1.9292013661

  3 0
s   3 1.0 
       13.0107010000         0.1634903809
        1.9622572000         0.2773515510
        0.4445379600         0.3157501452
s   1 1.0 
        0.1219496200         0.1470772262
p   1 1.0 
        0.8000000000         1.0784563492

  4 0
s   3 1.0 
       13.0107010000         0.1634903809
        1.9622572000         0.2773515510
        0.4445379600         0.3157501452
s   1 1.0 
        0.1219496200         0.1470772262
p   1 1.0 
        0.8000000000         1.0784563492

  5 0
s   3 1.0 
       13.0107010000         0.1634903809
        1.9622572000         0.2773515510
        0.4445379600         0.3157501452
s   1 1.0 
        0.1219496200         0.1470772262
p   1 1.0 
        0.8000000000         1.0784563492

  6 0
s   5 1.0 
     1238.4016938000         0.8208956682
      186.2900499200         1.4766449896
       42.2511763460         2.1526124058
       11.6765579320         2.1081722461
        3.5930506482         0.8290999933
s   1 1.0 
        0.4024514736         0.3601183351
s   1 1.0 
        0.1309018267         0.1551027052
p   3 1.0 
        9.4680970621         1.3467645142
        2.0103545142         1.0678070931
        0.5477100471         0.5108735714
p   1 1.0 
        0.1526861379         0.1360471976
d   1 1.0 
        0.8000000000         1.9292013661

  7 0
s   3 1.0 
       13.0107010000         0.1634903809
        1.9622572000         0.2773515510
        0.4445379600         0.3157501452
s   1 1.0 
        0.1219496200         0.1470772262
p   1 1.0 
        0.8000000000         1.0784563492

  8 0
s   3 1.0 
       13.0107010000         0.1634903809
        1.9622572000         0.2773515510
        0.4445379600         0.3157501452
s   1 1.0 
        0.1219496200         0.1470772262
p   1 1.0 
        0.8000000000         1.0784563492

  9 0
s   3 1.0 
       13.0107010000         0.1634903809
        1.9622572000         0.2773515510
        0.4445379600         0.3157501452
s   1 1.0 
        0.1219496200         0.1470772262
p   1 1.0 
        0.8000000000         1.0784563492

 10 0
s   6 1.0 
   113286.3877600000         7.5076141183
    17009.6263030000        13.8835270484
     3870.1842567000        22.7307285566
     1093.0357227000        30.8227297499
      356.3972179700        27.2481937511
      123.1253964300         9.6953381145
s   3 1.0 
      236.7408400700        -4.7631125758
       28.4686610700         5.6113863182
       11.8834437220         1.9900291396
s   3 1.0 
       21.2696333120        -1.5429794477
        3.6129226841         1.3310800628
        1.6626648969         0.4300130345
s   1 1.0 
        0.3482379323         0.3230852630
s   1 1.0 
        0.1301903139         0.1544699827
p   5 1.0 
     1560.2801881000       115.0180051576
      368.4785920500       143.9035925417
      117.2297884900       137.5255986684
       42.6489092480        78.9578527439
       16.0872250960        15.8580577654
p   3 1.0 
        8.6352810058         6.8437546680
        3.5613665502         3.7974971038
        1.5292626609         0.5585414278
p   1 1.0 
        0.5306429485         0.6455696201
p   1 1.0 
        0.1570275896         0.1408996918
d   4 1.0 
      104.8551864200       261.4493931636
       30.2811436880       176.6993802449
       10.6513942670        76.9545600188
        3.8699456233        17.5937671387
d   1 1.0 
        1.3240876762         4.6593398042
d   1 1.0 
        0.3890000000         0.5462379705

[5D]
[7F]
[9G]
[MO]
 Sym=     1a
 Ene= -4.82768758384419E+02
 Spin= Alpha
 Occup= 1.000000
  1      -0.000005651549
  2       0.000067517585
  3      -0.000074043740
  4      -0.000007655175
  5      -0.000016627918
  6      -0.000007006978
  7      -0.000055245094
  8       0.000065699454
  9      -0.000143951471
 10       0.000001657777
 11      -0.000001437022
 12       0.000001926917
 13       0.000000573661
 14       0.000007219718
 15      -0.000001089958
 16       0.000003781027
 17       0.000175312386
 18       0.000001000000
 19      -0.000002797622
 20      -0.000001814829
 21      -0.000017107955
 22       0.000030849118
 23      -0.000095114911
 24       0.000001780771
 25      -0.000000143950
 26       0.000000301273
 27       0.000004999317
 28       0.000001502606
 29       0.000004916025
 30       0.000003428542
 31       0.000002442409
 32      -0.000004998545
 33       0.000001212429
 34       0.000000387462
 35       0.000012566325
 36      -0.000002166335
 37      -0.000001654007
 38       0.000002439062
 39      -0.000001478953
 40      -0.000005539981
 41       0.000001006146
 42      -0.000001501412
 43       0.000003135538
 44      -0.000008224543
 45       0.000145519433
 46      -0.000596431229
 47       0.000008100503
 48      -0.000023864831
 49      -0.000006163881
 50      -0.000073512131
 51       0.000199334939
 52       0.000095196670
 53       0.000001255310
 54      -0.000002256798
 55      -0.000008198641
 56       0.000005378408
 57      -0.000003091680
 58       0.000026161828
 59       0.000039290472
 60       0.000004528935
 61      -0.000008533922
 62      -0.000000046668
 63       0.000041874137
 64       0.000063987696
 65       0.000006522319
 66      -0.000005701706
 67       0.000000572829
 68      -0.000136762852
 69       0.000877852937
 70       0.000028422215
 71       0.000146907211
 72       0.000079460422
 73       0.994982013537
 74       0.015688793184
 75      -0.003922443213
 76       0.002314370722
 77      -0.001658204906
 78       0.000003363343
 79       0.000012376496
 80       0.000007052913
 81      -0.000010828575
 82      -0.000039406076
 83      -0.000022516429
 84       0.000041001749
 85       0.000149091263
 86       0.000085179787
 87      -0.000092410672
 88      -0.000347601353
 89      -0.000197480310
 90       0.000001289954
 91      -0.000001651518
 92      -0.000006109901
 93       0.000004975639
 94      -0.000002918923
 95      -0.000003759084
 96       0.000004855152
 97       0.000017850732
 98      -0.000014519852
 99       0.000008615574
100       0.000001310993
101      -0.000002317357
102      -0.000007048550
103       0.000005417489
104      -0.000004232776
 Sym=     1a
 Ene= -6.24518357308983E+01
 Spin= Alpha
 Occup= 1.000000
  1      -0.000013544206
  2       0.000163953861
  3      -0.000177722833
  4      -0.000018569912
  5      -0.000039915347
  6      -0.000017075847
  7      -0.000133856849
  8       0.000159230215
  9      -0.000342885175
 10       0.000003971314
 11      -0.000003335430
 12       0.000004213537
 13       0.000001652807
 14       0.000016904233
 15      -0.000002615629
 16       0.000009463361
 17       0.000418739009
 18       0.000002294896
 19      -0.000006819894
 20      -0.000004468737
 21      -0.000040044822
 22       0.000073532153
 23      -0.000227177755
 24       0.000004194619
 25      -0.000000237071
 26       0.000000812758
 27       0.000011796598
 28       0.000003445174
 29       0.000012507885
 30       0.000009045158
 31       0.000005729845
 32      -0.000011942316
 33       0.000002708633
 34       0.000000777736
 35       0.000029871701
 36      -0.000005062126
 37      -0.000003897643
 38       0.000005728465
 39      -0.000003067744
 40      -0.000013428909
 41       0.000002356084
 42      -0.000003489125
 43       0.000007363133
 44      -0.000019573406
 45       0.000351143744
 46      -0.001449913665
 47       0.000019502982
 48      -0.000056396334
 49      -0.000014447980
 50      -0.000175874327
 51       0.000483780589
 52       0.000230410634
 53       0.000003126453
 54      -0.000005509707
 55      -0.000019641168
 56       0.000012901840
 57      -0.000007206763
 58       0.000062162899
 59       0.000098144533
 60       0.000011136025
 61      -0.000019522590
 62       0.000000144400
 63       0.000099772585
 64       0.000156228164
 65       0.000015622678
 66      -0.000012808138
 67       0.000002018550
 68      -0.000356438512
 69       0.002173208154
 70       0.000071302697
 71       0.000364873677
 72       0.000197765593
 73       0.347186644618
 74      -1.046958315351
 75      -0.018587497032
 76       0.006267118981
 77      -0.004229877276
 78      -0.000087725920
 79      -0.000369002979
 80      -0.000204201228
 81      -0.000036865912
 82      -0.000139160566
 83      -0.000078972177
 84       0.000104333905
 85       0.000382682256
 86       0.000218454624
 87      -0.000228113605
 88      -0.000860400962
 89      -0.000488774686
 90       0.000010341419
 91      -0.000010914179
 92      -0.000045557622
 93       0.000038463030
 94      -0.000019858497
 95      -0.000010889788
 96       0.000013432002
 97       0.000050634045
 98      -0.000041615461
 99       0.000023502136
100       0.000002495637
101      -0.000004954936
102      -0.000014153528
103       0.000010679264
104      -0.000008474434
 Sym=     1a
 Ene= -5.62835974875229E+01
 Spin= Alpha
 Occup= 1.000000
  1      -0.000015373500
  2       0.000180235073
  3      -0.000080403886
  4      -0.000022412287
  5      -0.000045060643
  6      -0.000020427997
  7      -0.000188848617
  8       0.000183066910
  9      -0.000417090720
 10       0.000005614754
 11      -0.000002029744
 12       0.000004652732
 13       0.000003839318
 14       0.000020512725
 15      -0.000003006238
 16       0.000013068199
 17       0.000455932197
 18       0.000003401165
 19      -0.000008052254
 20      -0.000004601349
 21      -0.000046688157
 22       0.000084743190
 23      -0.000254090120
 24       0.000004670540
 25      -0.000001549921
 26       0.000000568615
 27       0.000013297577
 28       0.000004209967
 29       0.000010975759
 30       0.000000084426
 31       0.000007825458
 32      -0.000012969337
 33       0.000004462028
 34       0.000003099739
 35       0.000039911578
 36      -0.000006378636
 37      -0.000004247176
 38       0.000004990056
 39      -0.000003204668
 40      -0.000015061269
 41       0.000002341814
 42      -0.000004338242
 43       0.000008720886
 44      -0.000019858589
 45       0.000397055251
 46      -0.001761224378
 47       0.000027358319
 48      -0.000058226077
 49      -0.000010872758
 50      -0.000262111967
 51       0.000564521968
 52       0.000243289138
 53       0.000003942052
 54      -0.000007295591
 55      -0.000026695084
 56       0.000019330203
 57      -0.000007871527
 58       0.000069211087
 59       0.000110109202
 60       0.000017766359
 61      -0.000027616678
 62       0.000000445840
 63       0.000116988191
 64       0.000190050900
 65       0.000023522786
 66      -0.000021796839
 67       0.000005381236
 68      -0.000651690547
 69       0.002537072547
 70       0.000194148054
 71       0.000865435155
 72       0.000478749267
 73      -0.000186286478
 74       0.000555273007
 75      -0.000273961373
 76       0.000969439324
 77      -0.001783424855
 78      -0.185760792298
 79      -0.855459479493
 80      -0.463851429764
 81      -0.004491949804
 82      -0.020643679984
 83      -0.011198641175
 84       0.001233930283
 85       0.005544815616
 86       0.003022572770
 87      -0.000637897767
 88      -0.002728070108
 89      -0.001503309199
 90       0.000010722888
 91      -0.000011595212
 92      -0.000047182219
 93       0.000039844287
 94      -0.000020649883
 95      -0.000005321934
 96       0.000007439255
 97       0.000025199203
 98      -0.000020290609
 99       0.000012570325
100      -0.000039958093
101       0.000042833454
102       0.000179272199
103      -0.000150640178
104       0.000076616952
 Sym=     1a
 Ene= -5.62814271171043E+01
 Spin= Alpha
 Occup= 1.000000
  1      -0.000000974217
  2       0.000015082932
  3      -0.000141671381
  4      -0.000003011177
  5      -0.000008297049
  6       0.000002118988
  7       0.000062291067
  8       0.000095466462
  9      -0.000090629176
 10      -0.000000945006
 11      -0.000000194161
 12       0.000001211736
 13      -0.000003706792
 14      -0.000004112063
 15      -0.000000156604
 16       0.000001936827
 17       0.000169213280
 18      -0.000005346393
 19       0.000008310211
 20      -0.000001455875
 21       0.000015736986
 22      -0.000021547502
 23      -0.000048206758
 24       0.000000875391
 25       0.000002438000
 26       0.000002067578
 27       0.000002769102
 28      -0.000001019748
 29      -0.000007408837
 30      -0.000037100818
 31       0.000001212833
 32      -0.000005945956
 33      -0.000003002882
 34      -0.000010619490
 35      -0.000028402057
 36       0.000001828936
 37       0.000003596620
 38       0.000005560522
 39       0.000001340054
 40      -0.000029149956
 41       0.000000618153
 42       0.000003349222
 43       0.000006071657
 44       0.000003068086
 45      -0.000045448179
 46       0.000157334102
 47       0.000013695013
 48       0.000020798272
 49      -0.000007658793
 50      -0.000049614800
 51      -0.000116124004
 52       0.000039506018
 53      -0.000003929501
 54      -0.000004079324
 55      -0.000000146919
 56       0.000002297057
 57       0.000001754145
 58      -0.000099041585
 59       0.000109770089
 60       0.000013091107
 61       0.000005072847
 62      -0.000011040995
 63       0.000047986846
 64      -0.000100545839
 65       0.000008885129
 66       0.000018601378
 67      -0.000007829412
 68       0.000001985811
 69      -0.000148431211
 70       0.000021781617
 71      -0.000002157023
 72      -0.000021496132
 73       0.000001327767
 74      -0.000003792385
 75       0.000004535517
 76      -0.000031003345
 77       0.000099202150
 78       0.677793934370
 79       0.225152179505
 80      -0.686680581556
 81       0.016189644302
 82       0.005379762230
 83      -0.016399027161
 84      -0.003914706244
 85      -0.001309043280
 86       0.003953835421
 87       0.001445619758
 88       0.000526289988
 89      -0.001417087212
 90      -0.000021801120
 91       0.000007423228
 92      -0.000017298702
 93      -0.000002924987
 94       0.000024318385
 95       0.000007057515
 96      -0.000004073480
 97       0.000001901939
 98       0.000004089036
 99      -0.000009004900
100      -0.000001417419
101       0.000003730412
102       0.000008451612
103      -0.000008060120
104       0.000004128903
 Sym=     1a
 Ene= -5.62814055726723E+01
 Spin= Alpha
 Occup= 1.000000
  1       0.000007744987
  2      -0.000087101265
  3       0.000377344098
  4       0.000018724713
  5       0.000026011150
  6       0.000017906526
  7      -0.000217380746
  8      -0.000131627761
  9      -0.000118087322
 10       0.000008293872
 11       0.000006979153
 12      -0.000004665048
 13       0.000011110637
 14       0.000009431067
 15       0.000000564648
 16       0.000005534538
 17      -0.000096066587
 18      -0.000000623573
 19       0.000003805537
 20       0.000003277223
 21       0.000103941421
 22       0.000037957461
 23       0.000031855882
 24      -0.000003746540
 25      -0.000003207461
 26      -0.000006781142
 27      -0.000003843517
 28       0.000002616888
 29      -0.000001087659
 30       0.000025399586
 31       0.000003206101
 32       0.000015641853
 33       0.000018191569
 34      -0.000009375748
 35      -0.000028856528
 36      -0.000001002215
 37      -0.000002107021
 38      -0.000003002908
 39       0.000012431150
 40       0.000067505136
 41       0.000001462082
 42      -0.000001632274
 43      -0.000005692686
 44      -0.000003442585
 45       0.000067259374
 46      -0.000482731927
 47      -0.000021326106
 48      -0.000030247385
 49      -0.000033797237
 50      -0.000035009628
 51       0.000215394298
 52       0.000070237563
 53      -0.000004785038
 54       0.000006865852
 55       0.000002962704
 56       0.000003454673
 57       0.000000785670
 58       0.000060233321
 59      -0.000012256319
 60      -0.000009080296
 61      -0.000014167290
 62      -0.000014995327
 63       0.000093272446
 64      -0.000081156653
 65      -0.000007445980
 66      -0.000007795757
 67      -0.000015474247
 68      -0.000010509671
 69       0.000356933158
 70      -0.000024612504
 71       0.000048390041
 72      -0.000001815831
 73      -0.000004225646
 74       0.000012173180
 75      -0.000013396871
 76       0.000077230996
 77      -0.000232964721
 78      -0.698361341083
 79       0.446109937572
 80      -0.543051471707
 81      -0.016683140145
 82       0.010647112559
 83      -0.012975134741
 84       0.004042066030
 85      -0.002543360806
 86       0.003151889378
 87      -0.001511574794
 88       0.000821415517
 89      -0.001216114004
 90      -0.000016059314
 91      -0.000017792517
 92      -0.000012089626
 93      -0.000018326249
 94      -0.000020537342
 95       0.000003352868
 96       0.000008007453
 97       0.000011159397
 98       0.000000345270
 99       0.000010193590
100       0.000003303313
101      -0.000004705627
102      -0.000015020116
103       0.000011253803
104      -0.000007379025
 Sym=     1a
 Ene= -1.02141992264115E+01
 Spin= Alpha
 Occup= 1.000000
  1       0.134247026271
  2       0.003763994875
  3       0.003876792324
  4       0.001897470675
  5      -0.000688499423
  6       0.001143895129
  7       0.000744252051
  8       0.001220196729
  9      -0.004077540971
 10       0.000135728000
 11      -0.001085272527
 12       0.000340913879
 13      -0.000984696716
 14       0.000445527399
 15       0.026255561422
 16       0.000524965044
 17       0.003982383153
 18       0.000261920806
 19      -0.000106700406
 20       0.000181737292
 21      -0.004805890543
 22       0.000508480286
 23      -0.002115189556
 24       0.000043962250
 25       0.000049654519
 26      -0.000071701030
 27       0.000213390113
 28       0.000044834687
 29      -0.000880584981
 30      -0.000598085620
 31      -0.000201552454
 32       0.000036959564
 33      -0.000297913648
 34       0.000687790053
 35       0.001974115323
 36       0.000032393589
 37       0.000001047167
 38      -0.000060479798
 39      -0.000982766392
 40      -0.001709566210
 41      -0.000030287227
 42      -0.000070112066
 43       0.000108364323
 44       0.978418954954
 45       0.051238455898
 46      -0.042220176137
 47      -0.000726314256
 48      -0.000766286176
 49      -0.000742356261
 50      -0.001909967018
 51       0.005013364102
 52       0.001676476383
 53       0.000807867432
 54      -0.000219090138
 55      -0.001368443746
 56       0.001427293952
 57       0.000139323967
 58      -0.003159772654
 59       0.007479111541
 60      -0.002389938374
 61      -0.000927178288
 62       0.001365328927
 63      -0.003162572378
 64       0.007799018981
 65       0.000279407908
 66       0.000842997137
 67      -0.002839556186
 68       0.000741803355
 69       0.013164938160
 70      -0.000055454064
 71       0.000206756355
 72       0.000142808426
 73      -0.000012807824
 74       0.000023527378
 75      -0.000220679320
 76       0.002247445231
 77      -0.008491061125
 78       0.000008954334
 79       0.000021192020
 80       0.000010188817
 81      -0.000031513155
 82      -0.000075978598
 83      -0.000036908265
 84       0.000193414081
 85       0.000555272013
 86       0.000290781323
 87      -0.001195183174
 88      -0.004393766395
 89      -0.002443401669
 90       0.000012673360
 91      -0.000017657831
 92      -0.000059002044
 93       0.000047340677
 94      -0.000032209254
 95      -0.000059537409
 96       0.000082174472
 97       0.000278384824
 98      -0.000223799851
 99       0.000149650222
100       0.000187758286
101      -0.000245524051
102      -0.000878627084
103       0.000713890583
104      -0.000444543694
 Sym=     1a
 Ene= -1.02127437583516E+01
 Spin= Alpha
 Occup= 1.000000
  1      -0.688770630628
  2      -0.031146109868
  3       0.024223371466
  4       0.000204244576
  5      -0.000465926421
  6       0.002042296839
  7      -0.002519149863
  8      -0.002400212609
  9       0.005876141279
 10       0.000438357966
 11       0.000025074124
 12       0.000161505290
 13      -0.001286855288
 14      -0.000213091360
 15      -0.700133152342
 16      -0.031486145059
 17       0.007907934418
 18      -0.000062292858
 19       0.000737749116
 20      -0.002032745772
 21       0.000477335414
 22      -0.001319664024
 23       0.003875104170
 24       0.000372002006
 25      -0.000082813716
 26       0.000180047526
 27      -0.001192245901
 28      -0.000165091347
 29       0.003428032312
 30      -0.003488206970
 31      -0.001811952949
 32      -0.000185561872
 33       0.000432502843
 34       0.003113416504
 35      -0.004395139848
 36      -0.001709237656
 37       0.000121552595
 38      -0.000701777975
 39       0.002955883488
 40      -0.004407363518
 41       0.001591604055
 42       0.000362091402
 43      -0.000696902904
 44       0.112640167140
 45       0.007293586433
 46      -0.007549461177
 47       0.001199256534
 48       0.000098310948
 49       0.001034156001
 50       0.001845664312
 51      -0.000167404062
 52      -0.005368828046
 53      -0.000046617620
 54       0.000600560199
 55      -0.000330331624
 56       0.000976555644
 57      -0.000047203202
 58      -0.000079730416
 59       0.003452220772
 60      -0.000589935833
 61       0.000011353801
 62       0.000116338436
 63      -0.001749927056
 64      -0.000107036234
 65      -0.000305152129
 66       0.000275059165
 67      -0.000487661777
 68       0.000423349016
 69      -0.006477415475
 70      -0.000117239662
 71       0.000262261460
 72       0.000128842374
 73       0.000007644156
 74      -0.000013974735
 75       0.000131913997
 76      -0.001323462616
 77       0.004533433594
 78       0.000002795472
 79      -0.000020526817
 80      -0.000004930317
 81      -0.000008851440
 82       0.000071671212
 83       0.000017921365
 84      -0.000011420509
 85      -0.000449102865
 86      -0.000164069547
 87       0.000508714972
 88       0.002569586546
 89       0.001314636652
 90      -0.000009251960
 91       0.000007024506
 92       0.000037135284
 93      -0.000032417613
 94       0.000016943475
 95       0.000044087192
 96      -0.000035769967
 97      -0.000178958175
 98       0.000155008658
 99      -0.000082918868
100      -0.000132623711
101       0.000127133349
102       0.000560460733
103      -0.000475811910
104       0.000265044658
 Sym=     1a
 Ene= -1.02123449869370E+01
 Spin= Alpha
 Occup= 1.000000
  1      -0.695832219953
  2      -0.036633528559
  3       0.037324507127
  4      -0.000348251972
  5       0.000605061344
  6      -0.001298472876
  7      -0.003034689690
  8      -0.000479793885
  9       0.000440042616
 10      -0.001499684860
 11      -0.000088472494
 12       0.001619924946
 13      -0.001563140083
 14      -0.000219874758
 15       0.696706246764
 16       0.037197818354
 17      -0.032339118864
 18      -0.000131492430
 19       0.000483084555
 20      -0.001301351017
 21       0.001974905479
 22      -0.000879843344
 23       0.002900678520
 24       0.001370289542
 25       0.000122384256
 26      -0.001586998147
 27       0.001567122218
 28       0.000217603684
 29       0.003075818882
 30      -0.005756519775
 31      -0.001867555539
 32      -0.000564553842
 33       0.001451954556
 34      -0.003521707592
 35       0.005202267689
 36       0.002110091497
 37      -0.000244152210
 38       0.001167466164
 39      -0.002920052412
 40       0.006263742414
 41      -0.001972253133
 42      -0.000586270152
 43       0.001287948032
 44       0.076177122026
 45       0.005752821648
 46      -0.012031888963
 47       0.001574196487
 48       0.000042437081
 49       0.000867944096
 50      -0.003602532247
 51      -0.001275216300
 52      -0.000767380276
 53       0.000078800319
 54       0.000759269302
 55      -0.000434440031
 56       0.001138582937
 57      -0.000110892154
 58      -0.001014920801
 59       0.000323763243
 60      -0.000612510570
 61       0.000012029191
 62       0.000114588152
 63      -0.000294706333
 64       0.001953815061
 65      -0.000072940639
 66       0.000219598079
 67      -0.000450036303
 68       0.000182284530
 69      -0.003656075652
 70      -0.000155476316
 71       0.000149280116
 72      -0.000125034406
 73       0.000004473439
 74      -0.000008217626
 75       0.000077074421
 76      -0.000745924901
 77       0.002553754158
 78       0.000004193450
 79      -0.000012898964
 80      -0.000002324850
 81      -0.000013836802
 82       0.000045107477
 83       0.000008715335
 84       0.000030310651
 85      -0.000266870490
 86      -0.000088384828
 87       0.000223636527
 88       0.001450657036
 89       0.000737183993
 90      -0.000004599253
 91       0.000002898853
 92       0.000021949841
 93      -0.000019933411
 94       0.000008923744
 95       0.000020653501
 96      -0.000015446613
 97      -0.000104026079
 98       0.000092074929
 99      -0.000043358217
100      -0.000057178051
101       0.000060127907
102       0.000313109551
103      -0.000261843334
104       0.000137142999
 Sym=     1a
 Ene= -8.66976201506196E+00
 Spin= Alpha
 Occup= 1.000000
  1      -0.000036328697
  2       0.000388515482
  3      -0.000493753683
  4      -0.000041972026
  5      -0.000084484529
  6      -0.000039407776
  7      -0.000253412483
  8       0.000372101165
  9      -0.000649257797
 10       0.000007641631
 11      -0.000008118642
 12       0.000001960292
 13       0.000006008751
 14       0.000028218076
 15      -0.000008070553
 16       0.000028128981
 17       0.000860873633
 18       0.000002267963
 19      -0.000016752912
 20      -0.000012364474
 21      -0.000074164202
 22       0.000143919753
 23      -0.000463432834
 24       0.000007712840
 25       0.000001932011
 26       0.000004015912
 27       0.000022887661
 28       0.000004516982
 29       0.000040461776
 30       0.000033928806
 31       0.000009265466
 32      -0.000025564694
 33      -0.000000012265
 34      -0.000001470751
 35       0.000057271406
 36      -0.000008183452
 37      -0.000007571105
 38       0.000011436434
 39       0.000000343731
 40      -0.000032421874
 41       0.000003885862
 42      -0.000005353797
 43       0.000012834362
 44      -0.000046223095
 45       0.000755298564
 46      -0.003227002427
 47       0.000041905761
 48      -0.000099162987
 49      -0.000022697058
 50      -0.000328402492
 51       0.001098483763
 52       0.000534896442
 53       0.000009987803
 54      -0.000013198662
 55      -0.000043562989
 56       0.000030315233
 57      -0.000011883874
 58       0.000112824715
 59       0.000244649448
 60       0.000023057835
 61      -0.000021534109
 62       0.000007724400
 63       0.000189241556
 64       0.000346520884
 65       0.000031188357
 66      -0.000005865800
 67       0.000012073940
 68      -0.001060649873
 69       0.005871017366
 70       0.000147110154
 71       0.000748654059
 72       0.000407463977
 73       0.136660098454
 74      -0.516878256659
 75       1.093416644019
 76       0.032218074567
 77      -0.013927608943
 78      -0.000367995548
 79      -0.001512035481
 80      -0.000841479108
 81       0.000865615038
 82       0.003563910605
 83       0.001982283370
 84       0.000310377402
 85       0.001186492830
 86       0.000672842848
 87      -0.000617140134
 88      -0.002367798404
 89      -0.001342626382
 90      -0.000171618714
 91       0.000176654060
 92       0.000739685779
 93      -0.000626190864
 94       0.000319402232
 95      -0.000133826270
 96       0.000150367725
 97       0.000594622053
 98      -0.000496004971
 99       0.000260741407
100       0.000015668499
101      -0.000025804239
102      -0.000082039844
103       0.000063919574
104      -0.000038825202
 Sym=     1a
 Ene= -6.50258033957981E+00
 Spin= Alpha
 Occup= 1.000000
  1      -0.000018957848
  2       0.000230979014
  3      -0.000332537336
  4      -0.000025942405
  5      -0.000048980678
  6      -0.000023403102
  7      -0.000098722960
  8       0.000217010956
  9      -0.000337300183
 10       0.000003779878
 11      -0.000004925731
 12       0.000000421031
 13       0.000003109843
 14       0.000014847967
 15      -0.000004516529