[Molden Format]
[Title]
 Molden file created by orca_2mkl for BaseName=radical_004

[Atoms] AU
C    1   6          1.2139884143         0.8117337506         0.3603858915 
C    2   6          1.3192442703         0.1202149280         2.8042364197 
H    3   1          2.9759388260         1.2847718861        -0.6251081770 
H    4   1          3.1132897906         0.0495977521         3.8303085776 
H    5   1         -0.3843854134        -0.4230284232         3.8450030880 
C    6   6         -1.1178278103         0.8299696077        -1.1680472823 
H    7   1         -2.8758135765         0.9324324485        -0.0652730304 
H    8   1         -1.1267133026         2.1996941322        -2.7331619301 
H    9   1         -1.2345372963        -1.1012964861        -2.2000853055 
Br  10  35         -1.8659382613        -4.3685384853        -3.8862520300 
[GTO]
  1 0
s   5 1.0 
     1238.4016938000         0.8208956682
      186.2900499200         1.4766449896
       42.2511763460         2.1526124058
       11.6765579320         2.1081722461
        3.5930506482         0.8290999933
s   1 1.0 
        0.4024514736         0.3601183351
s   1 1.0 
        0.1309018267         0.1551027052
p   3 1.0 
        9.4680970621         1.3467645142
        2.0103545142         1.0678070931
        0.5477100471         0.5108735714
p   1 1.0 
        0.1526861379         0.1360471976
d   1 1.0 
        0.8000000000         1.9292013661

  2 0
s   5 1.0 
     1238.4016938000         0.8208956682
      186.2900499200         1.4766449896
       42.2511763460         2.1526124058
       11.6765579320         2.1081722461
        3.5930506482         0.8290999933
s   1 1.0 
        0.4024514736         0.3601183351
s   1 1.0 
        0.1309018267         0.1551027052
p   3 1.0 
        9.4680970621         1.3467645142
        2.0103545142         1.0678070931
        0.5477100471         0.5108735714
p   1 1.0 
        0.1526861379         0.1360471976
d   1 1.0 
        0.8000000000         1.9292013661

  3 0
s   3 1.0 
       13.0107010000         0.1634903809
        1.9622572000         0.2773515510
        0.4445379600         0.3157501452
s   1 1.0 
        0.1219496200         0.1470772262
p   1 1.0 
        0.8000000000         1.0784563492

  4 0
s   3 1.0 
       13.0107010000         0.1634903809
        1.9622572000         0.2773515510
        0.4445379600         0.3157501452
s   1 1.0 
        0.1219496200         0.1470772262
p   1 1.0 
        0.8000000000         1.0784563492

  5 0
s   3 1.0 
       13.0107010000         0.1634903809
        1.9622572000         0.2773515510
        0.4445379600         0.3157501452
s   1 1.0 
        0.1219496200         0.1470772262
p   1 1.0 
        0.8000000000         1.0784563492

  6 0
s   5 1.0 
     1238.4016938000         0.8208956682
      186.2900499200         1.4766449896
       42.2511763460         2.1526124058
       11.6765579320         2.1081722461
        3.5930506482         0.8290999933
s   1 1.0 
        0.4024514736         0.3601183351
s   1 1.0 
        0.1309018267         0.1551027052
p   3 1.0 
        9.4680970621         1.3467645142
        2.0103545142         1.0678070931
        0.5477100471         0.5108735714
p   1 1.0 
        0.1526861379         0.1360471976
d   1 1.0 
        0.8000000000         1.9292013661

  7 0
s   3 1.0 
       13.0107010000         0.1634903809
        1.9622572000         0.2773515510
        0.4445379600         0.3157501452
s   1 1.0 
        0.1219496200         0.1470772262
p   1 1.0 
        0.8000000000         1.0784563492

  8 0
s   3 1.0 
       13.0107010000         0.1634903809
        1.9622572000         0.2773515510
        0.4445379600         0.3157501452
s   1 1.0 
        0.1219496200         0.1470772262
p   1 1.0 
        0.8000000000         1.0784563492

  9 0
s   3 1.0 
       13.0107010000         0.1634903809
        1.9622572000         0.2773515510
        0.4445379600         0.3157501452
s   1 1.0 
        0.1219496200         0.1470772262
p   1 1.0 
        0.8000000000         1.0784563492

 10 0
s   6 1.0 
   113286.3877600000         7.5076141183
    17009.6263030000        13.8835270484
     3870.1842567000        22.7307285566
     1093.0357227000        30.8227297499
      356.3972179700        27.2481937511
      123.1253964300         9.6953381145
s   3 1.0 
      236.7408400700        -4.7631125758
       28.4686610700         5.6113863182
       11.8834437220         1.9900291396
s   3 1.0 
       21.2696333120        -1.5429794477
        3.6129226841         1.3310800628
        1.6626648969         0.4300130345
s   1 1.0 
        0.3482379323         0.3230852630
s   1 1.0 
        0.1301903139         0.1544699827
p   5 1.0 
     1560.2801881000       115.0180051576
      368.4785920500       143.9035925417
      117.2297884900       137.5255986684
       42.6489092480        78.9578527439
       16.0872250960        15.8580577654
p   3 1.0 
        8.6352810058         6.8437546680
        3.5613665502         3.7974971038
        1.5292626609         0.5585414278
p   1 1.0 
        0.5306429485         0.6455696201
p   1 1.0 
        0.1570275896         0.1408996918
d   4 1.0 
      104.8551864200       261.4493931636
       30.2811436880       176.6993802449
       10.6513942670        76.9545600188
        3.8699456233        17.5937671387
d   1 1.0 
        1.3240876762         4.6593398042
d   1 1.0 
        0.3890000000         0.5462379705

[5D]
[7F]
[9G]
[MO]
 Sym=     1a
 Ene= -4.82766784507859E+02
 Spin= Alpha
 Occup= 1.000000
  1      -0.000005729185
  2       0.000078659237
  3      -0.000223584992
  4      -0.000008852999
  5      -0.000015309058
  6      -0.000005613918
  7       0.000014482935
  8       0.000065516721
  9      -0.000139359903
 10       0.000001597719
 11      -0.000001998804
 12      -0.000000973070
 13       0.000000975365
 14       0.000005673492
 15      -0.000001400023
 16       0.000008489621
 17       0.000215182877
 18      -0.000000176539
 19      -0.000003007935
 20      -0.000002789087
 21      -0.000020581752
 22       0.000027387534
 23      -0.000102764870
 24       0.000000107491
 25       0.000002110476
 26       0.000001396772
 27       0.000004391570
 28       0.000000904302
 29       0.000003148325
 30      -0.000005863984
 31       0.000001895527
 32      -0.000002259810
 33      -0.000000881145
 34      -0.000001284844
 35       0.000007958689
 36      -0.000000966108
 37      -0.000002048660
 38       0.000003386101
 39      -0.000000154335
 40      -0.000009406898
 41       0.000000703886
 42      -0.000000339707
 43       0.000001802431
 44      -0.000008175239
 45       0.000155511031
 46      -0.001062302792
 47       0.000008966087
 48      -0.000013836654
 49      -0.000007126251
 50      -0.000039446190
 51       0.000382888165
 52       0.000264221271
 53       0.000003901241
 54      -0.000005262974
 55      -0.000012419993
 56       0.000013175873
 57      -0.000005291950
 58       0.000010240817
 59      -0.000007435105
 60      -0.000006042986
 61      -0.000003440846
 62       0.000003306669
 63       0.000044065164
 64       0.000033310885
 65       0.000005930246
 66      -0.000001305775
 67      -0.000007431028
 68      -0.000007051905
 69       0.001471914230
 70      -0.000007781921
 71      -0.000003838164
 72      -0.000002342018
 73       0.994982749132
 74       0.015687146670
 75      -0.003907519185
 76       0.002334857334
 77      -0.001684783658
 78       0.000001691147
 79       0.000007468245
 80       0.000003773901
 81      -0.000005768538
 82      -0.000025103337
 83      -0.000012724550
 84       0.000027952171
 85       0.000123672091
 86       0.000062919169
 87      -0.000092832218
 88      -0.000437430034
 89      -0.000224246652
 90       0.000003255116
 91      -0.000002416546
 92      -0.000011192304
 93       0.000010388332
 94      -0.000004810207
 95      -0.000012586898
 96       0.000009292885
 97       0.000043287397
 98      -0.000040206036
 99       0.000018471723
100       0.000030187829
101      -0.000022137526
102      -0.000104300491
103       0.000096900753
104      -0.000043741195
 Sym=     1a
 Ene= -6.24497089400377E+01
 Spin= Alpha
 Occup= 1.000000
  1      -0.000013667196
  2       0.000189805331
  3      -0.000529738419
  4      -0.000021255735
  5      -0.000036692077
  6      -0.000013582712
  7       0.000029019315
  8       0.000157815846
  9      -0.000338755111
 10       0.000004035114
 11      -0.000004619607
 12      -0.000002502538
 13       0.000002584224
 14       0.000013603354
 15      -0.000003365799
 16       0.000020954016
 17       0.000517103945
 18      -0.000000614933
 19      -0.000007254790
 20      -0.000006782929
 21      -0.000046651761
 22       0.000066586641
 23      -0.000247391294
 24       0.000000259107
 25       0.000005032384
 26       0.000003298403
 27       0.000010397834
 28       0.000002124210
 29       0.000008229730
 30      -0.000014381736
 31       0.000004641342
 32      -0.000005235427
 33      -0.000001883863
 34      -0.000003401843
 35       0.000018571899
 36      -0.000002317689
 37      -0.000004876376
 38       0.000007979124
 39       0.000000318200
 40      -0.000021472155
 41       0.000001665303
 42      -0.000000763757
 43       0.000004176827
 44      -0.000018775048
 45       0.000372116385
 46      -0.002613207260
 47       0.000022101331
 48      -0.000027759799
 49      -0.000014468787
 50      -0.000100623230
 51       0.000938601111
 52       0.000643604030
 53       0.000010125893
 54      -0.000012888955
 55      -0.000033351508
 56       0.000034685702
 57      -0.000012523518
 58       0.000023891326
 59      -0.000016762304
 60      -0.000014344382
 61      -0.000008143975
 62       0.000008320443
 63       0.000106308789
 64       0.000081989764
 65       0.000014752563
 66      -0.000002812495
 67      -0.000017789662
 68      -0.000016012711
 69       0.003624252827
 70      -0.000016786235
 71       0.000003462117
 72       0.000000994891
 73       0.347189621576
 74      -1.046963762618
 75      -0.018551644411
 76       0.006316762590
 77      -0.004291489544
 78      -0.000010707966
 79      -0.000083437797
 80      -0.000038852548
 81      -0.000015447258
 82      -0.000069820833
 83      -0.000035108326
 84       0.000069076033
 85       0.000306680035
 86       0.000155879861
 87      -0.000228434860
 88      -0.001077293483
 89      -0.000552150511
 90       0.000022185699
 91      -0.000011574724
 92      -0.000070689720
 93       0.000069150210
 94      -0.000023550290
 95      -0.000034996201
 96       0.000024031304
 97       0.000118182271
 98      -0.000111095615
 99       0.000048111769
100       0.000074710369
101      -0.000054142334
102      -0.000257180484
103       0.000239427469
104      -0.000107281717
 Sym=     1a
 Ene= -5.62832119800922E+01
 Spin= Alpha
 Occup= 1.000000
  1       0.000015939092
  2      -0.000233776574
  3       0.000673613600
  4       0.000025066796
  5       0.000043738894
  6       0.000015880713
  7      -0.000089308411
  8      -0.000214390658
  9       0.000321042769
 10      -0.000003610350
 11       0.000007024238
 12       0.000007749284
 13      -0.000003530194
 14      -0.000009654998
 15       0.000004671807
 16      -0.000034131033
 17      -0.000546457950
 18       0.000002588071
 19       0.000010744434
 20       0.000010656047
 21       0.000051551824
 22      -0.000063426361
 23       0.000251789667
 24       0.000001075463
 25      -0.000007850194
 26      -0.000006211640
 27      -0.000011604521
 28      -0.000000256479
 29      -0.000013998314
 30       0.000025817314
 31      -0.000004318089
 32       0.000007898649
 33       0.000007528966
 34       0.000006512996
 35      -0.000017524319
 36       0.000000456434
 37       0.000005610339
 38      -0.000008863244
 39      -0.000005338160
 40       0.000030819706
 41       0.000000006949
 42      -0.000000431163
 43      -0.000002387054
 44       0.000013722245
 45      -0.000343021059
 46       0.002879042200
 47      -0.000028866479
 48      -0.000001850529
 49       0.000000764462
 50       0.000109042471
 51      -0.001066850051
 52      -0.000766646945
 53      -0.000013761117
 54       0.000017296652
 55       0.000048400892
 56      -0.000050890081
 57       0.000013876224
 58      -0.000003183779
 59       0.000071671816
 60       0.000017757939
 61      -0.000005953763
 62      -0.000018307613
 63      -0.000108915736
 64      -0.000054255782
 65      -0.000020001611
 66      -0.000012282479
 67       0.000013229115
 68      -0.000080392747
 69      -0.004492027272
 70       0.000026035623
 71       0.000007153915
 72       0.000006573300
 73       0.000050468809
 74      -0.000144874650
 75       0.000160357446
 76      -0.001035464510
 77       0.002175615570
 78       0.119861747758
 79       0.883884943008
 80       0.431182086568
 81       0.002887477739
 82       0.021238333075
 83       0.010362181322
 84      -0.000786754018
 85      -0.005544409383
 86      -0.002713852937
 87       0.000553836176
 88       0.003314952535
 89       0.001653195684
 90      -0.000012975314
 91       0.000008668752
 92       0.000043782406
 93      -0.000041360116
 94       0.000017428889
 95       0.000043009532
 96      -0.000030570208
 97      -0.000148572586
 98       0.000138633074
 99      -0.000061103680
100      -0.000101530741
101       0.000072741420
102       0.000353059026
103      -0.000328714479
104       0.000144190542
 Sym=     1a
 Ene= -5.62790099974747E+01
 Spin= Alpha
 Occup= 1.000000
  1      -0.000006137252
  2       0.000056078060
  3      -0.000183696451
  4      -0.000013088240
  5      -0.000023453928
  6      -0.000003421265
  7      -0.000001200198
  8       0.000198118790
  9      -0.000287959982
 10      -0.000006653201
 11       0.000002210965
 12       0.000002851379
 13      -0.000002312823
 14      -0.000010549526
 15      -0.000001295430
 16       0.000008279751
 17       0.000382690592
 18      -0.000004923629
 19       0.000002701840
 20      -0.000005425565
 21       0.000016176803
 22       0.000002578496
 23      -0.000165084451
 24       0.000003828618
 25       0.000002903251
 26       0.000004003317
 27       0.000004928563
 28      -0.000001139904
 29      -0.000016140046
 30      -0.000057952371
 31       0.000008411521
 32      -0.000017497965
 33       0.000001626060
 34      -0.000011247901
 35      -0.000020636776
 36      -0.000001231379
 37       0.000002391382
 38       0.000008059954
 39       0.000001443055
 40      -0.000017380142
 41       0.000002657485
 42       0.000003366768
 43       0.000007999843
 44       0.000003425549
 45      -0.000072628826
 46       0.000400673564
 47       0.000041377112
 48       0.000023804676
 49       0.000008690451
 50      -0.000304249441
 51      -0.000333523784
 52      -0.000059800410
 53      -0.000001476793
 54      -0.000025211345
 55       0.000016462428
 56      -0.000005122806
 57      -0.000017896235
 58      -0.000122304168
 59      -0.000028229378
 60       0.000011234822
 61       0.000016781406
 62       0.000017441225
 63       0.000015373520
 64       0.000039947930
 65       0.000031597333
 66       0.000005953486
 67       0.000010722518
 68      -0.000024944719
 69      -0.000626413469
 70      -0.000052176215
 71       0.000001558976
 72       0.000002109607
 73       0.000001279189
 74      -0.000003148841
 75       0.000013003766
 76      -0.000095289274
 77       0.000236997498
 78       0.978362689234
 79      -0.062854954787
 80      -0.143131579276
 81       0.023365983243
 82      -0.001494787967
 83      -0.003414804926
 84      -0.005664345659
 85       0.000330440910
 86       0.000810378925
 87       0.002123125098
 88       0.000011904450
 89      -0.000231044156
 90      -0.000002281782
 91       0.000005315759
 92       0.000001217983
 93      -0.000000730892
 94       0.000011244747
 95       0.000005549429
 96      -0.000008763571
 97      -0.000009662354
 98       0.000008670755
 99      -0.000017435864
100      -0.000012676567
101       0.000016624973
102       0.000028066333
103      -0.000025754173
104       0.000032408689
 Sym=     1a
 Ene= -5.62789986678912E+01
 Spin= Alpha
 Occup= 1.000000
  1       0.000006087826
  2      -0.000050377919
  3      -0.000077848573
  4       0.000008953112
  5       0.000016156118
  6       0.000024825759
  7       0.000103589170
  8       0.000018100800
  9      -0.000210211214
 10       0.000005393330
 11      -0.000001746099
 12      -0.000002586846
 13      -0.000001551165
 14       0.000000488236
 15      -0.000001423857
 16       0.000028370906
 17       0.000153005997
 18      -0.000009014084
 19       0.000007492593
 20      -0.000007307180
 21       0.000065999374
 22       0.000023286501
 23      -0.000015495304
 24      -0.000004203422
 25       0.000003608316
 26      -0.000001815414
 27      -0.000002744227
 28      -0.000002582727
 29      -0.000035195605
 30      -0.000083638417
 31       0.000005532100
 32       0.000007482232
 33       0.000007176166
 34      -0.000017946409
 35      -0.000054313367
 36       0.000003901238
 37      -0.000000391017
 38       0.000003701187
 39       0.000009693566
 40       0.000008432893
 41       0.000000827249
 42       0.000001389843
 43      -0.000001481365
 44       0.000003043673
 45      -0.000027230845
 46      -0.000026962594
 47      -0.000008441951
 48       0.000016343644
 49      -0.000043725486
 50      -0.000036132684
 51      -0.000091688904
 52       0.000354807688
 53       0.000006458945
 54      -0.000001958938
 55       0.000028086020
 56       0.000028881164
 57       0.000001456713
 58      -0.000073718525
 59      -0.000052083372
 60      -0.000019890364
 61       0.000014731210
 62      -0.000024427703
 63       0.000124214442
 64       0.000072660984
 65      -0.000002690387
 66      -0.000016818017
 67       0.000000444705
 68       0.000013512288
 69       0.000100496102
 70       0.000007229379
 71      -0.000024575694
 72       0.000046907305
 73       0.000000217021
 74      -0.000000859856
 75      -0.000003585132
 76       0.000022359411
 77      -0.000046215395
 78      -0.100340218857
 79       0.443119324770
 80      -0.880459532419
 81      -0.002396715303
 82       0.010579950773
 83      -0.021026435138
 84       0.000582201224
 85      -0.002551311687
 86       0.005092255688
 87      -0.000220361586
 88       0.000915161565
 89      -0.001893102934
 90      -0.000007117379
 91      -0.000001962026
 92      -0.000007385528
 93      -0.000003906079
 94      -0.000000536352
 95       0.000007998350
 96       0.000002826827
 97       0.000010464882
 98       0.000002752316
 99       0.000001132303
100      -0.000011603406
101      -0.000004789438
102      -0.000018242141
103      -0.000001825601
104      -0.000002549084
 Sym=     1a
 Ene= -1.02176570189515E+01
 Spin= Alpha
 Occup= 1.000000
  1       0.093133207800
  2       0.003343949727
  3       0.001770454911
  4       0.001321642982
  5      -0.000353879207
  6       0.000939068818
  7       0.000661934749
  8       0.001640556637
  9      -0.005324672930
 10       0.000074271681
 11      -0.001322821843
 12       0.000059346784
 13      -0.000939539150
 14       0.000150492465
 15       0.007036153206
 16      -0.000357199947
 17       0.006541961101
 18       0.000270728637
 19      -0.000048313409
 20       0.000165125355
 21      -0.004682724858
 22       0.000260250951
 23      -0.003325441146
 24       0.000076844015
 25      -0.000047135340
 26      -0.000066915425
 27       0.000211500764
 28       0.000124927455
 29      -0.000874894279
 30      -0.000796747925
 31      -0.000072914452
 32      -0.000025267734
 33      -0.000250413446
 34       0.000753533055
 35       0.001836255147
 36      -0.000064047363
 37       0.000004927155
 38      -0.000033686185
 39      -0.000905026554
 40      -0.001822075280
 41      -0.000004791501
 42      -0.000063381861
 43       0.000122182273
 44       0.983334964774
 45       0.053356098574
 46      -0.054796147900
 47      -0.000796668058
 48      -0.000745981635
 49      -0.000904517576
 50      -0.001897799381
 51       0.006505315965
 52       0.003259641755
 53       0.000236858050
 54      -0.000554741020
 55      -0.000472750445
 56      -0.000001854533
 57      -0.000123114644
 58      -0.002798106335
 59       0.007373393289
 60      -0.002206785109
 61      -0.000073519375
 62       0.001620370958
 63      -0.002637347992
 64       0.008025388552
 65       0.000257903163
 66       0.001711319959
 67      -0.002181307181
 68      -0.002361838470
 69       0.024069795552
 70       0.000052899103
 71      -0.002266874471
 72      -0.000989565427
 73      -0.000011449439
 74       0.000020593620
 75      -0.000198828124
 76       0.002120427213
 77      -0.006967773458
 78       0.000004931839
 79       0.000017378170
 80       0.000002886435
 81      -0.000017845650
 82      -0.000063289439
 83      -0.000011885458
 84       0.000133715322
 85       0.000509921546
 86       0.000171580831
 87      -0.000880369065
 88      -0.004021823655
 89      -0.001903146280
 90       0.000021249165
 91      -0.000013689766
 92      -0.000050370306
 93       0.000051234065
 94      -0.000030560834
 95      -0.000098886800
 96       0.000063909006
 97       0.000238568975
 98      -0.000241667114
 99       0.000141924596
100       0.000288415505
101      -0.000189299315
102      -0.000763061643
103       0.000756566218
104      -0.000408514945
 Sym=     1a
 Ene= -1.02166613055121E+01
 Spin= Alpha
 Occup= 1.000000
  1       0.982373787850
  2       0.047506597535
  3      -0.042143294218
  4       0.000461945808
  5      -0.000249002751
  6      -0.000352639197
  7       0.004400962632
  8       0.002000987349
  9      -0.004281293115
 10       0.001023063057
 11      -0.000251166459
 12      -0.000951894871
 13       0.001649075143
 14       0.000706073023
 15       0.054237738881
 16      -0.002122143717
 17       0.016440999741
 18       0.000142417212
 19      -0.000783257368
 20       0.002619886822
 21      -0.002438575008
 22       0.001095979337
 23      -0.004859256854
 24      -0.001054370487
 25      -0.000043384177
 26       0.000705695672
 27      -0.000279574974
 28      -0.000083192622
 29      -0.004671945679
 30       0.006266930865
 31       0.002553701964
 32       0.000598714551
 33      -0.001324443885
 34       0.000295572192
 35      -0.000000822362
 36      -0.000174461031
 37       0.000081894191
 38      -0.000382863391
 39      -0.000297393770
 40      -0.001386883062
 41       0.000134597125
 42       0.000139397249
 43      -0.000426563910
 44      -0.092697140831
 45      -0.005478389305
 46       0.004715378412
 47      -0.001597652022
 48      -0.000337859898
 49      -0.001239070252
 50       0.001310103356
 51       0.004107162228
 52       0.005755415537
 53       0.000175784043
 54      -0.001196196939
 55      -0.000064440737
 56      -0.001023545648
 57      -0.000104328395
 58       0.000292842270
 59      -0.001750788777
 60       0.000505184092
 61      -0.000192977922
 62      -0.000024453532
 63       0.000842768666
 64      -0.000396242120
 65       0.000301781123
 66      -0.000434469535
 67       0.000156609338
 68       0.000359432366
 69       0.011207796239
 70       0.000528072963
 71       0.000449086199
 72       0.000476792097
 73      -0.000008251840
 74       0.000015249030
 75      -0.000141827558
 76       0.001409341220
 77      -0.004055104632
 78      -0.000007598634
 79       0.000023317456
 80       0.000002164671
 81       0.000025357535
 82      -0.000081298247
 83      -0.000008470961
 84      -0.000072388460
 85       0.000488776776
 86       0.000116125018
 87      -0.000248436558
 88      -0.002608103106
 89      -0.001135877621
 90       0.000012153756
 91       0.000000382529
 92      -0.000035338315
 93       0.000038850028
 94      -0.000011352362
 95      -0.000057188798
 96       0.000001054815
 97       0.000169140583
 98      -0.000183504835
 99       0.000055167482
100       0.000171732534
101      -0.000038914382
102      -0.000543123165
103       0.000559319333
104      -0.000187756132
 Sym=     1a
 Ene= -1.02108327342710E+01
 Spin= Alpha
 Occup= 1.000000
  1      -0.053739424048
  2      -0.006898579865
  3       0.011863565762
  4      -0.000395311459
  5       0.000713597735
  6      -0.002669479624
  7      -0.000679657452
  8       0.000367647148
  9      -0.002051885239
 10      -0.001334650292
 11       0.000000586936
 12       0.000865777546
 13      -0.000406525898
 14      -0.000135754513
 15       0.986629172155
 16       0.048475995927
 17      -0.030468756307
 18      -0.000048029543
 19      -0.000137862425
 20       0.000302570577
 21       0.000941166551
 22       0.000234870218
 23       0.000125742099
 24       0.001111450634
 25       0.000205754473
 26      -0.001302000917
 27       0.002112345551
 28       0.000559368623
 29       0.000271163959
 30      -0.001584452456
 31      -0.000273272027
 32      -0.000266011158
 33       0.000832803246
 34      -0.004631256586
 35       0.006840866575
 36       0.002699726717
 37      -0.000087900025
 38       0.001407628119
 39      -0.004207647061
 40       0.007438286016
 41      -0.002561382632
 42      -0.000779565516
 43       0.001391242853
 44      -0.002010621259
 45       0.000269544145
 46      -0.004826268084
 47       0.000279258429
 48      -0.000003947271
 49       0.000005718435
 50      -0.002675991754
 51      -0.000169281392
 52       0.002139907204
 53       0.000196792563
 54       0.000199898003
 55      -0.000077255273
 56       0.000176331551
 57      -0.000068718571
 58      -0.000432808991
 59      -0.001121973987
 60       0.000004320910
 61       0.000098712011
 62       0.000050556378
 63       0.000626604674
 64       0.000932007222
 65       0.000062958246
 66      -0.000107284007
 67      -0.000152749627
 68      -0.000050724659
 69       0.002409889268
 70       0.000059311224
 71       0.000179506372
 72      -0.000211028481
 73      -0.000002522436
 74       0.000004858321
 75      -0.000042660413
 76       0.000347100405
 77      -0.000888061223
 78       0.000000305854
 79       0.000005954465
 80       0.000004673985
 81      -0.000001147080
 82      -0.000020624961
 83      -0.000016199120
 84       0.000011051697
 85       0.000112544657
 86       0.000086806597
 87      -0.000087470219
 88      -0.000528098010
 89      -0.000340082648
 90      -0.000000132592
 91      -0.000002080424
 92      -0.000011005629
 93       0.000005223119
 94      -0.000002041764
 95       0.000000288652
 96       0.000009700200
 97       0.000051108977
 98      -0.000025090606
 99       0.000009731065
100       0.000004899487
101      -0.000027781681
102      -0.000143940776
103       0.000082255522
104      -0.000031489194
 Sym=     1a
 Ene= -8.66788002320402E+00
 Spin= Alpha
 Occup= 1.000000
  1      -0.000034167510
  2       0.000413409644
  3      -0.001015265954
  4      -0.000044301948
  5      -0.000074650810
  6      -0.000028738574
  7      -0.000036825448
  8       0.000341944041
  9      -0.000797056752
 10       0.000011232695
 11      -0.000007752226
 12      -0.000007709014
 13       0.000008806327
 14       0.000028760231
 15      -0.000009784653
 16       0.000052942132
 17       0.001117297332
 18      -0.000003930055
 19      -0.000015263621
 20      -0.000015336453
 21      -0.000053005852
 22       0.000156208338
 23      -0.000541847806
 24       0.000000467025
 25       0.000009570236
 26       0.000005783343
 27       0.000020509827
 28       0.000004132366
 29       0.000024984791
 30      -0.000029690450
 31       0.000011386954
 32      -0.000008258602
 33       0.000001043836
 34      -0.000012345335
 35       0.000028631175
 36      -0.000005036215
 37      -0.000009877607
 38       0.000015456917
 39       0.000009594120
 40      -0.000024940099
 41       0.000003615400
 42      -0.000000924562
 43       0.000007450563
 44      -0.000033253801
 45       0.000768117841
 46      -0.006577635311
 47       0.000054672408
 48       0.000029445180
 49       0.000011745897
 50      -0.000307449234
 51       0.002296469573
 52       0.001515182548
 53       0.000033208141
 54      -0.000030645771
 55      -0.000126064016
 56       0.000122469708
 57      -0.000023943869
 58       0.000037853170
 59      -0.000008448439
 60      -0.000028169315
 61      -0.000015279483
 62       0.000022609752
 63       0.000233595233
 64       0.000216130630
 65       0.000038501897
 66      -0.000001851363
 67      -0.000036780486
 68      -0.000047582270
 69       0.009176924315
 70      -0.000002271094
 71       0.000227158011
 72       0.000116132493
 73       0.136666634023
 74      -0.516894416413
 75       1.093498032515
 76       0.032291525064
 77      -0.013769820655
 78      -0.000043584021
 79      -0.000305410830
 80      -0.000142734138
 81       0.000094272735
 82       0.000689849416
 83       0.000320437992
 84       0.000182454138
 85       0.000829611192
 86       0.000420326592
 87      -0.000573671130
 88      -0.002720578108
 89      -0.001393613203
 90      -0.000330820501
 91       0.000127498269
 92       0.000988449155
 93      -0.001007037626
 94       0.000265402112
 95      -0.000286472412
 96       0.000131412448
 97       0.000875800214
 98      -0.000876217633
 99       0.000270470434
100       0.000182655217
101      -0.000125859653
102      -0.000616278225
103       0.000579324817
104      -0.000251070954
 Sym=     1a
 Ene= -6.50497431995186E+00
 Spin= Alpha
 Occup= 1.000000
  1      -0.000018277538
  2       0.000255277256
  3      -0.000690609431
  4      -0.000027592666
  5      -0.000046662023
  6      -0.000018585679
  7       0.000076022457
  8       0.000236980359
  9      -0.000353124471
 10       0.000004560736
 11      -0.000006148544
 12      -0.000007771345
 13       0.000004323083
 14       0.000010158813
 15      -0.000005763557