[Molden Format]
[Title]
 Molden file created by orca_2mkl for BaseName=radical_013

[Atoms] AU
C    1   6          1.2013499259         0.8259161452         0.3464718380 
C    2   6          1.3136620193         0.0983205610         2.7997747763 
H    3   1          2.9632530944         1.2862912259        -0.6413182478 
H    4   1          3.1089528691         0.0088250210         3.8096746579 
H    5   1         -0.3925414714        -0.4299901742         3.8399197247 
C    6   6         -1.1122285517         0.8619173178        -1.1521868108 
H    7   1         -2.8927833172         0.8890386672        -0.0788261462 
H    8   1         -1.1237105277         2.1363164971        -2.7963638206 
H    9   1         -1.2365574135        -1.1839266510        -2.2123042747 
Br  10  35         -1.8121509864        -4.1571574994        -3.7528373650 
[GTO]
  1 0
s   5 1.0 
     1238.4016938000         0.8208956682
      186.2900499200         1.4766449896
       42.2511763460         2.1526124058
       11.6765579320         2.1081722461
        3.5930506482         0.8290999933
s   1 1.0 
        0.4024514736         0.3601183351
s   1 1.0 
        0.1309018267         0.1551027052
p   3 1.0 
        9.4680970621         1.3467645142
        2.0103545142         1.0678070931
        0.5477100471         0.5108735714
p   1 1.0 
        0.1526861379         0.1360471976
d   1 1.0 
        0.8000000000         1.9292013661

  2 0
s   5 1.0 
     1238.4016938000         0.8208956682
      186.2900499200         1.4766449896
       42.2511763460         2.1526124058
       11.6765579320         2.1081722461
        3.5930506482         0.8290999933
s   1 1.0 
        0.4024514736         0.3601183351
s   1 1.0 
        0.1309018267         0.1551027052
p   3 1.0 
        9.4680970621         1.3467645142
        2.0103545142         1.0678070931
        0.5477100471         0.5108735714
p   1 1.0 
        0.1526861379         0.1360471976
d   1 1.0 
        0.8000000000         1.9292013661

  3 0
s   3 1.0 
       13.0107010000         0.1634903809
        1.9622572000         0.2773515510
        0.4445379600         0.3157501452
s   1 1.0 
        0.1219496200         0.1470772262
p   1 1.0 
        0.8000000000         1.0784563492

  4 0
s   3 1.0 
       13.0107010000         0.1634903809
        1.9622572000         0.2773515510
        0.4445379600         0.3157501452
s   1 1.0 
        0.1219496200         0.1470772262
p   1 1.0 
        0.8000000000         1.0784563492

  5 0
s   3 1.0 
       13.0107010000         0.1634903809
        1.9622572000         0.2773515510
        0.4445379600         0.3157501452
s   1 1.0 
        0.1219496200         0.1470772262
p   1 1.0 
        0.8000000000         1.0784563492

  6 0
s   5 1.0 
     1238.4016938000         0.8208956682
      186.2900499200         1.4766449896
       42.2511763460         2.1526124058
       11.6765579320         2.1081722461
        3.5930506482         0.8290999933
s   1 1.0 
        0.4024514736         0.3601183351
s   1 1.0 
        0.1309018267         0.1551027052
p   3 1.0 
        9.4680970621         1.3467645142
        2.0103545142         1.0678070931
        0.5477100471         0.5108735714
p   1 1.0 
        0.1526861379         0.1360471976
d   1 1.0 
        0.8000000000         1.9292013661

  7 0
s   3 1.0 
       13.0107010000         0.1634903809
        1.9622572000         0.2773515510
        0.4445379600         0.3157501452
s   1 1.0 
        0.1219496200         0.1470772262
p   1 1.0 
        0.8000000000         1.0784563492

  8 0
s   3 1.0 
       13.0107010000         0.1634903809
        1.9622572000         0.2773515510
        0.4445379600         0.3157501452
s   1 1.0 
        0.1219496200         0.1470772262
p   1 1.0 
        0.8000000000         1.0784563492

  9 0
s   3 1.0 
       13.0107010000         0.1634903809
        1.9622572000         0.2773515510
        0.4445379600         0.3157501452
s   1 1.0 
        0.1219496200         0.1470772262
p   1 1.0 
        0.8000000000         1.0784563492

 10 0
s   6 1.0 
   113286.3877600000         7.5076141183
    17009.6263030000        13.8835270484
     3870.1842567000        22.7307285566
     1093.0357227000        30.8227297499
      356.3972179700        27.2481937511
      123.1253964300         9.6953381145
s   3 1.0 
      236.7408400700        -4.7631125758
       28.4686610700         5.6113863182
       11.8834437220         1.9900291396
s   3 1.0 
       21.2696333120        -1.5429794477
        3.6129226841         1.3310800628
        1.6626648969         0.4300130345
s   1 1.0 
        0.3482379323         0.3230852630
s   1 1.0 
        0.1301903139         0.1544699827
p   5 1.0 
     1560.2801881000       115.0180051576
      368.4785920500       143.9035925417
      117.2297884900       137.5255986684
       42.6489092480        78.9578527439
       16.0872250960        15.8580577654
p   3 1.0 
        8.6352810058         6.8437546680
        3.5613665502         3.7974971038
        1.5292626609         0.5585414278
p   1 1.0 
        0.5306429485         0.6455696201
p   1 1.0 
        0.1570275896         0.1408996918
d   4 1.0 
      104.8551864200       261.4493931636
       30.2811436880       176.6993802449
       10.6513942670        76.9545600188
        3.8699456233        17.5937671387
d   1 1.0 
        1.3240876762         4.6593398042
d   1 1.0 
        0.3890000000         0.5462379705

[5D]
[7F]
[9G]
[MO]
 Sym=     1a
 Ene= -4.82756251175746E+02
 Spin= Alpha
 Occup= 1.000000
  1      -0.000005756041
  2       0.000083767346
  3      -0.000213742581
  4      -0.000008433939
  5      -0.000015280623
  6      -0.000005482689
  7       0.000008000556
  8       0.000070130938
  9      -0.000131028276
 10       0.000001817023
 11      -0.000002984461
 12      -0.000002123537
 13       0.000001356942
 14       0.000004914014
 15      -0.000001598670
 16       0.000010806901
 17       0.000200419009
 18      -0.000000453963
 19      -0.000003473805
 20      -0.000003255778
 21      -0.000016425121
 22       0.000028765273
 23      -0.000096967495
 24      -0.000000016322
 25       0.000002263876
 26       0.000001357875
 27       0.000004850157
 28       0.000000589972
 29       0.000005357168
 30      -0.000003654387
 31       0.000001788206
 32      -0.000002330849
 33      -0.000001184111
 34      -0.000002108292
 35       0.000007505409
 36      -0.000000634422
 37      -0.000002304875
 38       0.000003238426
 39       0.000001191479
 40      -0.000007694325
 41       0.000000400936
 42      -0.000000202289
 43       0.000001372977
 44      -0.000005748322
 45       0.000143135323
 46      -0.001089936440
 47       0.000009246597
 48       0.000000785777
 49       0.000000808640
 50      -0.000044978921
 51       0.000401919120
 52       0.000260253340
 53       0.000006834782
 54      -0.000005505117
 55      -0.000022732399
 56       0.000022517387
 57      -0.000004219843
 58       0.000008214413
 59      -0.000005862470
 60      -0.000005238806
 61      -0.000000367458
 62       0.000005798602
 63       0.000040733330
 64       0.000031997757
 65       0.000006969009
 66       0.000003635306
 67      -0.000005082708
 68       0.000003168452
 69       0.001650926589
 70      -0.000003171651
 71       0.000027567498
 72       0.000013068073
 73       0.994982516928
 74       0.015687641139
 75      -0.003911573377
 76       0.002369242560
 77      -0.001856670761
 78       0.000001853951
 79       0.000008184791
 80       0.000004188232
 81      -0.000006222243
 82      -0.000026972114
 83      -0.000013844361
 84       0.000029895275
 85       0.000131347907
 86       0.000067601344
 87      -0.000110285711
 88      -0.000519422314
 89      -0.000268639692
 90       0.000003215035
 91      -0.000002479917
 92      -0.000011391058
 93       0.000010454350
 94      -0.000004915031
 95      -0.000012446352
 96       0.000009551503
 97       0.000044106443
 98      -0.000040508999
 99       0.000018911190
100       0.000030972560
101      -0.000023553285
102      -0.000110106298
103       0.000101231339
104      -0.000046336401
 Sym=     1a
 Ene= -6.24393684203600E+01
 Spin= Alpha
 Occup= 1.000000
  1       0.000013556806
  2      -0.000200061402
  3       0.000498817046
  4       0.000019951525
  5       0.000036222570
  6       0.000012967688
  7      -0.000011275182
  8      -0.000167655856
  9       0.000319049554
 10      -0.000004554670
 11       0.000007011954
 12       0.000005171272
 13      -0.000003421324
 14      -0.000011767671
 15       0.000003821996
 16      -0.000026513185
 17      -0.000478871412
 18       0.000001297358
 19       0.000008258456
 20       0.000007862728
 21       0.000035663115
 22      -0.000069821645
 23       0.000232351436
 24       0.000000020925
 25      -0.000005290112
 26      -0.000003107425
 27      -0.000011422347
 28      -0.000001398659
 29      -0.000013285258
 30       0.000009269263
 31      -0.000004441754
 32       0.000005294195
 33       0.000002363834
 34       0.000005391838
 35      -0.000017206128
 36       0.000001552471
 37       0.000005457171
 38      -0.000007574299
 39      -0.000003571702
 40       0.000016768091
 41      -0.000000959189
 42       0.000000441198
 43      -0.000003161883
 44       0.000012492881
 45      -0.000339016564
 46       0.002669460500
 47      -0.000022623070
 48      -0.000009406880
 49      -0.000005457688
 50       0.000115640569
 51      -0.000979397299
 52      -0.000630049896
 53      -0.000017606573
 54       0.000013471701
 55       0.000059313401
 56      -0.000058488299
 57       0.000009921742
 58      -0.000018218197
 59       0.000012395239
 60       0.000012514372
 61       0.000000935328
 62      -0.000014282159
 63      -0.000097432387
 64      -0.000079548789
 65      -0.000017266982
 66      -0.000008860219
 67       0.000012295240
 68      -0.000004189141
 69      -0.004041392186
 70       0.000003968448
 71      -0.000088069682
 72      -0.000042582904
 73      -0.347188860848
 74       1.046962063386
 75       0.018562156212
 76      -0.006396426917
 77       0.004700298508
 78       0.000021678808
 79       0.000143500382
 80       0.000069724737
 81       0.000017610080
 82       0.000080384599
 83       0.000041019906
 84      -0.000073723811
 85      -0.000326267301
 86      -0.000167975982
 87       0.000269203972
 88       0.001269685801
 89       0.000656781641
 90      -0.000020578220
 91       0.000011828004
 92       0.000067501780
 93      -0.000064926755
 94       0.000023736688
 95       0.000033675125
 96      -0.000024499251
 97      -0.000116889720
 98       0.000108427763
 99      -0.000048334692
100      -0.000075163154
101       0.000056837537
102       0.000265763505
103      -0.000244694810
104       0.000111435175
 Sym=     1a
 Ene= -5.62725779900925E+01
 Spin= Alpha
 Occup= 1.000000
  1      -0.000014212795
  2       0.000230876856
  3      -0.000625900614
  4      -0.000019310873
  5      -0.000040798022
  6      -0.000012403210
  7       0.000073563217
  8       0.000211027827
  9      -0.000272672002
 10       0.000003654610
 11      -0.000011481261
 12      -0.000009534618
 13       0.000001451552
 14       0.000006591783
 15      -0.000005220022
 16       0.000042073524
 17       0.000465851523
 18      -0.000003682616
 19      -0.000011392904
 20      -0.000012117885
 21      -0.000031098883
 22       0.000064484362
 23      -0.000217151636
 24      -0.000001347053
 25       0.000007754970
 26       0.000005584871
 27       0.000011969310
 28      -0.000000713866
 29       0.000020799437
 30      -0.000018038363
 31       0.000003309766
 32      -0.000006848644
 33      -0.000007474800
 34      -0.000009342418
 35       0.000012978722
 36       0.000000708255
 37      -0.000006256344
 38       0.000008002172
 39       0.000010267417
 40      -0.000020879510
 41      -0.000001094182
 42       0.000000939958
 43       0.000000547114
 44       0.000003889341
 45       0.000224099694
 46      -0.002743108348
 47       0.000027298693
 48       0.000101344048
 49       0.000049217414
 50      -0.000124498290
 51       0.001076293985
 52       0.000722104241
 53       0.000033412663
 54      -0.000018769380
 55      -0.000117666311
 56       0.000116188204
 57      -0.000009783769
 58      -0.000017354477
 59      -0.000085162571
 60      -0.000021408578
 61       0.000013034737
 62       0.000028338889
 63       0.000079634424
 64       0.000030377396
 65       0.000022781783
 66       0.000028650766
 67      -0.000013492219
 68       0.000119375241
 69       0.004830323581
 70       0.000016928501
 71       0.000247597867
 72       0.000123224367
 73      -0.000076741619
 74       0.000224582433
 75      -0.000174147813
 76       0.001097115212
 77      -0.002579040387
 78      -0.130739226975
 79      -0.880467372508
 80      -0.434991323438
 81      -0.003149066393
 82      -0.021162714380
 83      -0.010457051384
 84       0.000851922950
 85       0.005535053567
 86       0.002743471396
 87      -0.000610954704
 88      -0.003472422822
 89      -0.001752340714
 90       0.000012812467
 91      -0.000008667634
 92      -0.000043888071
 93       0.000041252741
 94      -0.000017248621
 95      -0.000037277900
 96       0.000027339599
 97       0.000131358115
 98      -0.000121569565
 99       0.000054198638
100       0.000090810914
101      -0.000067224701
102      -0.000323111516
103       0.000298217255
104      -0.000132456795
 Sym=     1a
 Ene= -5.62686855859243E+01
 Spin= Alpha
 Occup= 1.000000
  1       0.000006578148
  2      -0.000066352803
  3       0.000259714451
  4       0.000013920675
  5       0.000026664932
  6       0.000001026031
  7      -0.000040364611
  8      -0.000240909112
  9       0.000347120526
 10       0.000005601758
 11      -0.000001368239
 12      -0.000003583235
 13       0.000004899898
 14       0.000010966019
 15       0.000001823189
 16      -0.000014475366
 17      -0.000461600599
 18       0.000007527332
 19      -0.000004886378
 20       0.000007629498
 21      -0.000025336855
 22      -0.000003646972
 23       0.000188206209
 24      -0.000003573829
 25      -0.000004232843
 26      -0.000005066758
 27      -0.000005571224
 28       0.000001930831
 29       0.000021512510
 30       0.000082201904
 31      -0.000009190596
 32       0.000019836272
 33      -0.000000710150
 34       0.000016549407
 35       0.000033642462
 36       0.000000296885
 37      -0.000002941262
 38      -0.000010393523
 39      -0.000002633848
 40       0.000023172849
 41      -0.000003118197
 42      -0.000004139831
 43      -0.000009350471
 44      -0.000002992933
 45       0.000074813129
 46      -0.000404940436
 47      -0.000041801502
 48      -0.000024458573
 49       0.000001392797
 50       0.000333951178
 51       0.000376672996
 52      -0.000028091839
 53       0.000004675267
 54       0.000021636151
 55      -0.000022560623
 56       0.000003666923
 57       0.000009537773
 58       0.000154436199
 59       0.000025192137
 60      -0.000010350354
 61      -0.000016938301
 62      -0.000009867486
 63      -0.000042940901
 64      -0.000057625871
 65      -0.000034658927
 66      -0.000005115474
 67      -0.000011199634
 68       0.000029441202
 69       0.000635777226
 70       0.000039473190
 71       0.000011705900
 72      -0.000002552032
 73      -0.000001471299
 74       0.000003833280
 75      -0.000011358908
 76       0.000087788606
 77      -0.000262608252
 78      -0.947203824650
 79      -0.002896821464
 80       0.290559032371
 81      -0.022625826520
 82      -0.000074214814
 83       0.006936961488
 84       0.005490119708
 85       0.000043378496
 86      -0.001666267107
 87      -0.002070309498
 88      -0.000155750319
 89       0.000545040907
 90       0.000004777605
 91      -0.000007513792
 92       0.000002106538
 93      -0.000000160777
 94      -0.000016417848
 95      -0.000007292802
 96       0.000010595102
 97       0.000004853582
 98      -0.000006276268
 99       0.000021427901
100       0.000015024448
101      -0.000019407038
102      -0.000019982023
103       0.000021324496
104      -0.000038198877
 Sym=     1a
 Ene= -5.62686748158545E+01
 Spin= Alpha
 Occup= 1.000000
  1      -0.000008465121
  2       0.000077124813
  3       0.000014299960
  4      -0.000013738787
  5      -0.000024090649
  6      -0.000029054002
  7      -0.000080390772
  8       0.000023824957
  9       0.000222544116
 10      -0.000007672819
 11       0.000000452853
 12       0.000002889735
 13      -0.000000422518
 14      -0.000003502435
 15       0.000000805910
 16      -0.000025246750
 17      -0.000125175840
 18       0.000008590609
 19      -0.000010127452
 20       0.000005246779
 21      -0.000078115727
 22      -0.000029809354
 23       0.000005002766
 24       0.000004786306
 25      -0.000002320006
 26       0.000004178978
 27       0.000003973433
 28       0.000001679719
 29       0.000037423941
 30       0.000081409680
 31      -0.000005567809
 32      -0.000012933083
 33      -0.000010649077
 34       0.000017911188
 35       0.000057805369
 36      -0.000003298081
 37       0.000000517157
 38      -0.000002893993
 39      -0.000009632050
 40      -0.000018306840
 41      -0.000001361107
 42      -0.000001050237
 43       0.000001609489
 44      -0.000002613148
 45       0.000008400861
 46       0.000170858165
 47       0.000015630423
 48      -0.000012096785
 49       0.000047326699
 50       0.000010717455
 51       0.000013092400
 52      -0.000400658495
 53       0.000000959934
 54      -0.000000325573
 55      -0.000016817237
 56      -0.000028270592
 57      -0.000002756390
 58       0.000057546124
 59       0.000050004856
 60       0.000023780344
 61      -0.000008891218
 62       0.000031244098
 63      -0.000142158875
 64      -0.000050911094
 65       0.000007353270
 66       0.000013861968
 67       0.000004326614
 68      -0.000025227574
 69      -0.000251817890
 70      -0.000013972448
 71       0.000009204066
 72      -0.000041016525
 73       0.000000315624
 74      -0.000000651001
 75       0.000005733981
 76      -0.000038860077
 77       0.000106743287
 78       0.259494489021
 79      -0.454228352376
 80       0.841408383024
 81       0.006199043819
 82      -0.010846219386
 83       0.020097802418
 84      -0.001506009670
 85       0.002614297986
 86      -0.004873941080
 87       0.000571797584
 88      -0.000912508494
 89       0.001835273686
 90       0.000010971544
 91       0.000004517558
 92       0.000010687492
 93       0.000007012872
 94       0.000003410225
 95      -0.000010820454
 96      -0.000005749815
 97      -0.000013823870
 98      -0.000005050962
 99      -0.000004859339
100       0.000014989772
101       0.000009716374
102       0.000025413933
103       0.000003196064
104       0.000009128173
 Sym=     1a
 Ene= -1.02244887458296E+01
 Spin= Alpha
 Occup= 1.000000
  1       0.032231176965
  2       0.000358800473
  3       0.004419546333
  4       0.001372528855
  5      -0.000391563897
  6       0.001011853855
  7       0.000538012576
  8       0.001564642470
  9      -0.004987084935
 10       0.000014585389
 11      -0.001290795025
 12       0.000143518067
 13      -0.001066106582
 14       0.000116673700
 15       0.003716485083
 16      -0.000192023426
 17       0.005459826562
 18       0.000258970060
 19      -0.000013278056
 20      -0.000020665224
 21      -0.004673622227
 22       0.000285963297
 23      -0.002984553635
 24       0.000145417677
 25      -0.000013427221
 26      -0.000110673992
 27       0.000232961120
 28       0.000117785155
 29      -0.000537401206
 30      -0.001221568560
 31      -0.000272671741
 32      -0.000067455878
 33      -0.000183753709
 34       0.000743996527
 35       0.001895857251
 36      -0.000040895490
 37      -0.000007344386
 38      -0.000008674229
 39      -0.000891231867
 40      -0.001789536373
 41      -0.000011144296
 42      -0.000070593104
 43       0.000142884687
 44       0.987167434188
 45       0.053575642864
 46      -0.054982383031
 47      -0.000629725229
 48      -0.000757761431
 49      -0.000768459883
 50      -0.001999617544
 51       0.007030415528
 52       0.003124169307
 53       0.000334982550
 54      -0.000421285351
 55      -0.000651450673
 56       0.000318216336
 57      -0.000057635937
 58      -0.002801949151
 59       0.007376444797
 60      -0.002285290487
 61      -0.000148392601
 62       0.001611257158
 63      -0.002698641473
 64       0.007903795765
 65       0.000239467382
 66       0.001655755892
 67      -0.002311614585
 68      -0.001600648671
 69       0.024860473714
 70      -0.000004299530
 71      -0.002372573905
 72      -0.001027025139
 73      -0.000008822744
 74       0.000014353188
 75      -0.000158611175
 76       0.002100642545
 77      -0.008411817385
 78       0.000002454716
 79       0.000004023749
 80      -0.000003002755
 81      -0.000009730559
 82      -0.000018718572
 83       0.000007650328
 84       0.000117993999
 85       0.000382771111
 86       0.000122600120
 87      -0.001022810314
 88      -0.004547094852
 89      -0.002211168321
 90       0.000020368031
 91      -0.000015923390
 92      -0.000051959867
 93       0.000050152220
 94      -0.000033729093
 95      -0.000097391242
 96       0.000075886440
 97       0.000254439420
 98      -0.000244801919
 99       0.000160011543
100       0.000298091166
101      -0.000227042635
102      -0.000844471612
103       0.000805304508
104      -0.000471062433
 Sym=     1a
 Ene= -1.02209125653964E+01
 Spin= Alpha
 Occup= 1.000000
  1       0.985266293388
  2       0.047703966243
  3      -0.042250488695
  4       0.000448378453
  5      -0.000327975347
  6      -0.000441109369
  7       0.004382230287
  8       0.002371077631
  9      -0.004956609394
 10       0.000945123664
 11      -0.000283818891
 12      -0.000943392248
 13       0.001649387616
 14       0.000689515974
 15       0.070214892973
 16      -0.001207140073
 17       0.016577176650
 18       0.000157589061
 19      -0.000821560230
 20       0.002561130522
 21      -0.002698716524
 22       0.001276844959
 23      -0.005279882291
 24      -0.001062651688
 25      -0.000037353269
 26       0.000735235148
 27      -0.000195647986
 28      -0.000056605053
 29      -0.004705642426
 30       0.006203755304
 31       0.002539809824
 32       0.000549028371
 33      -0.001328582821
 34       0.000236415870
 35       0.000258828836
 36      -0.000135748632
 37       0.000073020073
 38      -0.000332538862
 39      -0.000430133033
 40      -0.001336528446
 41       0.000096268257
 42       0.000119081296
 43      -0.000368150379
 44      -0.031771059837
 45      -0.002089438037
 46       0.000600889491
 47      -0.001687062904
 48      -0.000473910784
 49      -0.001357591116
 50       0.000954163159
 51       0.004922292828
 52       0.006180919834
 53       0.000181103642
 54      -0.001212664378
 55      -0.000041105323
 56      -0.001066261158
 57      -0.000116308846
 58       0.000197536789
 59      -0.001475516995
 60       0.000395497990
 61      -0.000195240311
 62       0.000071207049
 63       0.000847664871
 64       0.000008162872
 65       0.000326377124
 66      -0.000333251475
 67       0.000053158475
 68       0.000210722029
 69       0.014762906174
 70       0.000507851165
 71       0.000186197230
 72       0.000339203941
 73      -0.000009138999
 74       0.000016725396
 75      -0.000157603359
 76       0.001711430628
 77      -0.005932452927
 78      -0.000009616785
 79       0.000024419088
 80       0.000000935112
 81       0.000032099899
 82      -0.000085403336
 83      -0.000004489790
 84      -0.000092909359
 85       0.000533210632
 86       0.000114372725
 87      -0.000391183762
 88      -0.003547474862
 89      -0.001586616534
 90       0.000014312709
 91       0.000000831580
 92      -0.000041588591
 93       0.000045753534
 94      -0.000014469745
 95      -0.000067074589
 96      -0.000000381626
 97       0.000198698014
 98      -0.000215508452
 99       0.000070007215
100       0.000205928879
101      -0.000046480216
102      -0.000658561606
103       0.000674452694
104      -0.000240981939
 Sym=     1a
 Ene= -1.02168086114231E+01
 Spin= Alpha
 Occup= 1.000000
  1      -0.069372095913
  2      -0.007450443269
  3       0.012237008334
  4      -0.000398958953
  5       0.000728774243
  6      -0.002576053911
  7      -0.000619206280
  8       0.000494077151
  9      -0.002332164019
 10      -0.001372011778
 11      -0.000016670620
 12       0.000936421072
 13      -0.000411604476
 14      -0.000126192291
 15       0.985626505793
 16       0.048562938596
 17      -0.030438032073
 18      -0.000043356995
 19      -0.000115736660
 20       0.000306879096
 21       0.000967124907
 22       0.000228119472
 23       0.000055162799
 24       0.001035886586
 25       0.000200717081
 26      -0.001310016583
 27       0.002109540121
 28       0.000505796103
 29       0.000279231948
 30      -0.001783794365
 31      -0.000294728890
 32      -0.000277586301
 33       0.000833840704
 34      -0.004681582769
 35       0.006892458895
 36       0.002700312968
 37      -0.000118024651
 38       0.001401248094
 39      -0.004208952857
 40       0.007487269511
 41      -0.002560504543
 42      -0.000755886843
 43       0.001402414020
 44      -0.001564840621
 45       0.000392671739
 46      -0.005258009033
 47       0.000325338442
 48      -0.000009826278
 49       0.000006921281
 50      -0.002899269907
 51      -0.000195957133
 52       0.002420979388
 53       0.000185931954
 54       0.000206451438
 55      -0.000070508165
 56       0.000211466970
 57      -0.000067597908
 58      -0.000493508651
 59      -0.001285198502
 60      -0.000029993064
 61       0.000102844445
 62       0.000050980751
 63       0.000711430060
 64       0.001091826526
 65       0.000076566322
 66      -0.000094653593
 67      -0.000134687186
 68      -0.000077841251
 69       0.002890598696
 70       0.000047098296
 71       0.000147548706
 72      -0.000235886345
 73      -0.000002763569
 74       0.000005247052
 75      -0.000047001128
 76       0.000410814359
 77      -0.001223134446
 78       0.000000256561
 79       0.000006676222
 80       0.000004619972
 81      -0.000001022933
 82      -0.000023190305
 83      -0.000016084518
 84       0.000012652832
 85       0.000129602599
 86       0.000090751118
 87      -0.000120506280
 88      -0.000697849389
 89      -0.000429680013
 90       0.000000442166
 91      -0.000002494435
 92      -0.000013216807
 93       0.000006362930
 94      -0.000002845965
 95      -0.000002281299
 96       0.000011668427
 97       0.000061301677
 98      -0.000030451659
 99       0.000013420195
100       0.000010612611
101      -0.000034246950
102      -0.000174795898
103       0.000099824412
104      -0.000041830922
 Sym=     1a
 Ene= -8.65769380032713E+00
 Spin= Alpha
 Occup= 1.000000
  1      -0.000031109076
  2       0.000406952983
  3      -0.000826119262
  4      -0.000037621676
  5      -0.000066852573
  6      -0.000024250324
  7      -0.000113284841
  8       0.000343096292
  9      -0.000747165119
 10       0.000012535034
 11      -0.000012170444
 12      -0.000013103831
 13       0.000010939322
 14       0.000024666568
 15      -0.000010250733
 16       0.000062318331
 17       0.000982855768
 18      -0.000005341113
 19      -0.000015868686
 20      -0.000016284617
 21      -0.000014947819
 22       0.000159358226
 23      -0.000487882709
 24      -0.000000151770
 25       0.000008698150
 26       0.000004189873
 27       0.000021734128
 28       0.000002840419
 29       0.000033043592
 30      -0.000018879844
 31       0.000011894345
 32      -0.000006758529
 33       0.000002761783
 34      -0.000016624341
 35       0.000022049624
 36      -0.000003827518
 37      -0.000010499682
 38       0.000013685973
 39       0.000016943747
 40      -0.000007326839
 41       0.000002421813
 42      -0.000000236500
 43       0.000005493330
 44      -0.000015641287
 45       0.000680100434
 46      -0.006577149028
 47       0.000052859253
 48       0.000108332605
 49       0.000052366447
 50      -0.000357666344
 51       0.002308964039
 52       0.001414789538
 53       0.000050001169
 54      -0.000030642447
 55      -0.000177379787
 56       0.000172253772
 57      -0.000017187953
 58       0.000019927825
 59       0.000021896957
 60      -0.000022784926
 61      -0.000002759799
 62       0.000033639518
 63       0.000203043413
 64       0.000224209471
 65       0.000043746490
 66       0.000019612474
 67      -0.000024164302
 68      -0.000100907520
 69       0.009911612369
 70       0.000040604802
 71       0.000477583332
 72       0.000239676138
 73       0.136664621533
 74      -0.516889485254
 75       1.093467143656
 76       0.032443831844
 77      -0.014623283491
 78      -0.000086936566
 79      -0.000537414625
 80      -0.000262200315
 81       0.000197935890
 82       0.001244458527
 83       0.000605539844
 84       0.000196099193
 85       0.000903711320
 86       0.000465162457
 87      -0.000649432453
 88      -0.003085605391
 89      -0.001596798653
 90      -0.000293514140
 91       0.000127939346
 92       0.000895228787
 93      -0.000897344633
 94       0.000263194200
 95      -0.000253195304
 96       0.000129766447
 97       0.000785709343
 98      -0.000773764935
 99       0.000258933762
100       0.000164937112
101      -0.000121402582
102      -0.000565778314
103       0.000524908202
104      -0.000234033054
 Sym=     1a
 Ene= -6.49354196814593E+00
 Spin= Alpha
 Occup= 1.000000
  1      -0.000014957002
  2       0.000234648433
  3      -0.000569613281
  4      -0.000020252187
  5      -0.000038030199
  6      -0.000013012279
  7       0.000046250113
  8       0.000223071847
  9      -0.000284579728
 10       0.000004750751
 11      -0.000009525040
 12      -0.000010928904
 13       0.000004152097
 14       0.000006251250
 15      -0.000006065068