
                                 *****************
                                 * O   R   C   A *
                                 *****************

                                            #,                                       
                                            ###                                      
                                            ####                                     
                                            #####                                    
                                            ######                                   
                                           ########,                                 
                                     ,,################,,,,,                         
                               ,,#################################,,                 
                          ,,##########################################,,             
                       ,#########################################, ''#####,          
                    ,#############################################,,   '####,        
                  ,##################################################,,,,####,       
                ,###########''''           ''''###############################       
              ,#####''   ,,,,##########,,,,          '''####'''          '####       
            ,##' ,,,,###########################,,,                        '##       
           ' ,,###''''                  '''############,,,                           
         ,,##''                                '''############,,,,        ,,,,,,###''
      ,#''                                            '''#######################'''  
     '                                                          ''''####''''         
             ,#######,   #######,   ,#######,      ##                                
            ,#'     '#,  ##    ##  ,#'     '#,    #''#        ,####,    ,#,          
            ##       ##  ##   ,#'  ##            #'  '#       #'       ,# #          
            ##       ##  #######   ##           ,######,      #####,      #          
            '#,     ,#'  ##    ##  '#,     ,#' ,#      #,     #,   #      #          
             '#######'   ##     ##  '#######'  #'      '#     '####' #    #          



                #########################################################
                #                        -***-                          #
                #          Department of theory and spectroscopy        #
                #                                                       #
                #                      Frank Neese                      #
                #                                                       #
                #     Directorship, Architecture, Infrastructure        #
                #                    SHARK, DRIVERS                     #
                #        Core code/Algorithms in most modules           #
                #                                                       #
                #        Max Planck Institute fuer Kohlenforschung      #
                #                Kaiser Wilhelm Platz 1                 #
                #                 D-45470 Muelheim/Ruhr                 #
                #                      Germany                          #
                #                                                       #
                #                  All rights reserved                  #
                #                        -***-                          #
                #########################################################


                         Program Version 6.1.0  -  RELEASE   -
                                (GIT: $679e74b$)
                          ($2025-06-10 18:02:51 +0200$)


 With contributions from (in alphabetic order):
[Max-Planck-Institut fuer Kohlenforschung]                               
  Daniel Aravena         : Magnetic Suceptibility                        
  Michael Atanasov       : Ab Initio Ligand Field Theory (pilot matlab implementation)
  Alexander A. Auer      : GIAO ZORA, VPT2 properties, NMR spectrum      
  Ute Becker             : All parallelization in ORCA, NUMFREQ, NUMCALC 
  Giovanni Bistoni       : ED, misc. LED, open-shell LED, HFLD           
  Dmytro Bykov           : pre 5.0 version of the SCF Hessian            
  Marcos Casanova-Páez   : Triplet and SCS-CIS(D). UHF-(DLPNO)-IP/EA/STEOM-CCSD. UHF-CVS-IP/STEOM-CCSD   
  Vijay G. Chilkuri      : MRCI spin determinant printing, contributions to CSF-ICE 
  Pauline Colinet        : FMM embedding                                 
  Dipayan Datta          : RHF DLPNO-CCSD density                        
  Achintya Kumar Dutta   : EOM-CC, STEOM-CC                              
  Nicolas Foglia         : Exact transition moments, OPA infrastructure, MCD improvements    
  Dmitry Ganyushin       : Spin-Orbit,Spin-Spin,Magnetic field MRCI      
  Miquel Garcia-Rates    : C-PCM and meta-GGA Hessian, CCSD/C-PCM, Gaussian charge scheme 
  Tiago L. C. Gouveia    : GS-ROHF, GS-ROCIS                             
  Yang Guo               : DLPNO-NEVPT2, F12-NEVPT2, CIM, IAO-localization        
  Andreas Hansen         : Spin unrestricted coupled pair/coupled cluster methods 
  Ingolf Harden          : AUTO-CI MPn and infrastructure                
  Benjamin Helmich-Paris : MC-RPA, TRAH-(SCF,CASSCF), AVAS, COSX integrals, SCF dyn. polar., MC-PDFT, srDFT 
  Lee Huntington         : MR-EOM, pCC                                   
  Robert Izsak           : Overlap fitted RIJCOSX, COSX-SCS-MP3, EOM     
  Riya Kayal             : Wick's Theorem for AUTO-CI, AUTO-CI UHF-CCSDT 
  Emily Kempfer          : AUTO-CI RHF CISDT and CCSDT, approximate NEVPT4
  Christian Kollmar      : KDIIS, OOCD, Brueckner-CCSD(T), CCSD density, CASPT2, CASPT2-K, improved NEVPT2 
  Axel Koslowski         : Symmetry handling                             
  Simone Kossmann        : meta-GGA functionals, TD-DFT gradient, OOMP2, (MP2 Hessian; deprecated post 5.0) 
  Lucas Lang             : DCDCAS, Hyperfine gauge corrections, ICE-SOC+SSC
  Marvin Lechner         : AUTO-CI (C++ implementation), FIC-MRCC        
  Spencer Leger          : CASSCF response                               
  Dagmar Lenk            : GEPOL surface, SMD, ORCA-2-JSON               
  Dimitrios Liakos       : Extrapolation schemes; Compound Job, Property file
  Dimitrios Manganas     : Further ROCIS development; embedding schemes. LFT, Crystal Embedding 
  Dimitrios Pantazis     : SARC Basis sets                               
  Anastasios Papadopoulos: AUTO-CI, single reference methods and gradients 
  Taras Petrenko         : pre 6.0 DFT Hessian and TD-DFT gradient,  ECA, NRVS 
  Petra Pikulova         : Analytic Raman intensities                    
  Peter Pinski           : DLPNO-MP2, DLPNO-MP2 Gradient                 
  Shashank Vittal Rao    : ES-AILFT, MagRelax                            
  Christoph Reimann      : Effective Core Potentials                     
  Marius Retegan         : Local ZFS, SOC                                
  Christoph Riplinger    : Optimizer, TS searches, QM/MM, DLPNO-CCSD(T), (RO)-DLPNO pert. Triples 
  Michael Roemelt        : Original ROCIS implementation, recursive CI coupling coefficients
  Masaaki Saitow         : Open-shell DLPNO-CCSD energy and density      
  Barbara Sandhoefer     : DKH picture change effects                    
  Yorick L. A. Schmerwitz: GMF and freeze-and-release deltaSCF, NEB S-IDPP initial path                    
  Kantharuban Sivalingam : CASSCF convergence/infrastructure, NEVPT2, NEVPT3, NEVPT4(SD), FIC-MRCI and CEPA variants
  Bernardo de Souza      : ESD, SOC TD-DFT                               
  Georgi L. Stoychev     : AutoAux, RI-MP2 NMR, DLPNO-MP2 response, X2C  
  Van Anh Tran           : RI-MP2 g-tensors                              
  Willem Van den Heuvel  : Paramagnetic NMR                              
  Zikuan Wang            : NOTCH, Electric field optimization            
  Frank Wennmohs         : Technical directorship and infrastructure     
  Hang Xu                : AUTO-CI-Response properties                   
                                                                         
[FACCTs GmbH]                                                            
  Markus Bursch, Nicolas Foglia, Miquel Garcia-Rates, Ingolf Harden, Hagen Neugebauer, Anastasios Papadopoulos, 
  Christoph Riplinger, Bernardo de Souza, Georgi L. Stoychev                                                    
                                                                 
  APM, various basis sets, CI-OPT, improved COSX, DLPNO-Multilevel,           
  DOCKER, DRACO, updates on ESD, Fragmentator, GOAT, IRC, LR-CPCM, L-BFGS, MBIS, meta-GGA TD-DFT gradient, ML-optimized integration grids, 
  MM, NACMEs, nearIR, NEB, NEB-TS, NL-DFT gradient (VV10), 2- and 3-layer-ONIOM, interface openCOSMO-RS, QMMM,   
  Crystal-QMMM, RESP, rigid body optimization, SF, symmetry and pop. for TD-DFT, various functionals, SOLVATOR                                   
                                                                         
[Other institutions]                                                     
  V. Asgeirsson          : NEB                                           
  Christoph Bannwarth    : sTDA-DFT, sTD-DFT, PBEh-3c, B97-3c, D3        
  Giovanni Bistoni       : ETS/NOCV, ADLD/ADEX, COVALED                  
  Martin Brehm           : Molecular dynamics                            
  Ronald Cardenas        : ETS/NOCV                                      
  Martina Colucci        : COVALED                                       
  Sebastian Ehlert       : rSCAN, r2SCAN, r2SCAN-3c, D4, dhf basis sets  
  Marvin Friede          : D4 for Fr, Ra, Ac-Lr                          
  Lars Goerigk           : TD-DFT with DH, B97 family of functionals     
  Stefan Grimme          : VdW corrections, initial TS optimization, DFT functionals, gCP, sTDA/sTD-DF 
  Waldemar Hujo          : DFT-NL                                        
  H. Jonsson             : NEB                                           
  Holger Kruse           : gCP                                           
  Marcel Mueller         : wB97X-3c, vDZP basis set                      
  Hagen Neugebauer       : wr2SCAN, Native XTB                           
  Gianluca Regni         : ADLD/ADEX                                     
  Tobias Risthaus        : pre 6.0 range-separated hybrid DFT and stability analysis
  Lukas Wittmann         : regularized MP2, r2SCAN double-hybrids, wr2SCAN        
                                                                         
We gratefully acknowledge several colleagues who have allowed us to      
interface, adapt or use parts of their codes:                            
  Ed Valeev, F. Pavosevic, A. Kumar             : LibInt (2-el integral package), F12 methods 
  Garnet Chan, S. Sharma, J. Yang, R. Olivares  : DMRG                   
  Ulf Ekstrom                                   : XCFun DFT Library      
  Mihaly Kallay                                 : mrcc  (arbitrary order and MRCC methods)
  Frank Weinhold                                : gennbo (NPA and NBO analysis)           
  Simon Mueller                                 : openCOSMO-RS                            
  Christopher J. Cramer and Donald G. Truhlar   : smd solvation model                     
  S Lehtola, MJT Oliveira, MAL Marques          : LibXC Library                           
  Liviu Ungur et al                             : ANISO software                          


 Your calculation uses the libint2 library for the computation of 2-el integrals
 For citations please refer to: http://libint.valeyev.net

 Your ORCA version has been built with support for libXC version: 7.0.0
 For citations please refer to: https://libxc.gitlab.io

 This ORCA versions uses:
   CBLAS   interface :  Fast vector & matrix operations
   LAPACKE interface :  Fast linear algebra routines
   SCALAPACK package :  Parallel linear algebra routines
   Shared memory     :  Shared parallel matrices
   BLAS/LAPACK       :  OpenBLAS 0.3.29  USE64BITINT DYNAMIC_ARCH NO_AFFINITY Zen SINGLE_THREADED
        Core in use  :  Zen
   Copyright (c) 2011-2014, The OpenBLAS Project


  ***********************************
  * Starting time: Sun Apr  5 14:32:07 2026
  * Host name:     QC1
  * Process ID:    29022
  * Working dir.:  /home/user/QC/radical/allyl/split-ts1_2
  ***********************************

NOTE: MaxCore=1200 MB was set to SCF,MP2,MDCI,CIPSI,MRCI,RASCI and CIS
      => If you want to overwrite this, your respective input block should be placed after the MaxCore statement
Warning: RI is on but no J-basis has been assigned. Assigning Def2/J (nothing to worry about!)
================================================================================

----- Orbital basis set information -----
Your calculation utilizes the basis: def-SVP
   H-Kr: A. Schäfer, H. Horn, R. Ahlrichs; J. Chem. Phys. 97, 2571 (1992)
   Rb-At: K. Eichkorn, F. Weigend, O. Treutler, R. Ahlrichs; Theor. Chem. Acc. 97, 119 (1997)
   Rn: F. Weigend, R. Ahlrichs; Phys. Chem. Chem. Phys. 7, 3297 (2005)
   Fr-Ra: I. S. Lim, P. Schwerdtfeger, B. Metz, H. Stoll, J. Chem. Phys. 122, 104103 (2005)
   Ac-Lr: X. Cao, M. Dolg, J. Molec. Struct. Theochem. 673 (2004)
----- AuxJ basis set information -----
Your calculation utilizes the auxiliary basis: def2/J
   H-Rn: F. Weigend, Phys. Chem. Chem. Phys. 8, 1057 (2006).
   Fr-Lr: K. Eichkorn, F. Weigend, O. Treutler, R. Ahlrichs; Theor. Chem. Acc. 97, 119 (1997).

================================================================================
                                        WARNINGS
                       Please study these warnings very carefully!
================================================================================


WARNING: your system is open-shell and RHF/RKS was chosen
  ===> : WILL SWITCH to UHF/UKS


================================================================================
                                       INPUT FILE
================================================================================
NAME = radical_032.inp
|  1> ! B3LYP def-SVP 
|  2> %maxcore 1200
|  3> %pal nprocs 8 end
|  4> * xyz 0 2
|  5> C    0.62055300   0.49415600   0.19057200
|  6> C    0.70112400   0.04827400   1.49946800
|  7> H    1.55761500   0.72109900  -0.33257400
|  8> H    1.66121600  -0.04537200   2.01150500
|  9> H   -0.20135200  -0.21449100   2.05996300
| 10> C   -0.56949800   0.66093200  -0.51738300
| 11> H   -1.53657300   0.46737900  -0.04271900
| 12> H   -0.57876000   1.08157700  -1.52550600
| 13> H   -0.67962800  -1.07175500  -1.36777600
| 14> Br  -0.98382500  -2.31936400  -2.06127900
| 15> *
| 16> 
| 17>                          ****END OF INPUT****
================================================================================

                       ****************************
                       * Single Point Calculation *
                       ****************************

---------------------------------
CARTESIAN COORDINATES (ANGSTROEM)
---------------------------------
  C      0.620553    0.494156    0.190572
  C      0.701124    0.048274    1.499468
  H      1.557615    0.721099   -0.332574
  H      1.661216   -0.045372    2.011505
  H     -0.201352   -0.214491    2.059963
  C     -0.569498    0.660932   -0.517383
  H     -1.536573    0.467379   -0.042719
  H     -0.578760    1.081577   -1.525506
  H     -0.679628   -1.071755   -1.367776
  Br    -0.983825   -2.319364   -2.061279

----------------------------
CARTESIAN COORDINATES (A.U.)
----------------------------
  NO LB      ZA    FRAG     MASS         X           Y           Z
   0 C     6.0000    0    12.011    1.172675    0.933820    0.360129
   1 C     6.0000    0    12.011    1.324932    0.091225    2.833584
   2 H     1.0000    0     1.008    2.943466    1.362680   -0.628474
   3 H     1.0000    0     1.008    3.139243   -0.085741    3.801194
   4 H     1.0000    0     1.008   -0.380500   -0.405329    3.892766
   5 C     6.0000    0    12.011   -1.076195    1.248980   -0.977712
   6 H     1.0000    0     1.008   -2.903702    0.883218   -0.080727
   7 H     1.0000    0     1.008   -1.093698    2.043884   -2.882789
   8 H     1.0000    0     1.008   -1.284311   -2.025323   -2.584722
   9 Br   35.0000    0    79.900   -1.859160   -4.382963   -3.895253

--------------------------------
INTERNAL COORDINATES (ANGSTROEM)
--------------------------------
 C      0   0   0     0.000000000000     0.00000000     0.00000000
 C      1   0   0     1.385103311230     0.00000000     0.00000000
 H      1   2   0     1.096936668367   117.87758675     0.00000000
 H      2   1   3     1.092120923318   121.45248345     1.98119355
 H      2   1   3     1.094377914994   120.88410025   181.42478934
 C      1   2   3     1.394717139352   124.59673628   179.21023444
 H      6   1   2     1.094533111573   120.83852834     1.88687817
 H      6   1   2     1.092401017849   121.44742618   175.71464874
 H      6   1   2     1.933261780339    99.48067531   267.39175998
 Br     9   6   1     1.459455529538   170.76865106   167.11224500

---------------------------
INTERNAL COORDINATES (A.U.)
---------------------------
 C      0   0   0     0.000000000000     0.00000000     0.00000000
 C      1   0   0     2.617465925413     0.00000000     0.00000000
 H      1   2   0     2.072909889470   117.87758675     0.00000000
 H      2   1   3     2.063809450196   121.45248345     1.98119355
 H      2   1   3     2.068074546350   120.88410025   181.42478934
 C      1   2   3     2.635633427661   124.59673628   179.21023444
 H      6   1   2     2.068367825382   120.83852834     1.88687817
 H      6   1   2     2.064338752152   121.44742618   175.71464874
 H      6   1   2     3.653335310017    99.48067531   267.39175998
 Br     9   6   1     2.757971255464   170.76865106   167.11224500

---------------------
BASIS SET INFORMATION
---------------------
There are 3 groups of distinct atoms

 Group   1 Type C   : 7s4p1d contracted to 3s2p1d pattern {511/31/1}
 Group   2 Type H   : 4s1p contracted to 2s1p pattern {31/1}
 Group   3 Type Br  : 14s10p6d contracted to 5s4p3d pattern {63311/5311/411}

Atom   0C    basis set group =>   1
Atom   1C    basis set group =>   1
Atom   2H    basis set group =>   2
Atom   3H    basis set group =>   2
Atom   4H    basis set group =>   2
Atom   5C    basis set group =>   1
Atom   6H    basis set group =>   2
Atom   7H    basis set group =>   2
Atom   8H    basis set group =>   2
Atom   9Br   basis set group =>   3
---------------------------------
AUXILIARY/J BASIS SET INFORMATION
---------------------------------
There are 3 groups of distinct atoms

 Group   1 Type C   : 12s5p4d2f1g contracted to 6s4p3d1f1g pattern {711111/2111/211/2/1}
 Group   2 Type H   : 5s2p1d contracted to 3s1p1d pattern {311/2/1}
 Group   3 Type Br  : 19s5p5d3f1g contracted to 8s4p3d2f1g pattern {121111111/2111/311/21/1}

Atom   0C    basis set group =>   1
Atom   1C    basis set group =>   1
Atom   2H    basis set group =>   2
Atom   3H    basis set group =>   2
Atom   4H    basis set group =>   2
Atom   5C    basis set group =>   1
Atom   6H    basis set group =>   2
Atom   7H    basis set group =>   2
Atom   8H    basis set group =>   2
Atom   9Br   basis set group =>   3


           ************************************************************
           *        Program running with 8 parallel MPI-processes     *
           *              working on a common directory               *
           ************************************************************
------------------------------------------------------------------------------
                             ORCA STARTUP CALCULATIONS
                           -- RI-GTO INTEGRALS CHOSEN --
------------------------------------------------------------------------------
------------------------------------------------------------------------------
                   ___                                                        
                  /   \      - P O W E R E D   B Y -                         
                 /     \                                                     
                 |  |  |   _    _      __       _____    __    __             
                 |  |  |  | |  | |    /  \     |  _  \  |  |  /  |          
                  \  \/   | |  | |   /    \    | | | |  |  | /  /          
                 / \  \   | |__| |  /  /\  \   | |_| |  |  |/  /          
                |  |  |   |  __  | /  /__\  \  |    /   |      \           
                |  |  |   | |  | | |   __   |  |    \   |  |\   \          
                \     /   | |  | | |  |  |  |  | |\  \  |  | \   \       
                 \___/    |_|  |_| |__|  |__|  |_| \__\ |__|  \__/        
                                                                              
                      - O R C A' S   B I G   F R I E N D -                    
                                      &                                       
                       - I N T E G R A L  F E E D E R -                       
                                                                              
 v1 FN, 2020, v2 2021, v3 2022-2024                                           
------------------------------------------------------------------------------


----------------------
SHARK INTEGRAL PACKAGE
----------------------

Number of atoms                             ...     10
Number of basis functions                   ...    104
Number of shells                            ...     48
Maximum angular momentum                    ...      2
Integral batch strategy                     ... SHARK/LIBINT Hybrid
RI-J (if used) integral strategy            ... SPLIT-RIJ (Revised 2003 algorithm where possible)
Printlevel                                  ...      1
Contraction scheme used                     ... SEGMENTED contraction
Prescreening option                         ... SCHWARTZ
   Thresh                                   ... 1.000e-10
   Tcut                                     ... 1.000e-11
   Tpresel                                  ... 1.000e-11 
Coulomb Range Separation                    ... NOT USED
Exchange Range Separation                   ... NOT USED
Multipole approximations                    ... NOT USED
Finite Nucleus Model                        ... NOT USED
CABS basis                                  ... NOT available
Auxiliary Coulomb fitting basis             ... AVAILABLE
   # of basis functions in Aux-J            ...    271
   # of shells in Aux-J                     ...     93
   Maximum angular momentum in Aux-J        ...      4
Auxiliary J/K fitting basis                 ... NOT available
Auxiliary Correlation fitting basis         ... NOT available
Auxiliary 'external' fitting basis          ... NOT available

Checking pre-screening integrals            ... done (  0.0 sec) Dimension = 48
   => SHARK Basis and OBASIS are compatible. Storing Pre-screening
Shell pair information
Shell pair cut-off parameter TPreSel        ...   1.0e-11
Total number of shell pairs                 ...      1176
Shell pairs after pre-screening             ...      1075
Total number of primitive shell pairs       ...      4753
Primitive shell pairs kept                  ...      3255
          la=0 lb=0:    330 shell pairs
          la=1 lb=0:    382 shell pairs
          la=1 lb=1:    124 shell pairs
          la=2 lb=0:    137 shell pairs
          la=2 lb=1:     84 shell pairs
          la=2 lb=2:     18 shell pairs

Checking whether 4 symmetric matrices of dimension 104 fit in memory
:Max Core in MB      =   1200.00
 MB in use           =      4.70
 MB left             =   1195.30
 MB needed           =      0.17
 Data fit in memory  = YES
Calculating RI/J V-Matrix + Cholesky decomp.... done (  0.0 sec)
Calculating Nuclear repulsion               ... done (  0.0 sec) ENN=    189.583940849102 Eh

Diagonalization of the overlap matrix:
Smallest eigenvalue                        ... 2.662e-03
Time for diagonalization                   ...    0.001 sec
Threshold for overlap eigenvalues          ... 1.000e-07
Number of eigenvalues below threshold      ... 0
Time for construction of square roots      ...    0.000 sec
Total time needed                          ...    0.002 sec

-------------------
DFT GRID GENERATION
-------------------

General Integration Accuracy     IntAcc      ... 4.388
Radial Grid Type                 RadialGrid  ... OptM3 with GC (2021)
Angular Grid (max. ang.)         AngularGrid ... 4 (Lebedev-302)
Angular grid pruning method      GridPruning ... 4 (adaptive)
Weight generation scheme         WeightScheme... mBecke (2022)
Basis function cutoff            BFCut       ... 1.0000e-10
Integration weight cutoff        WCut        ... 1.0000e-14
Partially contracted basis set               ... off
Rotationally invariant grid construction     ... off
Angular grids for H and He will be reduced by one unit
Core-polarized basis detected: some atoms will have their core
                               angular grid increased.

Total number of grid points                  ...    49047
Total number of batches                      ...      772
Average number of points per batch           ...       63
Average number of grid points per atom       ...     4905

--------------------
COSX GRID GENERATION
--------------------

GRIDX 1
-------
General Integration Accuracy     IntAcc      ... 3.816
Radial Grid Type                 RadialGrid  ... OptM3 with GC (2021)
Angular Grid (max. ang.)         AngularGrid ... 1 (Lebedev-50)
Angular grid pruning method      GridPruning ... 4 (adaptive)
Weight generation scheme         WeightScheme... mBecke (2022)
Basis function cutoff            BFCut       ... 1.0000e-10
Integration weight cutoff        WCut        ... 1.0000e-14
Partially contracted basis set               ... on
Rotationally invariant grid construction     ... off
Angular grids for H and He will be reduced by one unit
Core-polarized basis detected: some atoms will have their core
                               angular grid increased.

Total number of grid points                  ...    11076
Total number of batches                      ...       91
Average number of points per batch           ...      121
Average number of grid points per atom       ...     1108
UseSFitting                                  ... on

GRIDX 2
-------
General Integration Accuracy     IntAcc      ... 4.020
Radial Grid Type                 RadialGrid  ... OptM3 with GC (2021)
Angular Grid (max. ang.)         AngularGrid ... 2 (Lebedev-110)
Angular grid pruning method      GridPruning ... 4 (adaptive)
Weight generation scheme         WeightScheme... mBecke (2022)
Basis function cutoff            BFCut       ... 1.0000e-10
Integration weight cutoff        WCut        ... 1.0000e-14
Partially contracted basis set               ... on
Rotationally invariant grid construction     ... off
Angular grids for H and He will be reduced by one unit
Core-polarized basis detected: some atoms will have their core
                               angular grid increased.

Total number of grid points                  ...    16414
Total number of batches                      ...      133
Average number of points per batch           ...      123
Average number of grid points per atom       ...     1641
UseSFitting                                  ... on

GRIDX 3
-------
General Integration Accuracy     IntAcc      ... 4.338
Radial Grid Type                 RadialGrid  ... OptM3 with GC (2021)
Angular Grid (max. ang.)         AngularGrid ... 3 (Lebedev-194)
Angular grid pruning method      GridPruning ... 4 (adaptive)
Weight generation scheme         WeightScheme... mBecke (2022)
Basis function cutoff            BFCut       ... 1.0000e-10
Integration weight cutoff        WCut        ... 1.0000e-14
Partially contracted basis set               ... on
Rotationally invariant grid construction     ... off
Angular grids for H and He will be reduced by one unit
Core-polarized basis detected: some atoms will have their core
                               angular grid increased.

Total number of grid points                  ...    28583
Total number of batches                      ...      228
Average number of points per batch           ...      125
Average number of grid points per atom       ...     2858
UseSFitting                                  ... on
Grids setup in   0.4 sec
Initializing property integral containers    ... done (  0.0 sec)

SHARK setup successfully completed in   0.5 seconds

Maximum memory used throughout the entire STARTUP-calculation: 17.5 MB


           ************************************************************
           *        Program running with 8 parallel MPI-processes     *
           *              working on a common directory               *
           ************************************************************
-------------------------------------------------------------------------------
                                 ORCA GUESS
                   Start orbitals & Density for SCF / CASSCF
-------------------------------------------------------------------------------

------------
SCF SETTINGS
------------
Hamiltonian:
 Density Functional     Method          .... DFT(GTOs)
 Exchange Functional    Exchange        .... B88
   X-Alpha parameter    XAlpha          ....  0.666667
   Becke's b parameter  XBeta           ....  0.004200
 Correlation Functional Correlation     .... LYP
 LDA part of GGA corr.  LDAOpt          .... VWN-5
 Gradients option       PostSCFGGA      .... off
 Hybrid DFT is turned on
   Fraction HF Exchange ScalHFX         ....  0.200000
   Scaling of DF-GGA-X  ScalDFX         ....  0.720000
   Scaling of DF-GGA-C  ScalDFC         ....  0.810000
   Scaling of DF-LDA-C  ScalLDAC        ....  1.000000
   Perturbative correction              ....  0.000000
   NL short-range parameter             ....  4.800000
 RI-approximation to the Coulomb term is turned on
   Number of AuxJ basis functions       .... 271
   RIJ-COSX (HFX calculated with COS-X)).... on


General Settings:
 Integral files         IntName         .... radical_032
 Hartree-Fock type      HFTyp           .... UHF
 Total Charge           Charge          ....    0
 Multiplicity           Mult            ....    2
 Number of Electrons    NEL             ....   59
 Basis Dimension        Dim             ....  104
 Nuclear Repulsion      ENuc            ....    189.5839408491 Eh

Convergence Acceleration:
 AO-DIIS                CNVDIIS         .... on
   Start iteration      DIISMaxIt       ....    12
   Startup error        DIISStart       ....  0.200000
   # of expansion vecs  DIISMaxEq       ....     5
   Bias factor          DIISBfac        ....   1.050
   Max. coefficient     DIISMaxC        ....  10.000
 MO-DIIS                CNVKDIIS        .... off
 Trust-Rad. Augm. Hess. CNVTRAH         .... auto
   Auto Start mean grad. ratio tolernc. ....  1.125000
   Auto Start start iteration           ....    50
   Auto Start num. interpolation iter.  ....    10
   Max. Number of Micro iterations      ....    24
   Max. Number of Macro iterations      .... Maxiter - #DIIS iter
   Number of Davidson start vectors     ....     2
   Converg. threshold    (grad. norm)   ....   5.000e-05
   Grad. Scal. Fac. for Micro threshold ....   0.100
   Minimum threshold for Micro iter.    ....   1.000e-02
   NR start threshold (gradient norm)   ....   1.000e-04
   Initial trust radius                 ....   0.400
   Minimum AH scaling param. (alpha)    ....   1.000
   Maximum AH scaling param. (alpha)    .... 1000.000
   Quad. conv. algorithm                .... NR
   White noise on init. David. guess    .... on
   Maximum white noise                  ....   0.010
   Pseudo random numbers                .... off
   Inactive MOs                         .... canonical
   Orbital update algorithm             .... Taylor
   Preconditioner                       .... Diag
   Full preconditioner red. dimension   ....   250
 SOSCF                 CNVSOSCF           .... on
   Start iteration     SOSCFMaxIt         ....   150
   Startup grad/error  SOSCFStart         ....  0.003300
   Hessian update      SOSCFHessUp        .... L-BFGS
   Autom. constraints  SOSCFAutoConstrain .... off
 Level Shifting         CNVShift        .... on
   Level shift para.    LevelShift      ....    0.2500
   Turn off err/grad.   ShiftErr        ....    0.0010
 Zerner damping         CNVZerner       .... off
 Static damping         CNVDamp         .... on
   Fraction old density DampFac         ....    0.7000
   Max. Damping (<1)    DampMax         ....    0.9800
   Min. Damping (>=0)   DampMin         ....    0.0000
   Turn off err/grad.   DampErr         ....    0.1000

SCF Procedure:
 Maximum # iterations   MaxIter         ....   125
 SCF integral mode      SCFMode         .... Direct
   Integral package                     .... SHARK and LIBINT hybrid scheme
 Reset frequency        DirectResetFreq ....    20
 Integral Threshold     Thresh          ....  1.000e-10 Eh
 Primitive CutOff       TCut            ....  1.000e-11 Eh

Convergence Tolerance:
 Convergence Check Mode ConvCheckMode   .... Total+1el-Energy
 Convergence forced     ConvForced      .... 0
 Energy Change          TolE            ....  1.000e-06 Eh
 1-El. energy change                    ....  1.000e-03 Eh
 Orbital Gradient       TolG            ....  5.000e-05
 Orbital Rotation angle TolX            ....  5.000e-05
 DIIS Error             TolErr          ....  1.000e-06

------------------------------
INITIAL GUESS: MODEL POTENTIAL
------------------------------
Loading Hartree-Fock densities                     ... done
Calculating cut-offs                               ... done
Initializing the effective Hamiltonian             ... done
Setting up the integral package (SHARK)            ... done
Starting the Coulomb interaction                   ... done (   0.0 sec)
Making the grid                                    ... done (   0.1 sec)
Mapping shells                                     ... done
Starting the XC term evaluation                    ... done (   0.0 sec)
  promolecular density results
     # of electrons  =     58.997724630
     EX              =   -106.839194599
     EC              =     -2.447402126
     EX+EC           =   -109.286596725
Transforming the Hamiltonian                       ... done (   0.0 sec)
Diagonalizing the Hamiltonian                      ... done (   0.0 sec)
Back transforming the eigenvectors                 ... done (   0.0 sec)
Now organizing SCF variables                       ... done
                      ------------------
                      INITIAL GUESS DONE (   0.1 sec)
                      ------------------
             **** ENERGY FILE WAS UPDATED (radical_032.en.tmp) ****
Finished Guess after   0.4 sec
Maximum memory used throughout the entire GUESS-calculation: 8.8 MB


           ************************************************************
           *        Program running with 8 parallel MPI-processes     *
           *              working on a common directory               *
           ************************************************************

-------------------------------------------------------------------------------------------
                                      ORCA LEAN-SCF
                              memory conserving SCF solver
-------------------------------------------------------------------------------------------

----------------------------------------D-I-I-S--------------------------------------------
Iteration    Energy (Eh)           Delta-E    RMSDP     MaxDP     DIISErr   Damp  Time(sec)
-------------------------------------------------------------------------------------------
               ***  Starting incremental Fock matrix formation  ***
    1    -2691.3402637681888336     0.00e+00  4.14e-03  3.05e-02  6.89e-02  0.700   0.2
    2    -2691.3772545655097019    -3.70e-02  3.07e-03  2.06e-02  3.86e-02  0.700   0.2
                               ***Turning on AO-DIIS***
    3    -2691.3940821623818920    -1.68e-02  1.39e-03  9.91e-03  1.68e-02  0.700   0.2
    4    -2691.4038547255845515    -9.77e-03  2.76e-03  2.00e-02  1.08e-02  0.000   0.2
    5    -2691.4252507187634365    -2.14e-02  5.28e-04  4.49e-03  3.67e-03  0.000   0.2
                              *** Initializing SOSCF ***
---------------------------------------S-O-S-C-F--------------------------------------
Iteration    Energy (Eh)           Delta-E    RMSDP     MaxDP     MaxGrad    Time(sec)
--------------------------------------------------------------------------------------
    6    -2691.4255196362773859    -2.69e-04  3.66e-04  4.49e-03  2.50e-03     0.2
               *** Restarting incremental Fock matrix formation ***
    7    -2691.4255816317340759    -6.20e-05  3.11e-04  3.33e-03  2.47e-03     0.2
    8    -2691.4256300296219706    -4.84e-05  3.38e-04  4.54e-03  1.67e-03     0.2
    9    -2691.4256435037968913    -1.35e-05  1.25e-04  1.28e-03  1.15e-03     0.2
   10    -2691.4256495195054413    -6.02e-06  2.86e-05  2.27e-04  8.87e-05     0.2
   11    -2691.4256494861756437     3.33e-08  1.56e-05  1.34e-04  1.21e-04     0.2
                 **** Energy Check signals convergence ****

               *****************************************************
               *                     SUCCESS                       *
               *           SCF CONVERGED AFTER  11 CYCLES          *
               *****************************************************

Recomputing exchange energy using gridx3       ... done (    0.240 sec)
Old exchange energy                            :    -21.430260709 Eh
New exchange energy                            :    -21.430263286 Eh
Exchange energy change after final integration :     -0.000002577 Eh
Total energy after final integration           :  -2691.425652275 Eh
             **** ENERGY FILE WAS UPDATED (radical_032.en.tmp) ****

----------------
TOTAL SCF ENERGY
----------------

Total Energy       :      -2691.42565227515206 Eh          -73237.41532 eV

Components:
Nuclear Repulsion  :        189.58394084910236 Eh            5158.84130 eV
Electronic Energy  :      -2881.00959054726081 Eh          -78396.25655 eV
One Electron Energy:      -4116.37934133019007 Eh         -112012.37648 eV
Two Electron Energy:       1235.36975078292926 Eh           33616.11993 eV

Virial components:
Potential Energy   :      -5378.50166238585734 Eh         -146356.47085 eV
Kinetic Energy     :       2687.07601011070574 Eh           73119.05554 eV
Virial Ratio       :          2.00161872687936

DFT components:
N(Alpha)           :       29.999985618816 electrons
N(Beta)            :       28.999984033597 electrons
N(Total)           :       58.999969652413 electrons
E(X)               :      -85.242425108757 Eh       
E(C)               :       -2.870256671264 Eh       
E(XC)              :      -88.112681780021 Eh       

---------------
SCF CONVERGENCE
---------------

  Last Energy change         ...   -3.3330e-08  Tolerance :   1.0000e-06
  Last MAX-Density change    ...    1.3372e-04  Tolerance :   1.0000e-05
  Last RMS-Density change    ...    1.5593e-05  Tolerance :   1.0000e-06
  Last DIIS Error            ...    2.5049e-03  Tolerance :   1.0000e-06
  Last Orbital Gradient      ...    1.2131e-04  Tolerance :   5.0000e-05
  Last Orbital Rotation      ...    2.7306e-04  Tolerance :   5.0000e-05


----------------------
UHF SPIN CONTAMINATION
----------------------

Warning: in a DFT calculation there is little theoretical justification to 
         calculate <S**2> as in Hartree-Fock theory. We will do it anyways
         but you should keep in mind that the values have only limited relevance

Expectation value of <S**2>     :     0.778575
Ideal value S*(S+1) for S=0.5   :     0.750000
Deviation                       :     0.028575

----------------
ORBITAL ENERGIES
----------------
                 SPIN UP ORBITALS
  NO   OCC          E(Eh)            E(eV) 
   0   1.0000    -482.767118    -13136.7611 
   1   1.0000     -62.450210     -1699.3566 
   2   1.0000     -56.281970     -1531.5103 
   3   1.0000     -56.279809     -1531.4515 
   4   1.0000     -56.279787     -1531.4509 
   5   1.0000     -10.214992      -277.9641 
   6   1.0000     -10.213531      -277.9243 
   7   1.0000     -10.213125      -277.9133 
   8   1.0000      -8.668153      -235.8724 
   9   1.0000      -6.500934      -176.8994 
  10   1.0000      -6.489129      -176.5782 
  11   1.0000      -6.489092      -176.5772 
  12   1.0000      -2.615357       -71.1675 
  13   1.0000      -2.611871       -71.0726 
  14   1.0000      -2.611836       -71.0717 
  15   1.0000      -2.602485       -70.8172 
  16   1.0000      -2.602481       -70.8171 
  17   1.0000      -0.806038       -21.9334 
  18   1.0000      -0.761522       -20.7221 
  19   1.0000      -0.692361       -18.8401 
  20   1.0000      -0.568577       -15.4718 
  21   1.0000      -0.494867       -13.4660 
  22   1.0000      -0.454615       -12.3707 
  23   1.0000      -0.424716       -11.5571 
  24   1.0000      -0.403432       -10.9779 
  25   1.0000      -0.377589       -10.2747 
  26   1.0000      -0.335437        -9.1277 
  27   1.0000      -0.277484        -7.5507 
  28   1.0000      -0.277309        -7.5460 
  29   1.0000      -0.221188        -6.0188 
  30   0.0000       0.004784         0.1302 
  31   0.0000       0.061807         1.6819 
  32   0.0000       0.076121         2.0714 
  33   0.0000       0.081067         2.2059 
  34   0.0000       0.098062         2.6684 
  35   0.0000       0.143105         3.8941 
  36   0.0000       0.145614         3.9624 
  37   0.0000       0.263135         7.1603 
  38   0.0000       0.309299         8.4165 
  39   0.0000       0.337401         9.1812 
  40   0.0000       0.371997        10.1225 

                 SPIN DOWN ORBITALS
  NO   OCC          E(Eh)            E(eV) 
   0   1.0000    -482.766910    -13136.7555 
   1   1.0000     -62.450101     -1699.3536 
   2   1.0000     -56.281546     -1531.4987 
   3   1.0000     -56.279727     -1531.4492 
   4   1.0000     -56.279705     -1531.4486 
   5   1.0000     -10.216736      -278.0115 
   6   1.0000     -10.206184      -277.7244 
   7   1.0000     -10.204229      -277.6712 
   8   1.0000      -8.667844      -235.8640 
   9   1.0000      -6.500114      -176.8771 
  10   1.0000      -6.488986      -176.5743 
  11   1.0000      -6.488949      -176.5733 
  12   1.0000      -2.614783       -71.1519 
  13   1.0000      -2.611411       -71.0601 
  14   1.0000      -2.611376       -71.0592 
  15   1.0000      -2.602402       -70.8149 
  16   1.0000      -2.602398       -70.8148 
  17   1.0000      -0.795893       -21.6573 
  18   1.0000      -0.758565       -20.6416 
  19   1.0000      -0.668953       -18.2031 
  20   1.0000      -0.562085       -15.2951 
  21   1.0000      -0.490048       -13.3349 
  22   1.0000      -0.448804       -12.2126 
  23   1.0000      -0.416574       -11.3356 
  24   1.0000      -0.397631       -10.8201 
  25   1.0000      -0.374990       -10.2040 
  26   1.0000      -0.308330        -8.3901 
  27   1.0000      -0.276474        -7.5232 
  28   1.0000      -0.276236        -7.5168 
  29   0.0000      -0.109067        -2.9679 
  30   0.0000       0.022482         0.6118 
  31   0.0000       0.064910         1.7663 
  32   0.0000       0.083469         2.2713 
  33   0.0000       0.095578         2.6008 
  34   0.0000       0.104559         2.8452 
  35   0.0000       0.146344         3.9822 
  36   0.0000       0.147545         4.0149 
  37   0.0000       0.263616         7.1734 
  38   0.0000       0.311933         8.4881 
  39   0.0000       0.341542         9.2938 
*Only the first 10 virtual orbitals were printed.

                    ********************************
                    * MULLIKEN POPULATION ANALYSIS *
                    ********************************

--------------------------------------------
MULLIKEN ATOMIC CHARGES AND SPIN POPULATIONS
--------------------------------------------
   0 C :   -0.045550   -0.266630
   1 C :   -0.007508    0.676481
   2 H :    0.016096    0.009386
   3 H :    0.039248   -0.031646
   4 H :    0.032643   -0.029391
   5 C :   -0.054215    0.639360
   6 H :    0.044710   -0.026929
   7 H :    0.048321   -0.028594
   8 H :    0.107769   -0.005859
   9 Br:   -0.181512    0.063823
Sum of atomic charges         :    0.0000000
Sum of atomic spin populations:    1.0000000

-----------------------------------------------------
MULLIKEN REDUCED ORBITAL CHARGES AND SPIN POPULATIONS
-----------------------------------------------------
CHARGE
  0 C s       :     3.139832  s :     3.139832
      pz      :     0.953808  p :     2.868542
      px      :     0.953023
      py      :     0.961711
      dz2     :     0.009098  d :     0.037176
      dxz     :     0.012442
      dyz     :     0.006130
      dx2y2   :     0.004953
      dxy     :     0.004554

  1 C s       :     3.134187  s :     3.134187
      pz      :     0.957252  p :     2.848750
      px      :     0.936238
      py      :     0.955261
      dz2     :     0.006427  d :     0.024571
      dxz     :     0.009674
      dyz     :     0.004239
      dx2y2   :     0.003012
      dxy     :     0.001219

  2 H s       :     0.961453  s :     0.961453
      pz      :     0.006090  p :     0.022451
      px      :     0.011837
      py      :     0.004524

  3 H s       :     0.937276  s :     0.937276
      pz      :     0.006310  p :     0.023476
      px      :     0.012369
      py      :     0.004797

  4 H s       :     0.944046  s :     0.944046
      pz      :     0.006854  p :     0.023311
      px      :     0.011293
      py      :     0.005165

  5 C s       :     3.127020  s :     3.127020
      pz      :     0.956042  p :     2.902450
      px      :     0.962079
      py      :     0.984330
      dz2     :     0.006122  d :     0.024745
      dxz     :     0.007516
      dyz     :     0.002558
      dx2y2   :     0.004981
      dxy     :     0.003569

  6 H s       :     0.931972  s :     0.931972
      pz      :     0.006063  p :     0.023318
      px      :     0.012412
      py      :     0.004843

  7 H s       :     0.928052  s :     0.928052
      pz      :     0.013198  p :     0.023628
      px      :     0.003748
      py      :     0.006681

  8 H s       :     0.853381  s :     0.853381
      pz      :     0.010972  p :     0.038850
      px      :     0.007571
      py      :     0.020307

  9 Brs       :     7.940960  s :     7.940960
      pz      :     5.821824  p :    17.221960
      px      :     5.954584
      py      :     5.445552
      dz2     :     2.000925  d :    10.018592
      dxz     :     2.000687
      dyz     :     2.008523
      dx2y2   :     2.006278
      dxy     :     2.002180


SPIN
  0 C s       :    -0.036963  s :    -0.036963
      pz      :    -0.052537  p :    -0.238436
      px      :    -0.023586
      py      :    -0.162312
      dz2     :     0.001950  d :     0.008768
      dxz     :     0.000200
      dyz     :     0.003990
      dx2y2   :     0.000593
      dxy     :     0.002035

  1 C s       :     0.067401  s :     0.067401
      pz      :     0.072987  p :     0.611351
      px      :     0.031783
      py      :     0.506581
      dz2     :    -0.000439  d :    -0.002271
      dxz     :    -0.000025
      dyz     :    -0.000863
      dx2y2   :    -0.000925
      dxy     :    -0.000019

  2 H s       :     0.010322  s :     0.010322
      pz      :    -0.000128  p :    -0.000937
      px      :    -0.000057
      py      :    -0.000751

  3 H s       :    -0.034908  s :    -0.034908
      pz      :     0.000281  p :     0.003262
      px      :     0.000186
      py      :     0.002795

  4 H s       :    -0.032288  s :    -0.032288
      pz      :     0.000243  p :     0.002897
      px      :     0.000152
      py      :     0.002502

  5 C s       :     0.059472  s :     0.059472
      pz      :     0.087618  p :     0.582101
      px      :     0.023197
      py      :     0.471285
      dz2     :    -0.000196  d :    -0.002213
      dxz     :    -0.000123
      dyz     :    -0.000607
      dx2y2   :    -0.000769
      dxy     :    -0.000519

  6 H s       :    -0.029602  s :    -0.029602
      pz      :     0.000277  p :     0.002673
      px      :     0.000103
      py      :     0.002293

  7 H s       :    -0.031646  s :    -0.031646
      pz      :     0.000681  p :     0.003052
      px      :    -0.000077
      py      :     0.002448

  8 H s       :    -0.009883  s :    -0.009883
      pz      :     0.000761  p :     0.004024
      px      :     0.000027
      py      :     0.003236

  9 Brs       :    -0.000008  s :    -0.000008
      pz      :     0.012080  p :     0.064148
      px      :     0.001017
      py      :     0.051051
      dz2     :     0.000001  d :    -0.000317
      dxz     :    -0.000010
      dyz     :    -0.000169
      dx2y2   :    -0.000120
      dxy     :    -0.000019



                     *******************************
                     * LOEWDIN POPULATION ANALYSIS *
                     *******************************

-------------------------------------------
LOEWDIN ATOMIC CHARGES AND SPIN POPULATIONS
-------------------------------------------
   0 C :   -0.042733   -0.149595
   1 C :   -0.004345    0.562751
   2 H :    0.034897    0.000587
   3 H :    0.027990   -0.001852
   4 H :    0.026302   -0.002062
   5 C :   -0.043820    0.520673
   6 H :    0.028180   -0.000829
   7 H :    0.030255   -0.000515
   8 H :    0.022872    0.012647
   9 Br:   -0.079598    0.058196

----------------------------------------------------
LOEWDIN REDUCED ORBITAL CHARGES AND SPIN POPULATIONS
----------------------------------------------------
CHARGE
  0 C s       :     2.872835  s :     2.872835
      pz      :     1.060151  p :     3.073353
      px      :     1.061714
      py      :     0.951488
      dz2     :     0.024836  d :     0.096544
      dxz     :     0.033736
      dyz     :     0.014586
      dx2y2   :     0.012856
      dxy     :     0.010531

  1 C s       :     2.902919  s :     2.902919
      pz      :     1.043399  p :     3.038582
      px      :     1.049439
      py      :     0.945744
      dz2     :     0.017139  d :     0.062845
      dxz     :     0.025655
      dyz     :     0.009503
      dx2y2   :     0.007405
      dxy     :     0.003143

  2 H s       :     0.900457  s :     0.900457
      pz      :     0.017528  p :     0.064645
      px      :     0.033502
      py      :     0.013614

  3 H s       :     0.902451  s :     0.902451
      pz      :     0.017582  p :     0.069559
      px      :     0.036416
      py      :     0.015562

  4 H s       :     0.904654  s :     0.904654
      pz      :     0.019084  p :     0.069044
      px      :     0.033334
      py      :     0.016626

  5 C s       :     2.907330  s :     2.907330
      pz      :     1.040218  p :     3.073640
      px      :     1.059233
      py      :     0.974188
      dz2     :     0.015394  d :     0.062851
      dxz     :     0.020781
      dyz     :     0.006116
      dx2y2   :     0.013042
      dxy     :     0.007517

  6 H s       :     0.901213  s :     0.901213
      pz      :     0.017926  p :     0.070607
      px      :     0.036115
      py      :     0.016566

  7 H s       :     0.898458  s :     0.898458
      pz      :     0.039295  p :     0.071287
      px      :     0.010455
      py      :     0.021536

  8 H s       :     0.871355  s :     0.871355
      pz      :     0.029019  p :     0.105773
      px      :     0.018879
      py      :     0.057875

  9 Brs       :     7.826534  s :     7.826534
      pz      :     5.820027  p :    17.223056
      px      :     5.949128
      py      :     5.453902
      dz2     :     2.001054  d :    10.030009
      dxz     :     2.000962
      dyz     :     2.014428
      dx2y2   :     2.010465
      dxy     :     2.003099


SPIN
  0 C s       :    -0.009395  s :    -0.009395
      pz      :    -0.024574  p :    -0.161602
      px      :    -0.008405
      py      :    -0.128623
      dz2     :     0.004923  d :     0.021401
      dxz     :     0.001074
      dyz     :     0.009035
      dx2y2   :     0.001317
      dxy     :     0.005052

  1 C s       :     0.018584  s :     0.018584
      pz      :     0.063095  p :     0.548832
      px      :     0.014250
      py      :     0.471487
      dz2     :    -0.001134  d :    -0.004665
      dxz     :    -0.000681
      dyz     :    -0.001667
      dx2y2   :    -0.001103
      dxy     :    -0.000080

  2 H s       :     0.004718  s :     0.004718
      pz      :    -0.000651  p :    -0.004131
      px      :    -0.000544
      py      :    -0.002936

  3 H s       :    -0.015622  s :    -0.015622
      pz      :     0.001722  p :     0.013770
      px      :     0.001679
      py      :     0.010369

  4 H s       :    -0.014972  s :    -0.014972
      pz      :     0.001732  p :     0.012910
      px      :     0.001453
      py      :     0.009725

  5 C s       :     0.017533  s :     0.017533
      pz      :     0.070445  p :     0.507585
      px      :     0.011849
      py      :     0.425291
      dz2     :    -0.000626  d :    -0.004445
      dxz     :    -0.000737
      dyz     :    -0.000815
      dx2y2   :    -0.000958
      dxy     :    -0.001308

  6 H s       :    -0.013947  s :    -0.013947
      pz      :     0.001870  p :     0.013118
      px      :     0.001540
      py      :     0.009708

  7 H s       :    -0.014512  s :    -0.014512
      pz      :     0.003210  p :     0.013996
      px      :     0.000221
      py      :     0.010565

  8 H s       :    -0.002643  s :    -0.002643
      pz      :     0.003144  p :     0.015289
      px      :     0.000244
      py      :     0.011900

  9 Brs       :     0.000350  s :     0.000350
      pz      :     0.010824  p :     0.057839
      px      :     0.000852
      py      :     0.046163
      dz2     :     0.000016  d :     0.000007
      dxz     :    -0.000017
      dyz     :    -0.000011
      dx2y2   :     0.000041
      dxy     :    -0.000023



                      *****************************
                      * MAYER POPULATION ANALYSIS *
                      *****************************

  NA   - Mulliken gross atomic population
  ZA   - Total nuclear charge
  QA   - Mulliken gross atomic charge
  VA   - Mayer's total valence
  BVA  - Mayer's bonded valence
  FA   - Mayer's free valence

  ATOM       NA         ZA         QA         VA         BVA        FA
  0 C      6.0456     6.0000    -0.0456     4.1169     4.0833     0.0336
  1 C      6.0075     6.0000    -0.0075     3.9188     3.5939     0.3249
  2 H      0.9839     1.0000     0.0161     0.9788     0.9787     0.0001
  3 H      0.9608     1.0000     0.0392     0.9765     0.9753     0.0012
  4 H      0.9674     1.0000     0.0326     0.9851     0.9841     0.0011
  5 C      6.0542     6.0000    -0.0542     3.9104     3.6174     0.2930
  6 H      0.9553     1.0000     0.0447     0.9866     0.9857     0.0009
  7 H      0.9517     1.0000     0.0483     0.9784     0.9774     0.0010
  8 H      0.8922     1.0000     0.1078     1.0387     1.0385     0.0002
  9 Br    35.1815    35.0000    -0.1815     0.9630     0.9588     0.0042

  Mayer bond orders larger than 0.100000
B(  0-C ,  1-C ) :   1.5511 B(  0-C ,  2-H ) :   0.9630 B(  0-C ,  5-C ) :   1.4711 
B(  1-C ,  3-H ) :   0.9562 B(  1-C ,  4-H ) :   0.9594 B(  1-C ,  5-C ) :   0.1100 
B(  5-C ,  6-H ) :   0.9554 B(  5-C ,  7-H ) :   0.9475 B(  5-C ,  8-H ) :   0.1197 
B(  8-H ,  9-Br) :   0.8873 

-------
TIMINGS
-------

Total SCF time: 0 days 0 hours 0 min 2 sec 

Total time                  ....       2.797 sec
Sum of individual times     ....       2.616 sec  ( 93.5%)

SCF preparation             ....       0.307 sec  ( 11.0%)
Fock matrix formation       ....       2.146 sec  ( 76.7%)
  Startup                   ....       0.004 sec  (  0.2% of F)
  Split-RI-J                ....       0.131 sec  (  6.1% of F)
  Chain of spheres X        ....       1.605 sec  ( 74.8% of F)
  XC integration            ....       0.467 sec  ( 21.8% of F)
    XC Preparation          ....       0.000 sec  (  0.0% of XC)
    Basis function eval.    ....       0.106 sec  ( 22.6% of XC)
    Density eval.           ....       0.092 sec  ( 19.8% of XC)
    XC-Functional eval.     ....       0.036 sec  (  7.7% of XC)
    XC-Potential eval.      ....       0.118 sec  ( 25.2% of XC)
Diagonalization             ....       0.000 sec  (  0.0%)
Density matrix formation    ....       0.025 sec  (  0.9%)
Total Energy calculation    ....       0.012 sec  (  0.4%)
Population analysis         ....       0.009 sec  (  0.3%)
Orbital Transformation      ....       0.014 sec  (  0.5%)
Orbital Orthonormalization  ....       0.000 sec  (  0.0%)
DIIS solution               ....       0.062 sec  (  2.2%)
SOSCF solution              ....       0.040 sec  (  1.4%)
Finished LeanSCF after   2.8 sec

Maximum memory used throughout the entire LEANSCF-calculation: 9.1 MB

-------------------------   --------------------
FINAL SINGLE POINT ENERGY     -2691.425652275152
-------------------------   --------------------



           ************************************************************
           *        Program running with 8 parallel MPI-processes     *
           *              working on a common directory               *
           ************************************************************

------------------------------------------------------------------------------
                              ORCA PROPERTY CALCULATIONS
------------------------------------------------------------------------------

GBWName                                 ... radical_032.gbw
Number of atoms                         ...     10
Number of basis functions               ...    104
Max core memory                         ...   1200 MB

Electric properties:
Dipole moment                           ... YES
Quadrupole moment                       ...  NO
Static polarizability (Dipole/Dipole)   ...  NO
Static polarizability (Dipole/Quad.)    ...  NO
Static polarizability (Quad./Quad.)     ...  NO
Static polarizability (Velocity)        ...  NO
Static hyperpolarizability              ...  NO

Atomic electric properties:
Dipole moment                           ...  NO
Quadrupole moment                       ...  NO
Static polarizability                   ...  NO

Choice of electric origin               ... Center of mass
Position of electric origin             ...    -1.074351    -2.632359    -2.320730

General magnetic properties:
Magnetizability                         ...  NO

EPR properties:
g-Tensor (aka g-matrix)                 ...  NO
Zero-Field splitting spin-orbit         ...  NO
Zero-field splitting spin-spin          ...  NO
Hyperfine couplings                     ...  NO (   0 nuclei)
Quadrupole couplings                    ...  NO (   0 nuclei)
Contact density                         ...  NO (   0 nuclei)

NMR properties:
Chemical shifts                         ...  NO (   0 nuclei)
Spin-rotation constants                 ...  NO (   0 nuclei)
Spin-spin couplings                     ...  NO (   0 nuclei,    0 pairs)

Choice of magnetic origin               ... GIAO
Position of magnetic origin             ...     0.000000     0.000000     0.000000

Properties with geometric perturbations:
SCF Hessian                             ...  NO
IR spectrum                             ...  NO
VCD spectrum                            ...  NO
X-ray spectroscopy properties:
SCF XES/XAS/RIXS spectra                ...  NO

SCF SOC stabilization energy            ...  NO
Diagonal Born-Oppenheimer correction    ...  NO

-------------
DIPOLE MOMENT
-------------

Method             : SCF
Type of density    : Electron Density
Multiplicity       :   2
Irrep              :   0
Energy             : -2691.4256522751520606 Eh
Basis              : AO
                                X                 Y                 Z
Electronic contribution:     -6.972645720     -16.601528773     -14.838156084
Nuclear contribution   :      7.265094457      17.323047954      15.402455818
                        -----------------------------------------
Total Dipole Moment    :      0.292448737       0.721519180       0.564299734
                        -----------------------------------------
Magnitude (a.u.)       :      0.961535429
Magnitude (Debye)      :      2.444028831



--------------------
Rotational spectrum 
--------------------
 
Rotational constants in cm-1:             0.376767             0.039337             0.037053 
Rotational constants in MHz :         11295.197539          1179.289545          1110.825853 

Dipole components along the rotational axes: 
x,y,z [a.u.] :    -0.954254    -0.117564     0.011331 
x,y,z [Debye]:    -2.425521    -0.298824     0.028801 

 

Dipole moment calculation done in   0.0 sec 

Maximum memory used throughout the entire PROP-calculation: 5.2 MB

--------------------------------
SUGGESTED CITATIONS FOR THIS RUN
--------------------------------

Below you find a list of papers that are relevant to this ORCA run
We neither can nor want to force you to cite these papers, but we appreciate if you do
You receive ORCA, which is the product of decades of hard work by many enthusiastic individuals, for free
The only thing we kindly ask in return is that you cite our papers,
We deeply appreciate it, if you show your appreciation for ORCA by not just citing the generic ORCA reference.

Please note that relegating all ORCA citations to the supporting information does *not* help us.
SI sections are not indexed - citations you put there will not count into any citation statistics
But we need these citations in order to attract the funding resources that allow us to do what we are doing

Therefore, if you are a happy ORCA user, please consider citing a few of the papers listed below in the main body of your paper

In addition to the list printed below, the program has created the file radical_032.bibtex that contains the list in bibtex format
You can import this file easily into all common literature databanks and citation aid programs


List of essential papers. We consider these as the minimum necessary citations

  1. Neese, F.
     Software update: the ORCA program system, version 6.0
     WIRES Comput. Molec. Sci. 2025 15(1), e70019
     doi.org/10.1002/wcms.7019

List of papers to cite with high priority. The work reported in these papers was absolutely
necessary for this run to complete.
Our perspective: the developers of density functionals and basis sets usually get cited in chemistry papers
Good! But without the algorithms to do something with them, the functionals or basis sets would not do anything.
Hence, in our opinion, the algorithm design and method developments papers are equally worthy of getting cited

  1. Neese, F.
     An improvement of the resolution of the identity approximation for the formation of the Coulomb matrix
     J. Comp. Chem. 2003 24(14), 1740-1747
     doi.org/10.1002/jcc.10318
  2. Neese, F.; Wennmohs, F.; Hansen, A.; Becker, U.
     Efficient, approximate and parallel Hartree-Fock and hybrid DFT calculations. A 'chain-of-spheres' algorithm for the Hartree-Fock exchange
     Chem. Phys. 2009 356(1-3), 98-109
     doi.org/10.1016/j.chemphys.2008.10.036
  3. Helmich-Paris, B.; de Souza, B.; Neese, F.; Izsák, R.
     An improved chain of spheres for exchange algorithm
     J. Chem. Phys. 2021 155(10), 104109
     doi.org/10.1063/5.0058766
  4. Neese, F.
     The SHARK Integral Generation and Digestion System
     J. Comp. Chem. 2022 44(3), 381
     doi.org/10.1002/jcc.26942

List of suggested additional citations. These are papers that are important in the 'surrounding' of 
of this run, or papers that preceded the highly important papers. If you like your results we are grateful for a citation.

  1. Izsak, R.; Neese, F.
     An overlap fitted chain of spheres exchange method
     J. Chem. Phys. 2011 135 , 144105
     doi.org/10.1063/1.3646921
  2. Izsak, R.; Hansen, A.; Neese, F.
     The resolution of identity and chain of spheres approximations for the LPNO-CCSD singles Fock term
     Molec. Phys. 2012 110 , 2413-2417
     doi.org/10.1080/00268976.2012.687466
  3. Neese, F.
     The ORCA program system
     WIRES Comput. Molec. Sci. 2012 2(1), 73-78
     doi.org/10.1002/wcms.81
  4. Izsak, R.; Neese, F.; Klopper, W.
     Robust fitting techniques in the chain of spheres approximation to the Fock exchange: The role of the complementary space
     J. Chem. Phys. 2013 139 , 
     doi.org/10.1063/1.4819264
  5. Neese, F.
     Software update: the ORCA program system, version 4.0
     WIRES Comput. Molec. Sci. 2018 8(1), 1-6
     doi.org/10.1002/wcms.1327
  6. Neese, F.; Wennmohs, F.; Becker, U.; Riplinger, C.
     The ORCA quantum chemistry program package
     J. Chem. Phys. 2020 152(22), 224108
     doi.org/10.1063/5.0004608
  7. Neese, F.
     Software update: The ORCA program system—Version 5.0
     WIRES Comput. Molec. Sci. 2022 12(1), e1606
     doi.org/10.1002/wcms.1606

List of optional additional citations

  1. Neese, F.
     Approximate second-order SCF convergence for spin unrestricted wavefunctions
     Chem. Phys. Lett. 2000 325(1-3), 93-98
     doi.org/10.1016/s0009-2614(00)00662-x

Timings for individual modules:

Sum of individual times          ...        4.672 sec (=   0.078 min)
Startup calculation              ...        0.832 sec (=   0.014 min)  17.8 %
SCF iterations                   ...        3.393 sec (=   0.057 min)  72.6 %
Property calculations            ...        0.447 sec (=   0.007 min)   9.6 %
                             ****ORCA TERMINATED NORMALLY****
TOTAL RUN TIME: 0 days 0 hours 0 minutes 5 seconds 127 msec
