[Molden Format]
[Title]
 Molden file created by orca_2mkl for BaseName=radical_041

[Atoms] AU
C    1   6          1.1706059715         0.9587015314         0.3719018826 
C    2   6          1.3278330755         0.0964742986         2.8403623142 
H    3   1          2.9420258008         1.3911445702        -0.6144727983 
H    4   1          3.1464922787        -0.1103127631         3.7941297707 
H    5   1         -0.3752750438        -0.3947524510         3.9058787257 
C    6   6         -1.0756680202         1.2936498195        -0.9613074638 
H    7   1         -2.9058091994         0.9316746683        -0.0678203812 
H    8   1         -1.0870895250         2.0763233616        -2.8716505098 
H    9   1         -1.2863157924        -2.1217448189        -2.6180983955 
Br  10  35         -1.8740451865        -4.4567093273        -3.9409255865 
[GTO]
  1 0
s   5 1.0 
     1238.4016938000         0.8208956682
      186.2900499200         1.4766449896
       42.2511763460         2.1526124058
       11.6765579320         2.1081722461
        3.5930506482         0.8290999933
s   1 1.0 
        0.4024514736         0.3601183351
s   1 1.0 
        0.1309018267         0.1551027052
p   3 1.0 
        9.4680970621         1.3467645142
        2.0103545142         1.0678070931
        0.5477100471         0.5108735714
p   1 1.0 
        0.1526861379         0.1360471976
d   1 1.0 
        0.8000000000         1.9292013661

  2 0
s   5 1.0 
     1238.4016938000         0.8208956682
      186.2900499200         1.4766449896
       42.2511763460         2.1526124058
       11.6765579320         2.1081722461
        3.5930506482         0.8290999933
s   1 1.0 
        0.4024514736         0.3601183351
s   1 1.0 
        0.1309018267         0.1551027052
p   3 1.0 
        9.4680970621         1.3467645142
        2.0103545142         1.0678070931
        0.5477100471         0.5108735714
p   1 1.0 
        0.1526861379         0.1360471976
d   1 1.0 
        0.8000000000         1.9292013661

  3 0
s   3 1.0 
       13.0107010000         0.1634903809
        1.9622572000         0.2773515510
        0.4445379600         0.3157501452
s   1 1.0 
        0.1219496200         0.1470772262
p   1 1.0 
        0.8000000000         1.0784563492

  4 0
s   3 1.0 
       13.0107010000         0.1634903809
        1.9622572000         0.2773515510
        0.4445379600         0.3157501452
s   1 1.0 
        0.1219496200         0.1470772262
p   1 1.0 
        0.8000000000         1.0784563492

  5 0
s   3 1.0 
       13.0107010000         0.1634903809
        1.9622572000         0.2773515510
        0.4445379600         0.3157501452
s   1 1.0 
        0.1219496200         0.1470772262
p   1 1.0 
        0.8000000000         1.0784563492

  6 0
s   5 1.0 
     1238.4016938000         0.8208956682
      186.2900499200         1.4766449896
       42.2511763460         2.1526124058
       11.6765579320         2.1081722461
        3.5930506482         0.8290999933
s   1 1.0 
        0.4024514736         0.3601183351
s   1 1.0 
        0.1309018267         0.1551027052
p   3 1.0 
        9.4680970621         1.3467645142
        2.0103545142         1.0678070931
        0.5477100471         0.5108735714
p   1 1.0 
        0.1526861379         0.1360471976
d   1 1.0 
        0.8000000000         1.9292013661

  7 0
s   3 1.0 
       13.0107010000         0.1634903809
        1.9622572000         0.2773515510
        0.4445379600         0.3157501452
s   1 1.0 
        0.1219496200         0.1470772262
p   1 1.0 
        0.8000000000         1.0784563492

  8 0
s   3 1.0 
       13.0107010000         0.1634903809
        1.9622572000         0.2773515510
        0.4445379600         0.3157501452
s   1 1.0 
        0.1219496200         0.1470772262
p   1 1.0 
        0.8000000000         1.0784563492

  9 0
s   3 1.0 
       13.0107010000         0.1634903809
        1.9622572000         0.2773515510
        0.4445379600         0.3157501452
s   1 1.0 
        0.1219496200         0.1470772262
p   1 1.0 
        0.8000000000         1.0784563492

 10 0
s   6 1.0 
   113286.3877600000         7.5076141183
    17009.6263030000        13.8835270484
     3870.1842567000        22.7307285566
     1093.0357227000        30.8227297499
      356.3972179700        27.2481937511
      123.1253964300         9.6953381145
s   3 1.0 
      236.7408400700        -4.7631125758
       28.4686610700         5.6113863182
       11.8834437220         1.9900291396
s   3 1.0 
       21.2696333120        -1.5429794477
        3.6129226841         1.3310800628
        1.6626648969         0.4300130345
s   1 1.0 
        0.3482379323         0.3230852630
s   1 1.0 
        0.1301903139         0.1544699827
p   5 1.0 
     1560.2801881000       115.0180051576
      368.4785920500       143.9035925417
      117.2297884900       137.5255986684
       42.6489092480        78.9578527439
       16.0872250960        15.8580577654
p   3 1.0 
        8.6352810058         6.8437546680
        3.5613665502         3.7974971038
        1.5292626609         0.5585414278
p   1 1.0 
        0.5306429485         0.6455696201
p   1 1.0 
        0.1570275896         0.1408996918
d   4 1.0 
      104.8551864200       261.4493931636
       30.2811436880       176.6993802449
       10.6513942670        76.9545600188
        3.8699456233        17.5937671387
d   1 1.0 
        1.3240876762         4.6593398042
d   1 1.0 
        0.3890000000         0.5462379705

[5D]
[7F]
[9G]
[MO]
 Sym=     1a
 Ene= -4.82769519149933E+02
 Spin= Alpha
 Occup= 1.000000
  1       0.000005638206
  2      -0.000066749388
  3       0.000072505148
  4       0.000007665352
  5       0.000016606393
  6       0.000007047553
  7       0.000055567755
  8      -0.000065791305
  9       0.000143362516
 10      -0.000001579047
 11       0.000001349599
 12      -0.000002058503
 13      -0.000000569804
 14      -0.000007163842
 15       0.000001075748
 16      -0.000003629014
 17      -0.000174410648
 18      -0.000001016792
 19       0.000002812859
 20       0.000001812533
 21       0.000017182328
 22      -0.000031061151
 23       0.000094725833
 24      -0.000001824601
 25       0.000000192502
 26      -0.000000276406
 27      -0.000004942076
 28      -0.000001495157
 29      -0.000004769455
 30      -0.000003492141
 31      -0.000002470131
 32       0.000005087819
 33      -0.000001239110
 34      -0.000000467827
 35      -0.000012596572
 36       0.000002201199
 37       0.000001647766
 38      -0.000002413406
 39       0.000001545195
 40       0.000005433930
 41      -0.000001036522
 42       0.000001549632
 43      -0.000003162168
 44       0.000008279890
 45      -0.000143759650
 46       0.000582692101
 47      -0.000007977198
 48       0.000024474629
 49       0.000006373975
 50       0.000073629899
 51      -0.000193353748
 52      -0.000091394086
 53      -0.000000991543
 54       0.000002199380
 55       0.000007338256
 56      -0.000004454287
 57       0.000003049359
 58      -0.000026258545
 59      -0.000038836537
 60      -0.000004573287
 61       0.000008781957
 62       0.000000183115
 63      -0.000041500854
 64      -0.000063994622
 65      -0.000006434019
 66       0.000006149434
 67      -0.000000515079
 68       0.000138974892
 69      -0.000853273651
 70      -0.000029039196
 71      -0.000147373915
 72      -0.000080080944
 73      -0.994982028156
 74      -0.015688761939
 75       0.003922239483
 76      -0.002310756525
 77       0.001643062069
 78      -0.000003388328
 79      -0.000012359368
 80      -0.000007096124
 81       0.000010899231
 82       0.000039327660
 83       0.000022641392
 84      -0.000041123160
 85      -0.000148278300
 86      -0.000085353575
 87       0.000090906515
 88       0.000338668635
 89       0.000193790776
 90      -0.000001228280
 91       0.000001626766
 92       0.000005973439
 93      -0.000004825833
 94       0.000002854762
 95       0.000003534841
 96      -0.000004725184
 97      -0.000017243914
 98       0.000013914068
 99      -0.000008325841
100      -0.000000777089
101       0.000001698196
102       0.000004727941
103      -0.000003489254
104       0.000003109617
 Sym=     1a
 Ene= -6.24525902478817E+01
 Spin= Alpha
 Occup= 1.000000
  1      -0.000013530296
  2       0.000162331028
  3      -0.000175083352
  4      -0.000018611213
  5      -0.000039935835
  6      -0.000017193226
  7      -0.000134344874
  8       0.000159591865
  9      -0.000341535429
 10       0.000003777994
 11      -0.000003143035
 12       0.000004548067
 13       0.000001610855
 14       0.000016782305
 15      -0.000002585453
 16       0.000009100723
 17       0.000417042621
 18       0.000002340817
 19      -0.000006869670
 20      -0.000004471705
 21      -0.000040384002
 22       0.000074091703
 23      -0.000226470081
 24       0.000004304872
 25      -0.000000343910
 26       0.000000761027
 27       0.000011671488
 28       0.000003429694
 29       0.000012190565
 30       0.000009237214
 31       0.000005780956
 32      -0.000012176690
 33       0.000002750947
 34       0.000000979507
 35       0.000029996219
 36      -0.000005145645
 37      -0.000003888918
 38       0.000005677932
 39      -0.000003242460
 40      -0.000013239406
 41       0.000002429050
 42      -0.000003607997
 43       0.000007431862
 44      -0.000019729209
 45       0.000347208793
 46      -0.001416491022
 47       0.000019230984
 48      -0.000057929549
 49      -0.000014993906
 50      -0.000176009442
 51       0.000469532391
 52       0.000221488942
 53       0.000002524348
 54      -0.000005384445
 55      -0.000017655143
 56       0.000010747544
 57      -0.000007126705
 58       0.000062471600
 59       0.000096924344
 60       0.000011207681
 61      -0.000020138320
 62      -0.000000182130
 63       0.000098909316
 64       0.000156255398
 65       0.000015397378
 66      -0.000013887634
 67       0.000001822427
 68      -0.000361777239
 69       0.002114471176
 70       0.000072762966
 71       0.000365782848
 72       0.000199186474
 73       0.347186671875
 74      -1.046958391537
 75      -0.018586956179
 76       0.006258511290
 77      -0.004193856608
 78      -0.000089346649
 79      -0.000370975893
 80      -0.000206753180
 81      -0.000037218364
 82      -0.000139182100
 83      -0.000079563205
 84       0.000104724755
 85       0.000380804885
 86       0.000219007008
 87      -0.000224633395
 88      -0.000839136771
 89      -0.000480118839
 90       0.000010087963
 91      -0.000011030551
 92      -0.000045492733
 93       0.000038095631
 94      -0.000019929333
 95      -0.000010337903
 96       0.000013190538
 97       0.000049320080
 98      -0.000040220741
 99       0.000022914240
100       0.000001250439
101      -0.000003502887
102      -0.000008718614
103       0.000006177519
104      -0.000005852385
 Sym=     1a
 Ene= -5.62843542674675E+01
 Spin= Alpha
 Occup= 1.000000
  1      -0.000015423448
  2       0.000178975899
  3      -0.000077531417
  4      -0.000022662614
  5      -0.000045095635
  6      -0.000020721403
  7      -0.000190284385
  8       0.000183746244
  9      -0.000416327256
 10       0.000005390009
 11      -0.000001769215
 12       0.000004931918
 13       0.000003960852
 14       0.000020366488
 15      -0.000002950143
 16       0.000012355982
 17       0.000455465425
 18       0.000003502439
 19      -0.000008099744
 20      -0.000004527680
 21      -0.000047473386
 22       0.000085555610
 23      -0.000254169958
 24       0.000004809834
 25      -0.000001683813
 26       0.000000495133
 27       0.000013192779
 28       0.000004230269
 29       0.000010597538
 30       0.000000716497
 31       0.000007908129
 32      -0.000013266035
 33       0.000004504584
 34       0.000003413741
 35       0.000040212506
 36      -0.000006513751
 37      -0.000004226192
 38       0.000004963495
 39      -0.000003553651
 40      -0.000014885744
 41       0.000002467501
 42      -0.000004481691
 43       0.000008853782
 44      -0.000020442938
 45       0.000395128142
 46      -0.001729392993
 47       0.000026933754
 48      -0.000061501256
 49      -0.000012181762
 50      -0.000261805352
 51       0.000550044298
 52       0.000232887151
 53       0.000002888802
 54      -0.000007109262
 55      -0.000023119526
 56       0.000015421256
 57      -0.000007729835
 58       0.000070369145
 59       0.000110286358
 60       0.000018035593
 61      -0.000028074624
 62       0.000000146918
 63       0.000116419671
 64       0.000190646986
 65       0.000023205311
 66      -0.000022788587
 67       0.000005311427
 68      -0.000661122221
 69       0.002471873826
 70       0.000197076301
 71       0.000867326171
 72       0.000482473873
 73      -0.000187486686
 74       0.000558934128
 75      -0.000274201775
 76       0.000961337904
 77      -0.001742819844
 78      -0.188747444418
 79      -0.853585467756
 80      -0.466092200052
 81      -0.004563878657
 82      -0.020599079954
 83      -0.011253106058
 84       0.001252410430
 85       0.005533090526
 86       0.003037470594
 87      -0.000640119722
 88      -0.002699775500
 89      -0.001497943492
 90       0.000010488223
 91      -0.000011740928
 92      -0.000047249667
 93       0.000039575324
 94      -0.000020772218
 95      -0.000004859152
 96       0.000007094144
 97       0.000023776616
 98      -0.000018964122
 99       0.000011876225
100      -0.000040799562
101       0.000045422435
102       0.000187146704
103      -0.000155915770
104       0.000080689048
 Sym=     1a
 Ene= -5.62821773999437E+01
 Spin= Alpha
 Occup= 1.000000
  1      -0.000001019347
  2       0.000015652830
  3      -0.000142818889
  4      -0.000003046287
  5      -0.000008240627
  6       0.000001921603
  7       0.000061304773
  8       0.000092908271
  9      -0.000087299298
 10      -0.000000994820
 11      -0.000000297999
 12       0.000001307129
 13      -0.000003633430
 14      -0.000003891042
 15      -0.000000141812
 16       0.000001519103
 17       0.000166648609
 18      -0.000005117620
 19       0.000008046809
 20      -0.000001370708
 21       0.000014147413
 22      -0.000020551245
 23      -0.000048105156
 24       0.000000918436
 25       0.000002390133
 26       0.000001946188
 27       0.000002779545
 28      -0.000001011906
 29      -0.000006998798
 30      -0.000035299905
 31       0.000001144607
 32      -0.000005790663
 33      -0.000003004134
 34      -0.000010221395
 35      -0.000027288024
 36       0.000001779705
 37       0.000003443867
 38       0.000005467202
 39       0.000001129680
 40      -0.000028671790
 41       0.000000625429
 42       0.000003230979
 43       0.000005950962
 44       0.000002924046
 45      -0.000042974367
 46       0.000151145779
 47       0.000013276782
 48       0.000019952598
 49      -0.000007244596
 50      -0.000045839259
 51      -0.000109483870
 52       0.000037322857
 53      -0.000003612399
 54      -0.000003972024
 55      -0.000000386520
 56       0.000002399944
 57       0.000001543242
 58      -0.000095735806
 59       0.000108057919
 60       0.000012874527
 61       0.000005150640
 62      -0.000010504843
 63       0.000046626283
 64      -0.000100143659
 65       0.000008462349
 66       0.000018024972
 67      -0.000007985144
 68       0.000001947969
 69      -0.000136616970
 70       0.000021977581
 71      -0.000001367427
 72      -0.000021280392
 73       0.000001209122
 74      -0.000003448891
 75       0.000004201313
 76      -0.000028835220
 77       0.000091972732
 78       0.678821064531
 79       0.224426161111
 80      -0.685903317394
 81       0.016213946353
 82       0.005362184925
 83      -0.016380419133
 84      -0.003919938072
 85      -0.001303949512
 86       0.003949413971
 87       0.001446059144
 88       0.000520747111
 89      -0.001416821338
 90      -0.000021978319
 91       0.000007465539
 92      -0.000017385099
 93      -0.000002775953
 94       0.000024413474
 95       0.000006938394
 96      -0.000003956020
 97       0.000002025228
 98       0.000003843805
 99      -0.000008772558
100      -0.000001018419
101       0.000003434252
102       0.000008200540
103      -0.000007569267
104       0.000003541518
 Sym=     1a
 Ene= -5.62821560366465E+01
 Spin= Alpha
 Occup= 1.000000
  1       0.000007455343
  2      -0.000084252668
  3       0.000374985300
  4       0.000018235884
  5       0.000025011401
  6       0.000017291637
  7      -0.000219377550
  8      -0.000126762682
  9      -0.000119414902
 10       0.000008106310
 11       0.000007014589
 12      -0.000004537882
 13       0.000010997239
 14       0.000009268958
 15       0.000000550822
 16       0.000005221903
 17      -0.000091178867
 18      -0.000000530222
 19       0.000003630065
 20       0.000003254864
 21       0.000102599843
 22       0.000037551351
 23       0.000028919746
 24      -0.000003610866
 25      -0.000003220408
 26      -0.000006629924
 27      -0.000003651309
 28       0.000002631415
 29      -0.000000551694
 30       0.000026010044
 31       0.000003219777
 32       0.000014993242
 33       0.000018027437
 34      -0.000009217249
 35      -0.000028183103
 36      -0.000001077217
 37      -0.000002090597
 38      -0.000002905167
 39       0.000012218646
 40       0.000066691564
 41       0.000001463794
 42      -0.000001627514
 43      -0.000005519886
 44      -0.000003586758
 45       0.000067713234
 46      -0.000481653609
 47      -0.000020649885
 48      -0.000030602976
 49      -0.000033179685
 50      -0.000039978946
 51       0.000212785895
 52       0.000063828492
 53      -0.000004701067
 54       0.000006682195
 55       0.000003335926
 56       0.000002794690
 57       0.000000908355
 58       0.000059633269
 59      -0.000011440262
 60      -0.000008584178
 61      -0.000014485103
 62      -0.000014439027
 63       0.000091663417
 64      -0.000080376885
 65      -0.000006891544
 66      -0.000008168500
 67      -0.000015497436
 68      -0.000011300876
 69       0.000347958313
 70      -0.000024777687
 71       0.000047009849
 72      -0.000002749493
 73      -0.000004132300
 74       0.000011900043
 75      -0.000013150173
 76       0.000076199806
 77      -0.000229048682
 78      -0.696560586377
 79       0.450048262990
 80      -0.542114033498
 81      -0.016639902608
 82       0.010741253086
 83      -0.012952557217
 84       0.004031046426
 85      -0.002566351710
 86       0.003146007121
 87      -0.001506597022
 88       0.000831244139
 89      -0.001212960684
 90      -0.000016236801
 91      -0.000017947273
 92      -0.000011957491
 93      -0.000018594755
 94      -0.000020453536
 95       0.000003345417
 96       0.000007939141
 97       0.000011093987
 98       0.000000317611
 99       0.000010023704
100       0.000003478345
101      -0.000004480651
102      -0.000015122579
103       0.000011644944
104      -0.000007147634
 Sym=     1a
 Ene= -1.02138282031666E+01
 Spin= Alpha
 Occup= 1.000000
  1       0.133182011618
  2       0.003678866972
  3       0.003980181106
  4       0.001901186047
  5      -0.000689167901
  6       0.001145349213
  7       0.000776022894
  8       0.001197434178
  9      -0.003945743070
 10       0.000134726362
 11      -0.001081860720
 12       0.000344270189
 13      -0.000985314380
 14       0.000446564166
 15       0.026112933979
 16       0.000524432886
 17       0.003821143639
 18       0.000260885265
 19      -0.000106793159
 20       0.000178696902
 21      -0.004795018750
 22       0.000495251596
 23      -0.002025797172
 24       0.000044071110
 25       0.000049414655
 26      -0.000071627071
 27       0.000211119729
 28       0.000043137949
 29      -0.000874330843
 30      -0.000601552197
 31      -0.000207342129
 32       0.000038000781
 33      -0.000299636902
 34       0.000688478714
 35       0.001967614977
 36       0.000033639655
 37       0.000002855793
 38      -0.000062029330
 39      -0.000980842434
 40      -0.001708287343
 41      -0.000031063459
 42      -0.000069776984
 43       0.000107814865
 44       0.978573538862
 45       0.051148960552
 46      -0.041788889012
 47      -0.000726132281
 48      -0.000754464131
 49      -0.000736243699
 50      -0.001865322423
 51       0.004850552629
 52       0.001588362688
 53       0.000806831466
 54      -0.000219134941
 55      -0.001361153192
 56       0.001428242426
 57       0.000137046289
 58      -0.003184809847
 59       0.007476723560
 60      -0.002392462901
 61      -0.000922060189
 62       0.001363723317
 63      -0.003195455216
 64       0.007781933009
 65       0.000278984267
 66       0.000838384157
 67      -0.002839318108
 68       0.000695395564
 69       0.012769762994
 70      -0.000060892439
 71       0.000238114965
 72       0.000147570932
 73      -0.000013089263
 74       0.000024142219
 75      -0.000225195030
 76       0.002239203249
 77      -0.008325390583
 78       0.000009508512
 79       0.000022368821
 80       0.000011339097
 81      -0.000033396326
 82      -0.000080014281
 83      -0.000040845837
 84       0.000199468407
 85       0.000566939835
 86       0.000304666715
 87      -0.001184851016
 88      -0.004310568726
 89      -0.002419704186
 90       0.000012310338
 91      -0.000017702949
 92      -0.000059355225
 93       0.000047259254
 94      -0.000032000078
 95      -0.000057680038
 96       0.000082053923
 97       0.000278845658
 98      -0.000222542417
 99       0.000148151726
100       0.000180033097
101      -0.000242234221
102      -0.000867020488
103       0.000699670924
104      -0.000435339815
 Sym=     1a
 Ene= -1.02123711963094E+01
 Spin= Alpha
 Occup= 1.000000
  1      -0.667704540082
  2      -0.030023702287
  3       0.023035794010
  4       0.000210869551
  5      -0.000492127866
  6       0.002075901133
  7      -0.002406560889
  8      -0.002384909601
  9       0.005844508893
 10       0.000485217288
 11       0.000027483571
 12       0.000113869843
 13      -0.001239365923
 14      -0.000203407594
 15      -0.720738044475
 16      -0.032589989848
 17       0.008910748525
 18      -0.000060252454
 19       0.000730868806
 20      -0.001990742247
 21       0.000415284794
 22      -0.001301352205
 23       0.003765715790
 24       0.000334481670
 25      -0.000081645293
 26       0.000229479583
 27      -0.001238555296
 28      -0.000161846327
 29       0.003334339095
 30      -0.003316974267
 31      -0.001755599838
 32      -0.000168711566
 33       0.000388084678
 34       0.003217725040
 35      -0.004547819439
 36      -0.001773313792
 37       0.000137842351
 38      -0.000731612633
 39       0.003042376269
 40      -0.004595384129
 41       0.001649810496
 42       0.000377698435
 43      -0.000737407918
 44       0.109470134073
 45       0.007105450210
 46      -0.007246959920
 47       0.001155590197
 48       0.000088086317
 49       0.001006888348
 50       0.001957156613
 51      -0.000070980957
 52      -0.005306603932
 53      -0.000048372990
 54       0.000575403486
 55      -0.000319134514
 56       0.000942204833
 57      -0.000048604825
 58      -0.000042780616
 59       0.003429319616
 60      -0.000569958321
 61       0.000013182442
 62       0.000113371514
 63      -0.001732455036
 64      -0.000176317040
 65      -0.000301312503
 66       0.000268599738
 67      -0.000473451226
 68       0.000419342807
 69      -0.006212187409
 70      -0.000102628142
 71       0.000274406090
 72       0.000141840708
 73       0.000007439997
 74      -0.000013609780
 75       0.000128357965
 76      -0.001288048671
 77       0.004385135084
 78       0.000002486254
 79      -0.000019762451
 80      -0.000004955716
 81      -0.000007826024
 82       0.000068972901
 83       0.000017953367
 84      -0.000014862322
 85      -0.000434588949
 86      -0.000162591777
 87       0.000502328013
 88       0.002484090345
 89       0.001282903984
 90      -0.000008796113
 91       0.000007113201
 92       0.000036090382
 93      -0.000031158036
 94       0.000016585348
 95       0.000042056404
 96      -0.000036173703
 97      -0.000174421660
 98       0.000149479736
 99      -0.000081341433
100      -0.000127368881
101       0.000127833128
102       0.000549303027
103      -0.000462029738
104       0.000261018545
 Sym=     1a
 Ene= -1.02119731862997E+01
 Spin= Alpha
 Occup= 1.000000
  1      -0.716272574005
  2      -0.037541369945
  3       0.038019383666
  4      -0.000345879798
  5       0.000589598262
  6      -0.001235223390
  7      -0.003116126674
  8      -0.000537868288
  9       0.000595828618
 10      -0.001479037758
 11      -0.000090341684
 12       0.001634672971
 13      -0.001596717618
 14      -0.000218888122
 15       0.675374037857
 16       0.036232355846
 17      -0.032054840780
 18      -0.000133109166
 19       0.000504881354
 20      -0.001359416376
 21       0.001988495771
 22      -0.000923438057
 23       0.002995400743
 24       0.001374393348
 25       0.000114827608
 26      -0.001591729189
 27       0.001526832631
 28       0.000200584280
 29       0.003177174519
 30      -0.005856918513
 31      -0.001919953355
 32      -0.000572501697
 33       0.001463208669
 34      -0.003425191681
 35       0.005069137222
 36       0.002058199614
 37      -0.000251645508
 38       0.001140277315
 39      -0.002829729734
 40       0.006128532115
 41      -0.001922927103
 42      -0.000573350490
 43       0.001268150609
 44       0.078838732294
 45       0.005957754708
 46      -0.012332777756
 47       0.001612638316
 48       0.000036984769
 49       0.000897822738
 50      -0.003559149471
 51      -0.001232068597
 52      -0.000915727014
 53       0.000074939233
 54       0.000773936522
 55      -0.000447954909
 56       0.001166837286
 57      -0.000117716585
 58      -0.001011990935
 59       0.000424117871
 60      -0.000629075938
 61       0.000013062747
 62       0.000118148079
 63      -0.000341138940
 64       0.001945929392
 65      -0.000081089944
 66       0.000227963559
 67      -0.000462959755
 68       0.000196954834
 69      -0.003758952420
 70      -0.000151794033
 71       0.000166192345
 72      -0.000107252874
 73       0.000004684546
 74      -0.000008609570
 75       0.000080693986
 76      -0.000780729329
 77       0.002650934551
 78       0.000004091876
 79      -0.000013323592
 80      -0.000002629622
 81      -0.000013476424
 82       0.000046573884
 83       0.000009770665
 84       0.000027198598
 85      -0.000277361365
 86      -0.000095564608
 87       0.000241693924
 88       0.001504844713
 89       0.000773663377
 90      -0.000004691999
 91       0.000003320908
 92       0.000022956933
 93      -0.000020501138
 94       0.000009465287
 95       0.000021205564
 96      -0.000017514768
 97      -0.000109107843
 98       0.000095099419
 99      -0.000046080820
100      -0.000059424957
101       0.000066526018
102       0.000330080774
103      -0.000272940658
104       0.000146075466
 Sym=     1a
 Ene= -8.67050900970663E+00
 Spin= Alpha
 Occup= 1.000000
  1      -0.000036684104
  2       0.000388578108
  3      -0.000504063916
  4      -0.000042373017
  5      -0.000085755982
  6      -0.000040007756
  7      -0.000250095204
  8       0.000375257873
  9      -0.000649563795
 10       0.000007186402
 11      -0.000007966369
 12       0.000003061220
 13       0.000005457488
 14       0.000028300005
 15      -0.000008084500
 16       0.000027503603
 17       0.000866107770
 18       0.000002445423
 19      -0.000017061386
 20      -0.000012561288
 21      -0.000077806922
 22       0.000146319562
 23      -0.000466288088
 24       0.000008069298
 25       0.000001811991
 26       0.000003987810
 27       0.000022794979
 28       0.000004530910
 29       0.000040021636
 30       0.000034469863
 31       0.000009243864
 32      -0.000026356388
 33      -0.000000177072
 34      -0.000000819050
 35       0.000058623772
 36      -0.000008399157
 37      -0.000007656555
 38       0.000011467099
 39      -0.000000365544
 40      -0.000033120105
 41       0.000004050453
 42      -0.000005686244
 43       0.000013086667
 44      -0.000047063672
 45       0.000751746952
 46      -0.003151442671
 47       0.000041541820
 48      -0.000103194289
 49      -0.000023978455
 50      -0.000327375518
 51       0.001070365503
 52       0.000519761915
 53       0.000009210572
 54      -0.000013113601
 55      -0.000040944877
 56       0.000027299763
 57      -0.000012083363
 58       0.000114798370
 59       0.000240002923
 60       0.000022600479
 61      -0.000023447382
 62       0.000006958380
 63       0.000188772289
 64       0.000347208562
 65       0.000030672009
 66      -0.000008428834
 67       0.000010928124
 68      -0.001070124262
 69       0.005749688888
 70       0.000149264147
 71       0.000747319024
 72       0.000408581575
 73       0.136660188254
 74      -0.516878435305
 75       1.093418392788
 76       0.032199634714
 77      -0.013856315011
 78      -0.000374429557
 79      -0.001520148166
 80      -0.000851979007
 81       0.000880965657
 82       0.003583645897
 83       0.002007364280
 84       0.000312427828
 85       0.001182522258
 86       0.000675453971
 87      -0.000611950144
 88      -0.002324852329
 89      -0.001327550293
 90      -0.000168725459
 91       0.000180337886
 92       0.000745041253
 93      -0.000625265923
 94       0.000323682567
 95      -0.000130642057
 96       0.000152237469
 97       0.000595406917
 98      -0.000492518874
 99       0.000262208847
100       0.000013236430
101      -0.000023562863
102      -0.000073109611
103       0.000056150211
104      -0.000034602983
 Sym=     1a
 Ene= -6.50334674893642E+00
 Spin= Alpha
 Occup= 1.000000
  1      -0.000019225999
  2       0.000231719243
  3      -0.000336861893
  4      -0.000026266517
  5      -0.000049854931
  6      -0.000023911538
  7      -0.000099450016
  8       0.000218861628
  9      -0.000339986511
 10       0.000003570579
 11      -0.000004806050
 12       0.000001071305
 13       0.000002877049
 14       0.000015027196
 15      -0.000004502179