[Molden Format]
[Title]
 Molden file created by orca_2mkl for BaseName=radical_044

[Atoms] AU
C    1   6          1.1700163769         0.9663813784         0.3756510993 
C    2   6          1.3287514824         0.0981504857         2.8424542411 
H    3   1          2.9416629734         1.3997088090        -0.6100772953 
H    4   1          3.1487051480        -0.1175145094         3.7918658788 
H    5   1         -0.3735818491        -0.3912772447         3.9100814766 
C    6   6         -1.0754922757         1.3079739436        -0.9560464662 
H    7   1         -2.9064989495         0.9476636411        -0.0635307029 
H    8   1         -1.0850183851         2.0887388623        -2.8672342198 
H    9   1         -1.2869167253        -2.1537586694        -2.6289246365 
Br  10  35         -1.8788734367        -4.4816178074        -3.9562437066 
[GTO]
  1 0
s   5 1.0 
     1238.4016938000         0.8208956682
      186.2900499200         1.4766449896
       42.2511763460         2.1526124058
       11.6765579320         2.1081722461
        3.5930506482         0.8290999933
s   1 1.0 
        0.4024514736         0.3601183351
s   1 1.0 
        0.1309018267         0.1551027052
p   3 1.0 
        9.4680970621         1.3467645142
        2.0103545142         1.0678070931
        0.5477100471         0.5108735714
p   1 1.0 
        0.1526861379         0.1360471976
d   1 1.0 
        0.8000000000         1.9292013661

  2 0
s   5 1.0 
     1238.4016938000         0.8208956682
      186.2900499200         1.4766449896
       42.2511763460         2.1526124058
       11.6765579320         2.1081722461
        3.5930506482         0.8290999933
s   1 1.0 
        0.4024514736         0.3601183351
s   1 1.0 
        0.1309018267         0.1551027052
p   3 1.0 
        9.4680970621         1.3467645142
        2.0103545142         1.0678070931
        0.5477100471         0.5108735714
p   1 1.0 
        0.1526861379         0.1360471976
d   1 1.0 
        0.8000000000         1.9292013661

  3 0
s   3 1.0 
       13.0107010000         0.1634903809
        1.9622572000         0.2773515510
        0.4445379600         0.3157501452
s   1 1.0 
        0.1219496200         0.1470772262
p   1 1.0 
        0.8000000000         1.0784563492

  4 0
s   3 1.0 
       13.0107010000         0.1634903809
        1.9622572000         0.2773515510
        0.4445379600         0.3157501452
s   1 1.0 
        0.1219496200         0.1470772262
p   1 1.0 
        0.8000000000         1.0784563492

  5 0
s   3 1.0 
       13.0107010000         0.1634903809
        1.9622572000         0.2773515510
        0.4445379600         0.3157501452
s   1 1.0 
        0.1219496200         0.1470772262
p   1 1.0 
        0.8000000000         1.0784563492

  6 0
s   5 1.0 
     1238.4016938000         0.8208956682
      186.2900499200         1.4766449896
       42.2511763460         2.1526124058
       11.6765579320         2.1081722461
        3.5930506482         0.8290999933
s   1 1.0 
        0.4024514736         0.3601183351
s   1 1.0 
        0.1309018267         0.1551027052
p   3 1.0 
        9.4680970621         1.3467645142
        2.0103545142         1.0678070931
        0.5477100471         0.5108735714
p   1 1.0 
        0.1526861379         0.1360471976
d   1 1.0 
        0.8000000000         1.9292013661

  7 0
s   3 1.0 
       13.0107010000         0.1634903809
        1.9622572000         0.2773515510
        0.4445379600         0.3157501452
s   1 1.0 
        0.1219496200         0.1470772262
p   1 1.0 
        0.8000000000         1.0784563492

  8 0
s   3 1.0 
       13.0107010000         0.1634903809
        1.9622572000         0.2773515510
        0.4445379600         0.3157501452
s   1 1.0 
        0.1219496200         0.1470772262
p   1 1.0 
        0.8000000000         1.0784563492

  9 0
s   3 1.0 
       13.0107010000         0.1634903809
        1.9622572000         0.2773515510
        0.4445379600         0.3157501452
s   1 1.0 
        0.1219496200         0.1470772262
p   1 1.0 
        0.8000000000         1.0784563492

 10 0
s   6 1.0 
   113286.3877600000         7.5076141183
    17009.6263030000        13.8835270484
     3870.1842567000        22.7307285566
     1093.0357227000        30.8227297499
      356.3972179700        27.2481937511
      123.1253964300         9.6953381145
s   3 1.0 
      236.7408400700        -4.7631125758
       28.4686610700         5.6113863182
       11.8834437220         1.9900291396
s   3 1.0 
       21.2696333120        -1.5429794477
        3.6129226841         1.3310800628
        1.6626648969         0.4300130345
s   1 1.0 
        0.3482379323         0.3230852630
s   1 1.0 
        0.1301903139         0.1544699827
p   5 1.0 
     1560.2801881000       115.0180051576
      368.4785920500       143.9035925417
      117.2297884900       137.5255986684
       42.6489092480        78.9578527439
       16.0872250960        15.8580577654
p   3 1.0 
        8.6352810058         6.8437546680
        3.5613665502         3.7974971038
        1.5292626609         0.5585414278
p   1 1.0 
        0.5306429485         0.6455696201
p   1 1.0 
        0.1570275896         0.1408996918
d   4 1.0 
      104.8551864200       261.4493931636
       30.2811436880       176.6993802449
       10.6513942670        76.9545600188
        3.8699456233        17.5937671387
d   1 1.0 
        1.3240876762         4.6593398042
d   1 1.0 
        0.3890000000         0.5462379705

[5D]
[7F]
[9G]
[MO]
 Sym=     1a
 Ene= -4.82770245540631E+02
 Spin= Alpha
 Occup= 1.000000
  1       0.000005617681
  2      -0.000065949712
  3       0.000071176485
  4       0.000007663510
  5       0.000016567166
  6       0.000007074815
  7       0.000055729217
  8      -0.000065842605
  9       0.000142567592
 10      -0.000001499442
 11       0.000001268958
 12      -0.000002180034
 13      -0.000000560230
 14      -0.000007096676
 15       0.000001061834
 16      -0.000003487756
 17      -0.000173364649
 18      -0.000001029464
 19       0.000002824578
 20       0.000001810794
 21       0.000017230418
 22      -0.000031218223
 23       0.000094245923
 24      -0.000001864426
 25       0.000000236164
 26      -0.000000253811
 27      -0.000004881725
 28      -0.000001484404
 29      -0.000004632279
 30      -0.000003552434
 31      -0.000002490657
 32       0.000005167794
 33      -0.000001260924
 34      -0.000000540278
 35      -0.000012604859
 36       0.000002230263
 37       0.000001639556
 38      -0.000002388150
 39       0.000001603118
 40       0.000005327569
 41      -0.000001063790
 42       0.000001591940
 43      -0.000003182701
 44       0.000008317334
 45      -0.000141862121
 46       0.000568927263
 47      -0.000007845896
 48       0.000024990759
 49       0.000006557204
 50       0.000073581154
 51      -0.000187489305
 52      -0.000087744363
 53      -0.000000754856
 54       0.000002144673
 55       0.000006543324
 56      -0.000003599711
 57       0.000003003577
 58      -0.000026287630
 59      -0.000038310404
 60      -0.000004596493
 61       0.000009002070
 62       0.000000305386
 63      -0.000041054289
 64      -0.000063858134
 65      -0.000006337530
 66       0.000006570315
 67      -0.000000431883
 68       0.000141033012
 69      -0.000829580220
 70      -0.000029649718
 71      -0.000147762788
 72      -0.000080687063
 73      -0.994982043404
 74      -0.015688729548
 75       0.003922021343
 76      -0.002307166163
 77       0.001628256617
 78      -0.000003411350
 79      -0.000012337993
 80      -0.000007136690
 81       0.000010963442
 82       0.000039235705
 83       0.000022757570
 84      -0.000041222200
 85      -0.000147428244
 86      -0.000085498294
 87       0.000089400803
 88       0.000329950836
 89       0.000190161128
 90      -0.000001168452
 91       0.000001601207
 92       0.000005837250
 93      -0.000004678553
 94       0.000002790239
 95       0.000003319384
 96      -0.000004593263
 97      -0.000016643000
 98       0.000013322511
 99      -0.000008037287
100      -0.000000282226
101       0.000001083917
102       0.000002468667
103      -0.000001642322
104       0.000002011710
 Sym=     1a
 Ene= -6.24533111589803E+01
 Spin= Alpha
 Occup= 1.000000
  1       0.000013497254
  2      -0.000160608821
  3       0.000172861599
  4       0.000018615786
  5       0.000039910277
  6       0.000017279988
  7       0.000134455120
  8      -0.000159844831
  9       0.000339686923
 10      -0.000003583588
 11       0.000002970088
 12      -0.000004860036
 13      -0.000001557593
 14      -0.000016637207
 15       0.000002555596
 16      -0.000008761693
 17      -0.000414964708
 18      -0.000002376888
 19       0.000006910708
 20       0.000004476302
 21       0.000040662460
 22      -0.000074518988
 23       0.000225530220
 24      -0.000004406945
 25       0.000000440773
 26      -0.000000713571
 27      -0.000011538344
 28      -0.000003406524
 29      -0.000011881607
 30      -0.000009412277
 31      -0.000005820130
 32       0.000012386845
 33      -0.000002781354
 34      -0.000001165041
 35      -0.000030070874
 36       0.000005216381
 37       0.000003875313
 38      -0.000005627087
 39       0.000003399529
 40       0.000013046252
 41      -0.000002494662
 42       0.000003713115
 43      -0.000007485789
 44       0.000019843541
 45      -0.000342941281
 46       0.001383000718
 47      -0.000018891826
 48       0.000059250839
 49       0.000015416162
 50       0.000175746024
 51      -0.000455542052
 52      -0.000212900620
 53      -0.000001966686
 54       0.000005269942
 55       0.000015824595
 56      -0.000008779782
 57       0.000007024221
 58      -0.000062581223
 59      -0.000095538115
 60      -0.000011191748
 61       0.000020693595
 62       0.000000458163
 63      -0.000097894401
 64      -0.000155928517
 65      -0.000015160009
 66       0.000014905640
 67      -0.000001591502
 68       0.000366739577
 69      -0.002057769726
 70      -0.000074210269
 71      -0.000366520099
 72      -0.000200579472
 73      -0.347186701692
 74       1.046958471175
 75       0.018586382681
 76      -0.006249943471
 77       0.004158576682
 78       0.000090922183
 79       0.000372783731
 80       0.000209241569
 81       0.000037549120
 82       0.000139149235
 83       0.000080123925
 84      -0.000105058141
 85      -0.000378825607
 86      -0.000219484524
 87       0.000221138917
 88       0.000818347363
 89       0.000471586426
 90      -0.000009834990
 91       0.000011147195
 92       0.000045433884
 93      -0.000037733811
 94       0.000019997531
 95       0.000009804660
 96      -0.000012945167
 97      -0.000048019636
 98       0.000038856932
 99      -0.000022327811
100      -0.000000095864
101       0.000002061214
102       0.000003421522
103      -0.000001861262
104       0.000003286982
 Sym=     1a
 Ene= -5.62850783012099E+01
 Spin= Alpha
 Occup= 1.000000
  1       0.000015445969
  2      -0.000177586812
  3       0.000075777075
  4       0.000022837173
  5       0.000045077045
  6       0.000020955523
  7       0.000190965660
  8      -0.000184295721
  9       0.000414692441
 10      -0.000005157307
 11       0.000001550921
 12      -0.000005192307
 13      -0.000004035812
 14      -0.000020180469
 15       0.000002895996
 16      -0.000011689055
 17      -0.000454458226
 18      -0.000003584645
 19       0.000008138318
 20       0.000004464036
 21       0.000048165470
 22      -0.000086180396
 23       0.000253887172
 24      -0.000004936915
 25       0.000001799601
 26      -0.000000431756
 27      -0.000013075371
 28      -0.000004235172
 29      -0.000010246959
 30      -0.000001341347
 31      -0.000007968652
 32       0.000013536182
 33      -0.000004521345
 34      -0.000003694679
 35      -0.000040417400
 36       0.000006626577
 37       0.000004200241
 38      -0.000004940536
 39       0.000003872024
 40       0.000014710442
 41      -0.000002581491
 42       0.000004605957
 43      -0.000008962520
 44       0.000020936991
 45      -0.000392471812
 46       0.001695872302
 47      -0.000026442823
 48       0.000064335576
 49       0.000013296637
 50       0.000260809771
 51      -0.000535541460
 52      -0.000222888452
 53      -0.000001963555
 54       0.000006937403
 55       0.000019872898
 56      -0.000011893228
 57       0.000007577950
 58      -0.000071190625
 59      -0.000110058342
 60      -0.000018159034
 61       0.000028469834
 62       0.000000097368
 63      -0.000115535612
 64      -0.000190622312
 65      -0.000022860729
 66       0.000023663696
 67      -0.000005136964
 68       0.000669916119
 69      -0.002408634711
 70      -0.000199948765
 71      -0.000868854549
 72      -0.000486092083
 73       0.000188612116
 74      -0.000562372279
 75       0.000274339193
 76      -0.000953142315
 77       0.001702922933
 78       0.191699815635
 79       0.851658209623
 80       0.468406616866
 81       0.004634957361
 82       0.020553129975
 83       0.011309290001
 84      -0.001270591153
 85      -0.005520818934
 86      -0.003052654358
 87       0.000642234966
 88       0.002671887401
 89       0.001492855879
 90      -0.000010247445
 91       0.000011881337
 92       0.000047298562
 93      -0.000039290230
 94       0.000020881845
 95       0.000004415511
 96      -0.000006740095
 97      -0.000022354740
 98       0.000017661272
 99      -0.000011178169
100       0.000041496084
101      -0.000047986578
102      -0.000194781105
103       0.000160889324
104      -0.000084651802
 Sym=     1a
 Ene= -5.62828938455656E+01
 Spin= Alpha
 Occup= 1.000000
  1       0.000001061229
  2      -0.000016159265
  3       0.000143631778
  4       0.000003078886
  5       0.000008182735
  6      -0.000001731738
  7      -0.000060347960
  8      -0.000090415483
  9       0.000084114350
 10       0.000001035497
 11       0.000000395083
 12      -0.000001396613
 13       0.000003566277
 14       0.000003677428
 15       0.000000128386
 16      -0.000001137859
 17      -0.000164010418
 18       0.000004898696
 19      -0.000007787371
 20       0.000001289704
 21      -0.000012638354
 22       0.000019588697
 23       0.000047939791
 24      -0.000000956415
 25      -0.000002340326
 26      -0.000001834014
 27      -0.000002783802
 28       0.000001001693
 29       0.000006605008
 30       0.000033642088
 31      -0.000001083148
 32       0.000005641319
 33       0.000003003439
 34       0.000009832645
 35       0.000026198020
 36      -0.000001728864
 37      -0.000003297851
 38      -0.000005371803
 39      -0.000000931929
 40       0.000028184180
 41      -0.000000631691
 42      -0.000003114867
 43      -0.000005831077
 44      -0.000002780237
 45       0.000040563955
 46      -0.000145061834
 47      -0.000012874336
 48      -0.000019128701
 49       0.000006840715
 50       0.000042283088
 51       0.000103297567
 52      -0.000035374029
 53       0.000003332039
 54       0.000003862842
 55       0.000000589500
 56      -0.000002477918
 57      -0.000001347213
 58       0.000092496698
 59      -0.000106273943
 60      -0.000012646792
 61      -0.000005210049
 62       0.000010008117
 63      -0.000045316979
 64       0.000099285706
 65      -0.000008058126
 66      -0.000017423540
 67       0.000008079522
 68      -0.000001907262
 69       0.000125709415
 70      -0.000022149110
 71       0.000000622693
 72       0.000021067922
 73      -0.000001097462
 74       0.000003125777
 75      -0.000003884385
 76       0.000026787569
 77      -0.000085213143
 78      -0.679989188027
 79      -0.223679493381
 80       0.684989664587
 81      -0.016241624114
 82      -0.005344126785
 83       0.016358554548
 84       0.003926013391
 85       0.001298783666
 86      -0.003944205409
 87      -0.001446889275
 88      -0.000515419800
 89       0.001416186556
 90       0.000022147170
 91      -0.000007512852
 92       0.000017457830
 93       0.000002627276
 94      -0.000024506425
 95      -0.000006828702
 96       0.000003847017
 97      -0.000002143864
 98      -0.000003608765
 99       0.000008555963
100       0.000000647758
101      -0.000003156070
102      -0.000007956655
103       0.000007106073
104      -0.000002994278
 Sym=     1a
 Ene= -5.62828726864117E+01
 Spin= Alpha
 Occup= 1.000000
  1      -0.000007181246
  2       0.000081568496
  3      -0.000372863963
  4      -0.000017770066
  5      -0.000024048328
  6      -0.000016707831
  7       0.000221260384
  8       0.000121917629
  9       0.000120740181
 10      -0.000007917654
 11      -0.000007044176
 12       0.000004417835
 13      -0.000010881696
 14      -0.000009092065
 15      -0.000000536136
 16      -0.000004947898
 17       0.000086485677
 18       0.000000450122
 19      -0.000003464849
 20      -0.000003224281
 21      -0.000101390216
 22      -0.000037140707
 23      -0.000026121665
 24       0.000003477227
 25       0.000003231242
 26       0.000006481424
 27       0.000003469758
 28      -0.000002641400
 29       0.000000056877
 30      -0.000026498831
 31      -0.000003239614
 32      -0.000014361234
 33      -0.000017869428
 34       0.000009084209
 35       0.000027574053
 36       0.000001147434
 37       0.000002069063
 38       0.000002811258
 39      -0.000012034006
 40      -0.000065915888
 41      -0.000001465008
 42       0.000001619385
 43       0.000005353856
 44       0.000003714327
 45      -0.000067993133
 46       0.000480483582
 47       0.000019973063
 48       0.000030873492
 49       0.000032589009
 50       0.000044895670
 51      -0.000209924433
 52      -0.000057765911
 53       0.000004623663
 54      -0.000006488034
 55      -0.000003683474
 56      -0.000002170143
 57      -0.000001024643
 58      -0.000058919602
 59       0.000010701234
 60       0.000008111286
 61       0.000014774985
 62       0.000013900568
 63      -0.000090003796
 64       0.000079292685
 65       0.000006347530
 66       0.000008540699
 67       0.000015503670
 68       0.000011954140
 69      -0.000338614010
 70       0.000024921821
 71      -0.000045567073
 72       0.000003699228
 73       0.000004022759
 74      -0.000011579271
 75       0.000012872024
 76      -0.000074999586
 77       0.000224725359
 78       0.694612268231
 79      -0.454053629183
 80       0.541273483655
 81       0.016593141023
 82      -0.010837016537
 83       0.012932284418
 84      -0.004019173311
 85       0.002589815042
 86      -0.003140644448
 87       0.001501286528
 88      -0.000841449344
 89       0.001209894389
 90       0.000016415232
 91       0.000018093005
 92       0.000011813970
 93       0.000018862496
 94       0.000020354021
 95      -0.000003347361
 96      -0.000007872324
 97      -0.000011008122
 98      -0.000000314142
 99      -0.000009851478
100      -0.000003634590
101       0.000004271078
102       0.000015202210
103      -0.000011990483
104       0.000006931108
 Sym=     1a
 Ene= -1.02134700789850E+01
 Spin= Alpha
 Occup= 1.000000
  1      -0.131953222753
  2      -0.003587874023
  3      -0.004076668456
  4      -0.001904594679
  5       0.000689956183
  6      -0.001146896147
  7      -0.000813445883
  8      -0.001174699923
  9       0.003810943240
 10      -0.000133731886
 11       0.001078782478
 12      -0.000347707202
 13       0.000986377670
 14      -0.000447423304
 15      -0.025907111657
 16      -0.000521509885
 17      -0.003661698161
 18      -0.000259790361
 19       0.000106706547
 20      -0.000175188420
 21       0.004785295627
 22      -0.000480656718
 23       0.001936716011
 24      -0.000044348963
 25      -0.000049255741
 26       0.000071589407
 27      -0.000208795628
 28      -0.000041338675
 29       0.000867259211
 30       0.000606430818
 31       0.000213592398
 32      -0.000038982594
 33       0.000301480385
 34      -0.000689461060
 35      -0.001961004819
 36      -0.000034833367
 37      -0.000004541374
 38       0.000063565534
 39       0.000978779896
 40       0.001707990864
 41       0.000031771333
 42       0.000069328508
 43      -0.000107176183
 44      -0.978750553063
 45      -0.051061042936
 46       0.041359119136
 47       0.000725727430
 48       0.000740509370
 49       0.000729292391
 50       0.001816620945
 51      -0.004689412707
 52      -0.001504045894
 53      -0.000805268630
 54       0.000219205555
 55       0.001355536352
 56      -0.001429346742
 57      -0.000134453004
 58       0.003210319501
 59      -0.007472428647
 60       0.002395506373
 61       0.000915963882
 62      -0.001362629417
 63       0.003229766116
 64      -0.007763362741
 65      -0.000278223155
 66      -0.000836086815
 67       0.002838857624
 68      -0.000648853779
 69      -0.012393983893
 70       0.000066557928
 71      -0.000262534096
 72      -0.000148993742
 73       0.000013330435
 74      -0.000024672171
 75       0.000229054069
 76      -0.002229857884
 77       0.008165068673
 78      -0.000010007820
 79      -0.000023386304
 80      -0.000012401571
 81       0.000035090948
 82       0.000083497293
 83       0.000044478228
 84      -0.000204905262
 85      -0.000576843491
 86      -0.000317525851
 87       0.001174526941
 88       0.004230052791
 89       0.002396781114
 90      -0.000011954755
 91       0.000017734105
 92       0.000059651978
 93      -0.000047144774
 94       0.000031781969
 95       0.000055900644
 96      -0.000081911049
 97      -0.000279216002
 98       0.000221280471
 99      -0.000146691480
100      -0.000172890641
101       0.000239198246
102       0.000856545594
103      -0.000686687195
104       0.000426829857
 Sym=     1a
 Ene= -1.02120096303314E+01
 Spin= Alpha
 Occup= 1.000000
  1       0.647689722091
  2       0.028960533351
  3      -0.021913208597
  4      -0.000216535271
  5       0.000516250573
  6      -0.002104845540
  7       0.002298835783
  8       0.002369423290
  9      -0.005812227277
 10      -0.000527734513
 11      -0.000030052869
 12      -0.000069226770
 13       0.001194393913
 14       0.000194315366
 15       0.739240118719
 16       0.033585588210
 17      -0.009831103783
 18       0.000058436893
 19      -0.000723901610
 20       0.001950458552
 21      -0.000358151318
 22       0.001283012792
 23      -0.003661989132
 24      -0.000299751040
 25       0.000080000635
 26      -0.000275697146
 27       0.001280176742
 28       0.000157862062
 29      -0.003245050693
 30       0.003155484336
 31       0.001702088299
 32       0.000152732677
 33      -0.000346691804
 34      -0.003311465697
 35       0.004685903237
 36       0.001831235892
 37      -0.000153482812
 38       0.000758081160
 39      -0.003120155362
 40       0.004765479953
 41      -0.001702332859
 42      -0.000391565975
 43       0.000774560899
 44      -0.106268101020
 45      -0.006916166913
 46       0.006947658502
 47      -0.001114294978
 48      -0.000078677290
 49      -0.000981020782
 50      -0.002060686483
 51      -0.000017195416
 52       0.005244422428
 53       0.000050233851
 54      -0.000551713392
 55       0.000308558739
 56      -0.000909389904
 57       0.000050058437
 58       0.000007732891
 59      -0.003403340993
 60       0.000550593413
 61      -0.000015156874
 62      -0.000110382076
 63       0.001714040009
 64       0.000242922216
 65       0.000297640428
 66      -0.000262902767
 67       0.000459231287
 68      -0.000414267654
 69       0.005961652066
 70       0.000089105986
 71      -0.000284823091
 72      -0.000153056148
 73      -0.000007239563
 74       0.000013251565
 75      -0.000124867711
 76       0.001253348090
 77      -0.004242430705
 78      -0.000002205077
 79       0.000019026435
 80       0.000004975249
 81       0.000006894705
 82      -0.000066374996
 83      -0.000017966118
 84       0.000017906552
 85       0.000420454113
 86       0.000160969255
 87      -0.000495610780
 88      -0.002401670562
 89      -0.001251942242
 90       0.000008357220
 91      -0.000007162508
 92      -0.000035056105
 93       0.000029942614
 94      -0.000016233380
 95      -0.000040087772
 96       0.000036400144
 97       0.000169904551
 98      -0.000144113859
 99       0.000079774526
100       0.000122197402
101      -0.000128133445
102      -0.000538098225
103       0.000448498868
104      -0.000256937365
 Sym=     1a
 Ene= -1.02116109450681E+01
 Spin= Alpha
 Occup= 1.000000
  1       0.734644783798
  2       0.038351035397
  3      -0.038626335761
  4       0.000343980581
  5      -0.000574365092
  6       0.001176253439
  7       0.003188428121
  8       0.000589747933
  9      -0.000738528192
 10       0.001458387770
 11       0.000091895385
 12      -0.001647455080
 13       0.001626224045
 14       0.000217042244
 15      -0.655078683281
 16      -0.035309556114
 17       0.031762726632
 18       0.000134621034
 19      -0.000525375835
 20       0.001412045945
 21      -0.001999978425
 22       0.000963900574
 23      -0.003078486119
 24      -0.001377141431
 25      -0.000107700623
 26       0.001594926927
 27      -0.001488217072
 28      -0.000184861011
 29      -0.003268601798
 30       0.005944745616
 31       0.001966913347
 32       0.000579424616
 33      -0.001472463292
 34       0.003333228068
 35      -0.004941662302
 36      -0.002008399005
 37       0.000258051429
 38      -0.001114363013
 39       0.002743756482
 40      -0.005998569532
 41       0.001875727748
 42       0.000560856124
 43      -0.001248877371
 44      -0.081061469116
 45      -0.006136057806
 46       0.012601334512
 47      -0.001647297764
 48      -0.000030979595
 49      -0.000924746887
 50       0.003515968267
 51       0.001186490432
 52       0.001050342950
 53      -0.000070973978
 54      -0.000786645486
 55       0.000460434998
 56      -0.001191820473
 57       0.000124818645
 58       0.001007391986
 59      -0.000514932104
 60       0.000643541889
 61      -0.000014403413
 62      -0.000121321950
 63       0.000382645059
 64      -0.001934686188
 65       0.000088479636
 66      -0.000235826188
 67       0.000474056997
 68      -0.000209826583
 69       0.003839426669
 70       0.000147352424
 71      -0.000182473891
 72       0.000089903107
 73      -0.000004868741
 74       0.000008953306
 75      -0.000083846598
 76       0.000810889782
 77      -0.002732266350
 78      -0.000003982251
 79       0.000013671296
 80       0.000002923499
 81       0.000013091126
 82      -0.000047769672
 83      -0.000010781816
 84      -0.000024135254
 85       0.000286176670
 86       0.000102197228
 87      -0.000258100298
 88      -0.001549937164
 89      -0.000805719108
 90       0.000004748012
 91      -0.000003728359
 92      -0.000023822405
 93       0.000020945420
 94      -0.000009931517
 95      -0.000021583110
 96       0.000019502996
 97       0.000113525114
 98      -0.000097541940
 99       0.000048449445
100       0.000061150507
101      -0.000072614535
102      -0.000345150258
103       0.000282355139
104      -0.000154022504
 Sym=     1a
 Ene= -8.67122303866760E+00
 Spin= Alpha
 Occup= 1.000000
  1       0.000036982680
  2      -0.000388222270
  3       0.000513824892
  4       0.000042738266
  5       0.000086900852
  6       0.000040510171
  7       0.000246764498
  8      -0.000378061889
  9       0.000649158521
 10      -0.000006744912
 11       0.000007804661
 12      -0.000004128024
 13      -0.000004879321
 14      -0.000028338812
 15       0.000008095457
 16      -0.000026915912
 17      -0.000870367016
 18      -0.000002605579
 19       0.000017346043
 20       0.000012741085
 21       0.000081087550
 22      -0.000148517705
 23       0.000468618228
 24      -0.000008403423
 25      -0.000001696199
 26      -0.000003956580
 27      -0.000022689357
 28      -0.000004536642
 29      -0.000039691376
 30      -0.000034991394
 31      -0.000009182860
 32       0.000027098286
 33       0.000000298187
 34       0.000000225588
 35      -0.000059823083
 36       0.000008594108
 37       0.000007731775
 38      -0.000011493892
 39       0.000001012098
 40       0.000033699523
 41      -0.000004202053
 42       0.000005997976
 43      -0.000013315552
 44       0.000047814034
 45      -0.000747514483
 46       0.003077227146
 47      -0.000041061111
 48       0.000106913048
 49       0.000025126078
 50       0.000325946102
 51      -0.001042808088
 52      -0.000504967630
 53      -0.000008493611
 54       0.000012991935
 55       0.000038512373
 56      -0.000024538817
 57       0.000012264649
 58      -0.000116479194
 59      -0.000235243240
 60      -0.000022104017
 61       0.000025250261
 62      -0.000006341508
 63      -0.000188062767
 64      -0.000347270880
 65      -0.000030148740
 66       0.000010942308
 67      -0.000009709895
 68       0.001078847977
 69      -0.005631789300
 70      -0.000151445730
 71      -0.000745943168
 72      -0.000409781280
 73      -0.136660281618
 74       0.516878621146
 75      -1.093420181010
 76      -0.032181165907
 77       0.013785789088
 78       0.000380656473
 79       0.001527519731
 80       0.000862166434
 81      -0.000895828020
 82      -0.003601618796
 83      -0.002031705534
 84      -0.000314327232
 85      -0.001178250490
 86      -0.000677886735
 87       0.000606604665
 88       0.002282430624
 89       0.001312510745
 90       0.000165774534
 91      -0.000184014964
 92      -0.000750401428
 93       0.000624308210
 94      -0.000327870953
 95       0.000127462868
 96      -0.000154066327
 97      -0.000596126819
 98       0.000489022532
 99      -0.000263580106
100      -0.000010939898
101       0.000021306280
102       0.000064282636
103      -0.000048596421
104       0.000030414138
 Sym=     1a
 Ene= -6.50408056763141E+00
 Spin= Alpha
 Occup= 1.000000
  1       0.000019435875
  2      -0.000232031828
  3       0.000340793203
  4       0.000026591216
  5       0.000050656165
  6       0.000024329917
  7       0.000100179250
  8      -0.000220503054
  9       0.000341969243
 10      -0.000003370788
 11       0.000004666355
 12      -0.000001712444
 13      -0.000002581187
 14      -0.000015158843
 15       0.000004491042