[Molden Format]
[Title]
 Molden file created by orca_2mkl for BaseName=radical_039

[Atoms] AU
C    1   6          1.1709650194         0.9534310853         0.3694150030 
C    2   6          1.3272264734         0.0953706985         2.8388467539 
H    3   1          2.9423205981         1.3851976021        -0.6174906910 
H    4   1          3.1449691595        -0.1052671943         3.7956755667 
H    5   1         -0.3764391151        -0.3970787039         3.9030498056 
C    6   6         -1.0757152634         1.2840500107        -0.9648147955 
H    7   1         -2.9053594446         0.9210222821        -0.0706455218 
H    8   1         -1.0885143785         2.0685414693        -2.8743849435 
H    9   1         -1.2858962732        -2.1005269739        -2.6108588547 
Br  10  35         -1.8708024164        -4.4402932763        -3.9307966545 
[GTO]
  1 0
s   5 1.0 
     1238.4016938000         0.8208956682
      186.2900499200         1.4766449896
       42.2511763460         2.1526124058
       11.6765579320         2.1081722461
        3.5930506482         0.8290999933
s   1 1.0 
        0.4024514736         0.3601183351
s   1 1.0 
        0.1309018267         0.1551027052
p   3 1.0 
        9.4680970621         1.3467645142
        2.0103545142         1.0678070931
        0.5477100471         0.5108735714
p   1 1.0 
        0.1526861379         0.1360471976
d   1 1.0 
        0.8000000000         1.9292013661

  2 0
s   5 1.0 
     1238.4016938000         0.8208956682
      186.2900499200         1.4766449896
       42.2511763460         2.1526124058
       11.6765579320         2.1081722461
        3.5930506482         0.8290999933
s   1 1.0 
        0.4024514736         0.3601183351
s   1 1.0 
        0.1309018267         0.1551027052
p   3 1.0 
        9.4680970621         1.3467645142
        2.0103545142         1.0678070931
        0.5477100471         0.5108735714
p   1 1.0 
        0.1526861379         0.1360471976
d   1 1.0 
        0.8000000000         1.9292013661

  3 0
s   3 1.0 
       13.0107010000         0.1634903809
        1.9622572000         0.2773515510
        0.4445379600         0.3157501452
s   1 1.0 
        0.1219496200         0.1470772262
p   1 1.0 
        0.8000000000         1.0784563492

  4 0
s   3 1.0 
       13.0107010000         0.1634903809
        1.9622572000         0.2773515510
        0.4445379600         0.3157501452
s   1 1.0 
        0.1219496200         0.1470772262
p   1 1.0 
        0.8000000000         1.0784563492

  5 0
s   3 1.0 
       13.0107010000         0.1634903809
        1.9622572000         0.2773515510
        0.4445379600         0.3157501452
s   1 1.0 
        0.1219496200         0.1470772262
p   1 1.0 
        0.8000000000         1.0784563492

  6 0
s   5 1.0 
     1238.4016938000         0.8208956682
      186.2900499200         1.4766449896
       42.2511763460         2.1526124058
       11.6765579320         2.1081722461
        3.5930506482         0.8290999933
s   1 1.0 
        0.4024514736         0.3601183351
s   1 1.0 
        0.1309018267         0.1551027052
p   3 1.0 
        9.4680970621         1.3467645142
        2.0103545142         1.0678070931
        0.5477100471         0.5108735714
p   1 1.0 
        0.1526861379         0.1360471976
d   1 1.0 
        0.8000000000         1.9292013661

  7 0
s   3 1.0 
       13.0107010000         0.1634903809
        1.9622572000         0.2773515510
        0.4445379600         0.3157501452
s   1 1.0 
        0.1219496200         0.1470772262
p   1 1.0 
        0.8000000000         1.0784563492

  8 0
s   3 1.0 
       13.0107010000         0.1634903809
        1.9622572000         0.2773515510
        0.4445379600         0.3157501452
s   1 1.0 
        0.1219496200         0.1470772262
p   1 1.0 
        0.8000000000         1.0784563492

  9 0
s   3 1.0 
       13.0107010000         0.1634903809
        1.9622572000         0.2773515510
        0.4445379600         0.3157501452
s   1 1.0 
        0.1219496200         0.1470772262
p   1 1.0 
        0.8000000000         1.0784563492

 10 0
s   6 1.0 
   113286.3877600000         7.5076141183
    17009.6263030000        13.8835270484
     3870.1842567000        22.7307285566
     1093.0357227000        30.8227297499
      356.3972179700        27.2481937511
      123.1253964300         9.6953381145
s   3 1.0 
      236.7408400700        -4.7631125758
       28.4686610700         5.6113863182
       11.8834437220         1.9900291396
s   3 1.0 
       21.2696333120        -1.5429794477
        3.6129226841         1.3310800628
        1.6626648969         0.4300130345
s   1 1.0 
        0.3482379323         0.3230852630
s   1 1.0 
        0.1301903139         0.1544699827
p   5 1.0 
     1560.2801881000       115.0180051576
      368.4785920500       143.9035925417
      117.2297884900       137.5255986684
       42.6489092480        78.9578527439
       16.0872250960        15.8580577654
p   3 1.0 
        8.6352810058         6.8437546680
        3.5613665502         3.7974971038
        1.5292626609         0.5585414278
p   1 1.0 
        0.5306429485         0.6455696201
p   1 1.0 
        0.1570275896         0.1408996918
d   4 1.0 
      104.8551864200       261.4493931636
       30.2811436880       176.6993802449
       10.6513942670        76.9545600188
        3.8699456233        17.5937671387
d   1 1.0 
        1.3240876762         4.6593398042
d   1 1.0 
        0.3890000000         0.5462379705

[5D]
[7F]
[9G]
[MO]
 Sym=     1a
 Ene= -4.82769020852992E+02
 Spin= Alpha
 Occup= 1.000000
  1       0.000005647249
  2      -0.000067257687
  3       0.000073524248
  4       0.000007659481
  5       0.000016622944
  6       0.000007020574
  7       0.000055381927
  8      -0.000065737349
  9       0.000143803634
 10      -0.000001630604
 11       0.000001407632
 12      -0.000001974157
 13      -0.000000572734
 14      -0.000007202407
 15       0.000001085313
 16      -0.000003731026
 17      -0.000175066191
 18      -0.000001006623
 19       0.000002803222
 20       0.000001814687
 21       0.000017140072
 22      -0.000030933896
 23       0.000095008920
 24      -0.000001795857
 25       0.000000161812
 26      -0.000000292502
 27      -0.000004980109
 28      -0.000001500932
 29      -0.000004867315
 30      -0.000003452702
 31      -0.000002450828
 32       0.000005029442
 33      -0.000001222668
 34      -0.000000417007
 35      -0.000012577864
 36       0.000002179534
 37       0.000001652535
 38      -0.000002430884
 39       0.000001501971
 40       0.000005505159
 41      -0.000001016995
 42       0.000001518589
 43      -0.000003145233
 44       0.000008245170
 45      -0.000144939559
 46       0.000591810704
 47      -0.000008058776
 48       0.000024082894
 49       0.000006239779
 50       0.000073565851
 51      -0.000197305833
 52      -0.000093893011
 53      -0.000001163079
 54       0.000002237818
 55       0.000007899474
 56      -0.000005057318
 57       0.000003077128
 58      -0.000026206250
 59      -0.000039147195
 60      -0.000004548558
 61       0.000008619384
 62       0.000000095247
 63      -0.000041756588
 64      -0.000064006849
 65      -0.000006492619
 66       0.000005855792
 67      -0.000000556857
 68       0.000137531745
 69      -0.000869448114
 70      -0.000028633125
 71      -0.000147077606
 72      -0.000079674119
 73      -0.994982018342
 74      -0.015688782890
 75       0.003922377084
 76      -0.002313149545
 77       0.001653053396
 78      -0.000003372036
 79      -0.000012371433
 80      -0.000007067937
 81       0.000010853269
 82       0.000039381945
 83       0.000022560072
 84      -0.000041045591
 85      -0.000148823726
 86      -0.000085243303
 87       0.000091902137
 88       0.000344559423
 89       0.000196227032
 90      -0.000001268929
 91       0.000001643252
 92       0.000006063831
 93      -0.000004924803
 94       0.000002897286
 95       0.000003682348
 96      -0.000004811428
 97      -0.000017645057
 98       0.000014313608
 99      -0.000008517454
100      -0.000001125689
101       0.000002106997
102       0.000006255285
103      -0.000004754907
104       0.000003849261
 Sym=     1a
 Ene= -6.24520960010122E+01
 Spin= Alpha
 Occup= 1.000000
  1       0.000013540894
  2      -0.000163411539
  3       0.000176860073
  4       0.000018586655
  5       0.000039928062
  6       0.000017115717
  7       0.000134083489
  8      -0.000159365023
  9       0.000342544587
 10      -0.000003904561
 11       0.000003269514
 12      -0.000004333214
 13      -0.000001640060
 14      -0.000016866469
 15       0.000002605540
 16      -0.000009342032
 17      -0.000418310636
 18      -0.000002312700
 19       0.000006837932
 20       0.000004470903
 21       0.000040176842
 22      -0.000073753121
 23       0.000227000346
 24      -0.000004232076
 25       0.000000276181
 26      -0.000000794695
 27      -0.000011754627
 28      -0.000003441863
 29      -0.000012405442
 30      -0.000009119571
 31      -0.000005744752
 32       0.000012022903
 33      -0.000002725367
 34      -0.000000851385
 35      -0.000029916532
 36       0.000005093751
 37       0.000003896279
 38      -0.000005712581
 39       0.000003128095
 40       0.000013368535
 41      -0.000002382422
 42       0.000003531400
 43      -0.000007387890
 44       0.000019630223
 45      -0.000349847702
 46       0.001438662711
 47      -0.000019401978
 48       0.000056946179
 49       0.000014631429
 50       0.000175937040
 51      -0.000478954491
 52      -0.000227355252
 53      -0.000002909844
 54       0.000005474158
 55       0.000018949866
 56      -0.000012153401
 57       0.000007178105
 58      -0.000062291148
 59      -0.000097761247
 60      -0.000011164675
 61       0.000019738155
 62      -0.000000027390
 63      -0.000099507838
 64      -0.000156278265
 65      -0.000015541155
 66       0.000013195321
 67      -0.000001965606
 68       0.000358294428
 69      -0.002153133711
 70      -0.000071801208
 71      -0.000365209860
 72      -0.000198254843
 73      -0.347186653366
 74       1.046958340337
 75       0.018587320657
 76      -0.006264212740
 77       0.004217631108
 78       0.000088280203
 79       0.000369692150
 80       0.000205072509
 81       0.000036987882
 82       0.000139176549
 83       0.000079176555
 84      -0.000104473338
 85      -0.000382066769
 86      -0.000218653295
 87       0.000226938341
 88       0.000853164176
 89       0.000485836301
 90      -0.000010255745
 91       0.000010953522
 92       0.000045535097
 93      -0.000038338358
 94       0.000019882786
 95       0.000010701239
 96      -0.000013350786
 97      -0.000050188586
 98       0.000041140814
 99      -0.000023303141
100      -0.000002063434
101       0.000004461648
102       0.000012296191
103      -0.000009132725
104       0.000007579276
 Sym=     1a
 Ene= -5.62838584117464E+01
 Spin= Alpha
 Occup= 1.000000
  1       0.000015391884
  2      -0.000179813520
  3       0.000079366509
  4       0.000022502180
  5       0.000045078750
  6       0.000020529719
  7       0.000189437632
  8      -0.000183310834
  9       0.000416996001
 10      -0.000005537312
 11       0.000001940697
 12      -0.000004753314
 13      -0.000003885720
 14      -0.000020468797
 15       0.000002987470
 16      -0.000012828859
 17      -0.000455937843
 18      -0.000003439084
 19       0.000008069434
 20       0.000004577098
 21       0.000046979020
 22      -0.000085055840
 23       0.000254192556
 24      -0.000004718333
 25       0.000001599770
 26      -0.000000542215
 27      -0.000013262820
 28      -0.000004219881
 29      -0.000010847053
 30      -0.000000305710
 31      -0.000007852136
 32       0.000013070699
 33      -0.000004479704
 34      -0.000003214490
 35      -0.000040022330
 36       0.000006428867
 37       0.000004241698
 38      -0.000004981723
 39       0.000003326038
 40       0.000015007374
 41      -0.000002386117
 42       0.000004389526
 43      -0.000008768560
 44       0.000020065661
 45      -0.000396480615
 46       0.001750708849
 47      -0.000027209334
 48       0.000059388804
 49       0.000011319656
 50       0.000262053382
 51      -0.000559650691
 52      -0.000239718609
 53      -0.000003562776
 54       0.000007240208
 55       0.000025445350
 56      -0.000017967032
 57       0.000007825884
 58      -0.000069645533
 59      -0.000110229970
 60      -0.000017870642
 61       0.000027779712
 62      -0.000000336869
 63      -0.000116841634
 64      -0.000190323512
 65      -0.000023409707
 66       0.000022162574
 67      -0.000005381633
 68       0.000654972705
 69      -0.002514815278
 70      -0.000195149766
 71      -0.000866132477
 72      -0.000480030363
 73       0.000186702686
 74      -0.000556541733
 75       0.000274059578
 76      -0.000966723231
 77       0.001769625456
 78       0.186774745936
 79       0.854832258195
 80       0.464599811315
 81       0.004516372633
 82       0.020628765924
 83       0.011216841801
 84      -0.001240215971
 85      -0.005540929065
 86      -0.003027578698
 87       0.000638659899
 88       0.002718459355
 89       0.001501460499
 90      -0.000010644503
 91       0.000011645213
 92       0.000047207812
 93      -0.000039755888
 94       0.000020692953
 95       0.000005163476
 96      -0.000007323589
 97      -0.000024718620
 98       0.000019839949
 99      -0.000012336070
100       0.000040261579
101      -0.000043714142
102      -0.000181971905
103       0.000152466971
104      -0.000078010948
 Sym=     1a
 Ene= -5.62816859866105E+01
 Spin= Alpha
 Occup= 1.000000
  1       0.000000990067
  2      -0.000015284817
  3       0.000142137428
  4       0.000003020303
  5       0.000008277577
  6      -0.000002053145
  7      -0.000061952564
  8      -0.000094600218
  9       0.000089510106
 10       0.000000962530
 11       0.000000230945
 12      -0.000001245240
 13       0.000003681589
 14       0.000004035526
 15       0.000000151277
 16      -0.000001791442
 17      -0.000168391581
 18       0.000005267690
 19      -0.000008220823
 20       0.000001426241
 21      -0.000015181721
 22       0.000021203795
 23       0.000048192906
 24      -0.000000890118
 25      -0.000002421976
 26      -0.000002025850
 27      -0.000002773018
 28       0.000001017350
 29       0.000007270067
 30       0.000036472321
 31      -0.000001190630
 32       0.000005891655
 33       0.000003003729
 34       0.000010482298
 35       0.000028020065
 36      -0.000001811867
 37      -0.000003544196
 38      -0.000005529607
 39      -0.000001267221
 40       0.000028991909
 41      -0.000000621355
 42      -0.000003309023
 43      -0.000006030672
 44      -0.000003019144
 45       0.000044600326
 46      -0.000155210707
 47      -0.000013555324
 48      -0.000020511592
 49       0.000007516416
 50       0.000048317475
 51       0.000113820499
 52      -0.000038749489
 53       0.000003817255
 54       0.000004040953
 55       0.000000232730
 56      -0.000002334568
 57      -0.000001680039
 58       0.000097915178
 59      -0.000109204703
 60      -0.000013019400
 61      -0.000005099630
 62       0.000010855670
 63      -0.000047524469
 64       0.000100463320
 65      -0.000008740325
 66      -0.000018409741
 67       0.000007889385
 68      -0.000001972658
 69       0.000144310404
 70      -0.000021852232
 71       0.000001882932
 72       0.000021425349
 73      -0.000001286853
 74       0.000003673953
 75      -0.000004419842
 76       0.000030251785
 77      -0.000096689760
 78      -0.678108167159
 79      -0.224918918022
 80       0.686446786311
 81      -0.016197070635
 82      -0.005374109113
 83       0.016393428539
 84       0.003916280402
 85       0.001307384514
 86      -0.003952508836
 87      -0.001445685258
 88      -0.000524404267
 89       0.001417071821
 90       0.000021862467
 91      -0.000007436520
 92       0.000017330032
 93       0.000002874900
 94      -0.000024350398
 95      -0.000007015942
 96       0.000004032458
 97      -0.000001944623
 98      -0.000004004658
 99       0.000008923855
100       0.000001278269
101      -0.000003627668
102      -0.000008365102
103       0.000007889875
104      -0.000003924236
 Sym=     1a
 Ene= -5.62816645008829E+01
 Spin= Alpha
 Occup= 1.000000
  1      -0.000007646018
  2       0.000086127502
  3      -0.000376606633
  4      -0.000018564926
  5      -0.000025671318
  6      -0.000017696361
  7       0.000218086804
  8       0.000130000143
  9       0.000118529847
 10      -0.000008228632
 11      -0.000006986322
 12       0.000004622765
 13      -0.000011075179
 14      -0.000009379612
 15      -0.000000560023
 16      -0.000005426894
 17       0.000094429271
 18       0.000000590109
 19      -0.000003745567
 20      -0.000003269297
 21      -0.000103481598
 22      -0.000037821788
 23      -0.000030871747
 24       0.000003700146
 25       0.000003212672
 26       0.000006730472
 27       0.000003778062
 28      -0.000002622389
 29       0.000000914281
 30      -0.000025620486
 31      -0.000003214240
 32      -0.000015423039
 33      -0.000018132444
 34       0.000009319288
 35       0.000028625222
 36       0.000001027727
 37       0.000002102835
 38       0.000002970260
 39      -0.000012356336
 40      -0.000067222553
 41      -0.000001462449
 42       0.000001631274
 43       0.000005634856
 44       0.000003493022
 45      -0.000067423383
 46       0.000482387591
 47       0.000021089889
 48       0.000030377685
 49       0.000033595918
 50       0.000036693076
 51      -0.000214550353
 52      -0.000068005332
 53       0.000004752976
 54      -0.000006812303
 55      -0.000003082276
 56      -0.000003231651
 57      -0.000000831320
 58      -0.000060051617
 59       0.000011973255
 60       0.000008900747
 61       0.000014268157
 62       0.000014802716
 63      -0.000092721549
 64       0.000080940626
 65       0.000007256161
 66       0.000007915312
 67       0.000015488993
 68       0.000010792887
 69      -0.000353924567
 70       0.000024673164
 71      -0.000047932640
 72       0.000002130993
 73       0.000004196002
 74      -0.000012086493
 75       0.000013316745
 76      -0.000076898294
 77       0.000231676514
 78       0.697785620094
 79      -0.447428038934
 80       0.542707082975
 81       0.016669312346
 82      -0.010678617976
 83       0.012966846990
 84      -0.004038531070
 85       0.002551047515
 86      -0.003149746469
 87       0.001509961540
 88      -0.000824689190
 89       0.001214999718
 90       0.000016118786
 91       0.000017846104
 92       0.000012045807
 93       0.000018417293
 94       0.000020511409
 95      -0.000003349012
 96      -0.000007983937
 97      -0.000011138926
 98      -0.000000333306
 99      -0.000010136015
100      -0.000003364875
101       0.000004626830
102       0.000015055440
103      -0.000011390597
104       0.000007297425
 Sym=     1a
 Ene= -1.02140721122933E+01
 Spin= Alpha
 Occup= 1.000000
  1      -0.133457671887
  2      -0.003713426973
  3      -0.003932061046
  4      -0.001898969957
  5       0.000688751308
  6      -0.001144932014
  7      -0.000752993536
  8      -0.001211025004
  9       0.004030174565
 10      -0.000135080027
 11       0.001083968989
 12      -0.000342599069
 13       0.000985725993
 14      -0.000445715553
 15      -0.026162532034
 16      -0.000524410104
 17      -0.003920344463
 18      -0.000261542180
 19       0.000106336361
 20      -0.000179614106
 21       0.004801701179
 22      -0.000503331496
 23       0.002082292332
 24      -0.000044580718
 25      -0.000049621041
 26       0.000072105145
 27      -0.000212611757
 28      -0.000044256528
 29       0.000876237061
 30       0.000601576172
 31       0.000204772769
 32      -0.000037133432
 33       0.000298023501
 34      -0.000688190922
 35      -0.001971898955
 36      -0.000032836079
 37      -0.000001661097
 38       0.000060985011
 39       0.000981876441
 40       0.001708737009
 41       0.000030574765
 42       0.000070049454
 43      -0.000108287036
 44      -0.978530777533
 45      -0.051212011796
 46       0.042078968782
 47       0.000725071399
 48       0.000762530010
 49       0.000739701143
 50       0.001895031914
 51      -0.004957931647
 52      -0.001643812040
 53      -0.000807618597
 54       0.000218156000
 55       0.001366036448
 56      -0.001428331469
 57      -0.000138395294
 58       0.003167794595
 59      -0.007479390580
 60       0.002391077320
 61       0.000925544455
 62      -0.001364768339
 63       0.003174283595
 64      -0.007793444784
 65      -0.000279140620
 66      -0.000841341239
 67       0.002839843380
 68      -0.000726348808
 69      -0.013025618937
 70       0.000057334532
 71      -0.000218287185
 72      -0.000144830923
 73       0.000012903433
 74      -0.000023737506
 75       0.000222208972
 76      -0.002244075633
 77       0.008432061217
 78      -0.000009148515
 79      -0.000021597073
 80      -0.000010585181
 81       0.000032172900
 82       0.000077367717
 83       0.000038264744
 84      -0.000195513388
 85      -0.000559179592
 86      -0.000295501342
 87       0.001191403897
 88       0.004363989499
 89       0.002434598924
 90      -0.000012545266
 91       0.000017670505
 92       0.000059107773
 93      -0.000047299825
 94       0.000032129420
 95       0.000058879575
 96      -0.000082115552
 97      -0.000278454417
 98       0.000223294077
 99      -0.000149090992
100      -0.000185016591
101       0.000244313171
102       0.000874278076
103      -0.000708696831
104       0.000441205424
 Sym=     1a
 Ene= -1.02126131158196E+01
 Spin= Alpha
 Occup= 1.000000
  1       0.676825739127
  2       0.030511200619
  3      -0.023560273537
  4      -0.000208599231
  5       0.000478819263
  6      -0.002062434647
  7       0.002458893042
  8       0.002392569495
  9      -0.005865245446
 10      -0.000464318490
 11      -0.000026524602
 12      -0.000134174350
 13       0.001259415731
 14       0.000208293334
 15       0.711989728234
 16       0.032119470988
 17      -0.008468968951
 18       0.000060874986
 19      -0.000732120179
 20       0.002009403861
 21      -0.000443838936
 22       0.001307904952
 23      -0.003819148399
 24      -0.000349235759
 25       0.000083506895
 26      -0.000208073850
 27       0.001218722290
 28       0.000165430266
 29      -0.003374526898
 30       0.003389816592
 31       0.001779834097
 32       0.000175909976
 33      -0.000407296657
 34      -0.003173013810
 35       0.004483222404
 36       0.001745721952
 37      -0.000128780470
 38       0.000720025075
 39      -0.003005308014
 40       0.004513829592
 41      -0.001625120688
 42      -0.000371489498
 43       0.000719579432
 44      -0.110703313355
 45      -0.007172966810
 46       0.007348447337
 47      -0.001173978720
 48      -0.000094723515
 49      -0.001019255222
 50      -0.001909800097
 51       0.000127158265
 52       0.005342614203
 53       0.000048021964
 54      -0.000586737016
 55       0.000323028428
 56      -0.000956518728
 57       0.000046941986
 58       0.000059084798
 59      -0.003439409353
 60       0.000578168065
 61      -0.000012206678
 62      -0.000114013024
 63       0.001740922828
 64       0.000146697123
 65       0.000303503584
 66      -0.000270977158
 67       0.000478781746
 68      -0.000420564479
 69       0.006365764844
 70       0.000111128203
 71      -0.000265450686
 72      -0.000134187844
 73      -0.000007548351
 74       0.000013802220
 75      -0.000130250012
 76       0.001307073388
 77      -0.004468197313
 78      -0.000002658085
 79       0.000020184009
 80       0.000004928650
 81       0.000008395224
 82      -0.000070464646
 83      -0.000017892329
 84       0.000012883659
 85       0.000442518304
 86       0.000163092713
 87      -0.000505460527
 88      -0.002531963538
 89      -0.001299633983
 90       0.000009069157
 91      -0.000007040942
 92      -0.000036650510
 93       0.000031867482
 94      -0.000016775827
 95      -0.000043273840
 96       0.000035831014
 97       0.000176803338
 98      -0.000152570642
 99       0.000082156201
100       0.000130512917
101      -0.000127052601
102      -0.000554846139
103       0.000469581384
104      -0.000262935871
 Sym=     1a
 Ene= -1.02122142604960E+01
 Spin= Alpha
 Occup= 1.000000
  1       0.707606255210
  2       0.037160791120
  3      -0.037730271399
  4       0.000346220491
  5      -0.000597003956
  6       0.001263599287
  7       0.003080887624
  8       0.000516260477
  9      -0.000533863834
 10       0.001489839221
 11       0.000088989726
 12      -0.001626108063
 13       0.001583265288
 14       0.000221059219
 15      -0.684588507513
 16      -0.036651534308
 17       0.032188602159
 18       0.000132525582
 19      -0.000495846977
 20       0.001335983588
 21      -0.001984455695
 22       0.000903849021
 23      -0.002960270318
 24      -0.001374490792
 25      -0.000119401287
 26       0.001587523574
 27      -0.001544966133
 28      -0.000210496008
 29      -0.003133861642
 30       0.005814194319
 31       0.001897912808
 32       0.000568627306
 33      -0.001459026720
 34       0.003467420420
 35      -0.005125763298
 36      -0.002080634774
 37       0.000245980208
 38      -0.001153425611
 39       0.002868115276
 40      -0.006187081054
 41       0.001944409049
 42       0.000579383737
 43      -0.001276461557
 44      -0.077591052224
 45      -0.005859355742
 46       0.012177277770
 47      -0.001596108321
 48      -0.000041464254
 49      -0.000885671186
 50       0.003575307397
 51       0.001263247212
 52       0.000855650173
 53      -0.000077015938
 54      -0.000768545249
 55       0.000440962428
 56      -0.001154554631
 57       0.000113554913
 58       0.001013657936
 59      -0.000379661882
 60       0.000621636853
 61      -0.000012687282
 62      -0.000116175664
 63       0.000321734028
 64      -0.001948676916
 65       0.000077884994
 66      -0.000224085796
 67       0.000457084468
 68      -0.000190094241
 69       0.003740114452
 70       0.000155046687
 71      -0.000156777099
 72       0.000118143409
 73      -0.000004602979
 74       0.000008457048
 75      -0.000079299436
 76       0.000767686848
 77      -0.002620987029
 78      -0.000004177197
 79       0.000013193986
 80       0.000002467406
 81       0.000013771107
 82      -0.000046133070
 83      -0.000009215234
 84      -0.000029128572
 85       0.000273759392
 86       0.000092073643
 87      -0.000233655981
 88      -0.001488351313
 89      -0.000759484711
 90       0.000004699895
 91      -0.000003098946
 92      -0.000022571819
 93       0.000020368071
 94      -0.000009233519
 95      -0.000021169873
 96       0.000016433208
 97       0.000107096079
 98      -0.000094257314
 99       0.000044896686
100       0.000058930459
101      -0.000063275526
102      -0.000323059131
103       0.000269153204
104      -0.000142134209
 Sym=     1a
 Ene= -8.67001968743826E+00
 Spin= Alpha
 Occup= 1.000000
  1       0.000036442521
  2      -0.000388516666
  3       0.000497334071
  4       0.000042180408
  5       0.000084913055
  6       0.000039617954
  7       0.000252408185
  8      -0.000373168569
  9       0.000649488663
 10      -0.000007486606
 11       0.000008036712
 12      -0.000002348951
 13      -0.000005812715
 14      -0.000028241891
 15       0.000008079723
 16      -0.000027934435
 17      -0.000862871074
 18      -0.000002325809
 19       0.000016862327
 20       0.000012432157
 21       0.000075432754
 22      -0.000144779159
 23       0.000464498410
 24      -0.000007839646
 25      -0.000001880247
 26      -0.000004001177
 27      -0.000022863236
 28      -0.000004527671
 29      -0.000040417016
 30      -0.000034135214
 31      -0.000009212600
 32       0.000025846948
 33       0.000000047075
 34       0.000001241512
 35      -0.000057736392
 36       0.000008260104
 37       0.000007603115
 38      -0.000011449492
 39      -0.000000076361
 40       0.000032659207
 41      -0.000003935218
 42       0.000005472714
 43      -0.000012927275
 44       0.000046508532
 45      -0.000754128228
 46       0.003201481786
 47      -0.000041775767
 48       0.000100579367
 49       0.000023138603
 50       0.000328029279
 51      -0.001088964234
 52      -0.000529682539
 53      -0.000009704025
 54       0.000013183497
 55       0.000042598889
 56      -0.000029234897
 57       0.000011954300
 58      -0.000113573906
 59      -0.000243147259
 60      -0.000022935039
 61       0.000022179709
 62      -0.000007437942
 63      -0.000189137620
 64      -0.000346824947
 65      -0.000031003969
 66       0.000006746191
 67      -0.000011737436
 68       0.001063951205
 69      -0.005829636896
 70      -0.000147839076
 71      -0.000748214583
 72      -0.000407838491
 73      -0.136660128054
 74       0.516878315435
 75      -1.093417225063
 76      -0.032211861664
 77       0.013903457390
 78       0.000370199637
 79       0.001514880517
 80       0.000845072245
 81      -0.000870873046
 82      -0.003570825224
 83      -0.001990865059
 84      -0.000311089323
 85      -0.001185201968
 86      -0.000673752966
 87       0.000615402713
 88       0.002353236113
 89       0.001337530466
 90       0.000170647620
 91      -0.000177901822
 92      -0.000741496214
 93       0.000625883142
 94      -0.000320861958
 95       0.000132750232
 96      -0.000151005940
 97      -0.000594897590
 98       0.000494830865
 99      -0.000261250545
100      -0.000014829565
101       0.000025046314
102       0.000079003031
103      -0.000061263706
104       0.000037390436
 Sym=     1a
 Ene= -6.50284455555398E+00
 Spin= Alpha
 Occup= 1.000000
  1       0.000019055869
  2      -0.000231279324
  3       0.000334203834
  4       0.000026123205
  5       0.000049261049
  6       0.000023583601
  7       0.000098938227
  8      -0.000217633961
  9       0.000338288136
 10      -0.000003710409
 11       0.000004868693
 12      -0.000000650707
 13      -0.000003028303
 14      -0.000014909797
 15       0.000004513549