[Molden Format]
[Title]
 Molden file created by orca_2mkl for BaseName=radical_030

[Atoms] AU
C    1   6          1.1731476531         0.9279122235         0.3574643749 
C    2   6          1.3242709418         0.0900454503         2.8319624816 
H    3   1          2.9438739529         1.3559786566        -0.6316390705 
H    4   1          3.1375425358        -0.0797653401         3.8027299144 
H    5   1         -0.3816698770        -0.4076762880         3.8898217227 
C    6   6         -1.0762897401         1.2385113904        -0.9815747766 
H    7   1         -2.9032656280         0.8724903355        -0.0836147122 
H    8   1         -1.0951926706         2.0376727929        -2.8848219010 
H    9   1         -1.2838402511        -2.0038353568        -2.5770913384 
Br  10  35         -1.8558225574        -4.3668830852        -3.8852391368 
[GTO]
  1 0
s   5 1.0 
     1238.4016938000         0.8208956682
      186.2900499200         1.4766449896
       42.2511763460         2.1526124058
       11.6765579320         2.1081722461
        3.5930506482         0.8290999933
s   1 1.0 
        0.4024514736         0.3601183351
s   1 1.0 
        0.1309018267         0.1551027052
p   3 1.0 
        9.4680970621         1.3467645142
        2.0103545142         1.0678070931
        0.5477100471         0.5108735714
p   1 1.0 
        0.1526861379         0.1360471976
d   1 1.0 
        0.8000000000         1.9292013661

  2 0
s   5 1.0 
     1238.4016938000         0.8208956682
      186.2900499200         1.4766449896
       42.2511763460         2.1526124058
       11.6765579320         2.1081722461
        3.5930506482         0.8290999933
s   1 1.0 
        0.4024514736         0.3601183351
s   1 1.0 
        0.1309018267         0.1551027052
p   3 1.0 
        9.4680970621         1.3467645142
        2.0103545142         1.0678070931
        0.5477100471         0.5108735714
p   1 1.0 
        0.1526861379         0.1360471976
d   1 1.0 
        0.8000000000         1.9292013661

  3 0
s   3 1.0 
       13.0107010000         0.1634903809
        1.9622572000         0.2773515510
        0.4445379600         0.3157501452
s   1 1.0 
        0.1219496200         0.1470772262
p   1 1.0 
        0.8000000000         1.0784563492

  4 0
s   3 1.0 
       13.0107010000         0.1634903809
        1.9622572000         0.2773515510
        0.4445379600         0.3157501452
s   1 1.0 
        0.1219496200         0.1470772262
p   1 1.0 
        0.8000000000         1.0784563492

  5 0
s   3 1.0 
       13.0107010000         0.1634903809
        1.9622572000         0.2773515510
        0.4445379600         0.3157501452
s   1 1.0 
        0.1219496200         0.1470772262
p   1 1.0 
        0.8000000000         1.0784563492

  6 0
s   5 1.0 
     1238.4016938000         0.8208956682
      186.2900499200         1.4766449896
       42.2511763460         2.1526124058
       11.6765579320         2.1081722461
        3.5930506482         0.8290999933
s   1 1.0 
        0.4024514736         0.3601183351
s   1 1.0 
        0.1309018267         0.1551027052
p   3 1.0 
        9.4680970621         1.3467645142
        2.0103545142         1.0678070931
        0.5477100471         0.5108735714
p   1 1.0 
        0.1526861379         0.1360471976
d   1 1.0 
        0.8000000000         1.9292013661

  7 0
s   3 1.0 
       13.0107010000         0.1634903809
        1.9622572000         0.2773515510
        0.4445379600         0.3157501452
s   1 1.0 
        0.1219496200         0.1470772262
p   1 1.0 
        0.8000000000         1.0784563492

  8 0
s   3 1.0 
       13.0107010000         0.1634903809
        1.9622572000         0.2773515510
        0.4445379600         0.3157501452
s   1 1.0 
        0.1219496200         0.1470772262
p   1 1.0 
        0.8000000000         1.0784563492

  9 0
s   3 1.0 
       13.0107010000         0.1634903809
        1.9622572000         0.2773515510
        0.4445379600         0.3157501452
s   1 1.0 
        0.1219496200         0.1470772262
p   1 1.0 
        0.8000000000         1.0784563492

 10 0
s   6 1.0 
   113286.3877600000         7.5076141183
    17009.6263030000        13.8835270484
     3870.1842567000        22.7307285566
     1093.0357227000        30.8227297499
      356.3972179700        27.2481937511
      123.1253964300         9.6953381145
s   3 1.0 
      236.7408400700        -4.7631125758
       28.4686610700         5.6113863182
       11.8834437220         1.9900291396
s   3 1.0 
       21.2696333120        -1.5429794477
        3.6129226841         1.3310800628
        1.6626648969         0.4300130345
s   1 1.0 
        0.3482379323         0.3230852630
s   1 1.0 
        0.1301903139         0.1544699827
p   5 1.0 
     1560.2801881000       115.0180051576
      368.4785920500       143.9035925417
      117.2297884900       137.5255986684
       42.6489092480        78.9578527439
       16.0872250960        15.8580577654
p   3 1.0 
        8.6352810058         6.8437546680
        3.5613665502         3.7974971038
        1.5292626609         0.5585414278
p   1 1.0 
        0.5306429485         0.6455696201
p   1 1.0 
        0.1570275896         0.1408996918
d   4 1.0 
      104.8551864200       261.4493931636
       30.2811436880       176.6993802449
       10.6513942670        76.9545600188
        3.8699456233        17.5937671387
d   1 1.0 
        1.3240876762         4.6593398042
d   1 1.0 
        0.3890000000         0.5462379705

[5D]
[7F]
[9G]
[MO]
 Sym=     1a
 Ene= -4.82766531519959E+02
 Spin= Alpha
 Occup= 1.000000
  1       0.000005653226
  2      -0.000069413388
  3       0.000079379702
  4       0.000007557161
  5       0.000016590793
  6       0.000006823506
  7       0.000053485150
  8      -0.000065243240
  9       0.000144529251
 10      -0.000001858520
 11       0.000001712465
 12      -0.000001526126
 13      -0.000000551078
 14      -0.000007304533
 15       0.000001130301
 16      -0.000004255944
 17      -0.000177036147
 18      -0.000000930608
 19       0.000002740934
 20       0.000001829476
 21       0.000016764013
 22      -0.000030034717
 23       0.000095686730
 24      -0.000001640980
 25      -0.000000011248
 26      -0.000000380006
 27      -0.000005131742
 28      -0.000001506713
 29      -0.000005329126
 30      -0.000003232390
 31      -0.000002341868
 32       0.000004710184
 33      -0.000001115273
 34      -0.000000129370
 35      -0.000012354331
 36       0.000002043331
 37       0.000001661525
 38      -0.000002509813
 39       0.000001256527
 40       0.000005810163
 41      -0.000000910019
 42       0.000001345436
 43      -0.000003030971
 44       0.000007981094
 45      -0.000149448612
 46       0.000633011217
 47      -0.000008376648
 48       0.000021724881
 49       0.000005469584
 50       0.000072371180
 51      -0.000215892965
 52      -0.000106252221
 53      -0.000002108895
 54       0.000002432569
 55       0.000010859208
 56      -0.000008221053
 57       0.000003184681
 58      -0.000025495990
 59      -0.000039988512
 60      -0.000004267368
 61       0.000007736241
 62      -0.000000401166
 63      -0.000042475031
 64      -0.000063223129
 65      -0.000006719648
 66       0.000004361465
 67      -0.000000565458
 68       0.000129947196
 69      -0.000948316942
 70      -0.000026719496
 71      -0.000145144050
 72      -0.000077661538
 73      -0.994981979155
 74      -0.015688867718
 75       0.003922889151
 76      -0.002324109029
 77       0.001700363575
 78      -0.000003285555
 79      -0.000012393857
 80      -0.000006922278
 81       0.000010603280
 82       0.000039523585
 83       0.000022131693
 84      -0.000040551435
 85      -0.000150999494
 86      -0.000084550264
 87       0.000096425484
 88       0.000372578927
 89       0.000207693257
 90      -0.000001463179
 91       0.000001713562
 92       0.000006476327
 93      -0.000005388150
 94       0.000003087954
 95       0.000004402059
 96      -0.000005193687
 97      -0.000019509986
 98       0.000016215408
 99      -0.000009396371
100      -0.000002955842
101       0.000004009943
102       0.000013634985
103      -0.000011052767
104       0.000007387099
 Sym=     1a
 Ene= -6.24496291514522E+01
 Spin= Alpha
 Occup= 1.000000
  1      -0.000013497069
  2       0.000167843214
  3      -0.000187366992
  4      -0.000018285281
  5      -0.000039625733
  6      -0.000016568226
  7      -0.000130602955
  8       0.000157707939
  9      -0.000344272384
 10       0.000004469456
 11      -0.000003935246
 12       0.000003209411
 13       0.000001689116
 14       0.000017083460
 15      -0.000002700114
 16       0.000010589905
 17       0.000421639012
 18       0.000002112387
 19      -0.000006645701
 20      -0.000004478906
 21      -0.000038709835
 22       0.000071482832
 23      -0.000227959207
 24       0.000003844974
 25       0.000000105628
 26       0.000000976349
 27       0.000012079865
 28       0.000003450719
 29       0.000013417312
 30       0.000008458577
 31       0.000005532494
 32      -0.000011193101
 33       0.000002553355
 34       0.000000127038
 35       0.000029203898
 36      -0.000004772509
 37      -0.000003899923
 38       0.000005866765
 39      -0.000002477672
 40      -0.000013870183
 41       0.000002129920
 42      -0.000003109464
 43       0.000007101063
 44      -0.000018923525
 45       0.000359759130
 46      -0.001539299083
 47       0.000020150305
 48      -0.000051075863
 49      -0.000012718331
 50      -0.000173658958
 51       0.000523238163
 52       0.000256406368
 53       0.000005086338
 54      -0.000005898478
 55      -0.000025796415
 56       0.000019515970
 57      -0.000007389629
 58       0.000060418110
 59       0.000100202770
 60       0.000010642148
 61      -0.000017606365
 62       0.000001149153
 63       0.000101173691
 64       0.000154458186
 65       0.000016113219
 66      -0.000009676477
 67       0.000002138856
 68      -0.000339929964
 69       0.002341300994
 70       0.000067286905
 71       0.000361318976
 72       0.000193679472
 73       0.347186588579
 74      -1.046958137119
 75      -0.018588717785
 76       0.006290239316
 77      -0.004329906738
 78      -0.000083156336
 79      -0.000362774793
 80      -0.000197036017
 81      -0.000035803517
 82      -0.000138752359
 83      -0.000077219886
 84       0.000102971431
 85       0.000386994830
 86       0.000216558848
 87      -0.000237362575
 88      -0.000919697609
 89      -0.000512672447
 90       0.000011020039
 91      -0.000010610487
 92      -0.000045778351
 93       0.000039480492
 94      -0.000019662533
 95      -0.000012458288
 96       0.000014063923
 97       0.000054239724
 98      -0.000045514768
 99       0.000025086913
100       0.000006332086
101      -0.000008923081
102      -0.000029558663
103       0.000023821388
104      -0.000015832527
 Sym=     1a
 Ene= -5.62813905486895E+01
 Spin= Alpha
 Occup= 1.000000
  1       0.000015093921
  2      -0.000182889636
  3       0.000094399417
  4       0.000021360194
  5       0.000044673976
  6       0.000019287094
  7       0.000180998005
  8      -0.000180566001
  9       0.000414719082
 10      -0.000006139252
 11       0.000002950663
 12      -0.000003812617
 13      -0.000003240819
 14      -0.000020630043
 15       0.000003170454
 16      -0.000015258678
 17      -0.000454493026
 18      -0.000003018438
 19       0.000007880768
 20       0.000004874200
 21       0.000043945944
 22      -0.000081705952
 23       0.000251976918
 24      -0.000004233607
 25       0.000001086955
 26      -0.000000817772
 27      -0.000013496867
 28      -0.000004080809
 29      -0.000012172964
 30       0.000001613546
 31      -0.000007469100
 32       0.000012046856
 33      -0.000004231880
 34      -0.000002056056
 35      -0.000038501446
 36       0.000005898045
 37       0.000004279714
 38      -0.000005086283
 39       0.000002070244
 40       0.000015451738
 41      -0.000001951201
 42       0.000003861939
 43      -0.000008229577
 44       0.000017803588
 45      -0.000398125796
 46       0.001837129084
 47      -0.000028306967
 48       0.000047041017
 49       0.000006675170
 50       0.000259431408
 51      -0.000603019264
 52      -0.000273503401
 53      -0.000007508071
 54       0.000007914429
 55       0.000038208499
 56      -0.000031778013
 57       0.000008263567
 58      -0.000064312657
 59      -0.000107080425
 60      -0.000016331764
 61       0.000026059598
 62      -0.000001513208
 63      -0.000116630717
 64      -0.000185206046
 65      -0.000024149797
 66       0.000018582350
 67      -0.000004757722
 68       0.000622556974
 69      -0.002722013904
 70      -0.000185936692
 71      -0.000858052181
 72      -0.000468018812
 73       0.000182642758
 74      -0.000544191197
 75       0.000272661146
 76      -0.000990430931
 77       0.001895664926
 78       0.177710091117
 79       0.860144490945
 80       0.458310216889
 81       0.004297900461
 82       0.020754644957
 83       0.011063533973
 84      -0.001183575022
 85      -0.005572716428
 86      -0.002984537043
 87       0.000631687598
 88       0.002805843224
 89       0.001519453812
 90      -0.000011308122
 91       0.000011179843
 92       0.000046899423
 93      -0.000040462275
 94       0.000020256075
 95       0.000006655749
 96      -0.000008320066
 97      -0.000029032486
 98       0.000023975718
 99      -0.000014408940
100       0.000036853183
101      -0.000035729269
102      -0.000156652530
103       0.000134641887
104      -0.000065054273
 Sym=     1a
 Ene= -5.62792302382215E+01
 Spin= Alpha
 Occup= 1.000000
  1       0.000000846147
  2      -0.000013309003
  3       0.000136939248
  4       0.000002905139
  5       0.000008467858
  6      -0.000002707168
  7      -0.000064873393
  8      -0.000102991801
  9       0.000101466554
 10       0.000000781425
 11      -0.000000118755
 12      -0.000000926301
 13       0.000003898929
 14       0.000004730349
 15       0.000000208465
 16      -0.000003298123
 17      -0.000176685118
 18       0.000006014205
 19      -0.000009031710
 20       0.000001735675
 21      -0.000020496941
 22       0.000024168495
 23       0.000048626286
 24      -0.000000741810
 25      -0.000002563928
 26      -0.000002432134
 27      -0.000002708315
 28       0.000001031988
 29       0.000008732707
 30       0.000042793997
 31      -0.000001476678
 32       0.000006399479
 33       0.000002957847
 34       0.000011758178
 35       0.000031551784
 36      -0.000001945086
 37      -0.000004028378
 38      -0.000005810738
 39      -0.000001998662
 40       0.000030296157
 41      -0.000000606654
 42      -0.000003672694
 43      -0.000006395246
 44      -0.000003440886
 45       0.000052198918
 46      -0.000173429558
 47      -0.000014859553
 48      -0.000023025832
 49       0.000008919207
 50       0.000061634998
 51       0.000136274297
 52      -0.000047153171
 53       0.000005009021
 54       0.000004383741
 55      -0.000000768718
 56      -0.000001893465
 57      -0.000002383369
 58       0.000108243243
 59      -0.000113437857
 60      -0.000013556325
 61      -0.000004748394
 62       0.000012636484
 63      -0.000052120181
 64       0.000098681994
 65      -0.000010152926
 66      -0.000019948380
 67       0.000007043585
 68      -0.000002043610
 69       0.000184492939
 70      -0.000021074281
 71       0.000004429014
 72       0.000022002998
 73      -0.000001668660
 74       0.000004779473
 75      -0.000005494169
 76       0.000037313752
 77      -0.000120694154
 78      -0.675816495704
 79      -0.226972474808
 80       0.688028673227
 81      -0.016143061934
 82      -0.005423919202
 83       0.016431352278
 84       0.003905283509
 85       0.001322153352
 86      -0.003961476068
 87      -0.001446506166
 88      -0.000542067493
 89       0.001415927223
 90       0.000021282253
 91      -0.000007333828
 92       0.000016995007
 93       0.000003320064
 94      -0.000024047104
 95      -0.000007430006
 96       0.000004428614
 97      -0.000001562594
 98      -0.000004788432
 99       0.000009709814
100       0.000002649775
101      -0.000004616795
102      -0.000009141509
103       0.000009512694
104      -0.000005926772
 Sym=     1a
 Ene= -5.62792083913322E+01
 Spin= Alpha
 Occup= 1.000000
  1      -0.000008579563
  2       0.000095392987
  3      -0.000383705064
  4      -0.000020132796
  5      -0.000028848708
  6      -0.000019683872
  7       0.000210600043
  8       0.000144583715
  9       0.000114365112
 10      -0.000008779996
 11      -0.000006817117
 12       0.000005031036
 13      -0.000011395118
 14      -0.000009793477
 15      -0.000000592832
 16      -0.000006594754
 17       0.000109858960
 18       0.000000940826
 19      -0.000004323291
 20      -0.000003279131
 21      -0.000107893587
 22      -0.000038984884
 23      -0.000040412150
 24       0.000004121633
 25       0.000003154212
 26       0.000007188089
 27       0.000004410528
 28      -0.000002547804
 29       0.000002871987
 30      -0.000023022906
 31      -0.000003229302
 32      -0.000017446939
 33      -0.000018611700
 34       0.000009902109
 35       0.000030936303
 36       0.000000766919
 37       0.000002125062
 38       0.000003278125
 39      -0.000013100505
 40      -0.000069660329
 41      -0.000001446262
 42       0.000001631662
 43       0.000006180192
 44       0.000002958714
 45      -0.000064975738
 46       0.000483803170
 47       0.000023214567
 48       0.000028790565
 49       0.000035383750
 50       0.000021026757
 51      -0.000220506005
 52      -0.000089364650
 53       0.000005081218
 54      -0.000007294788
 55      -0.000001844958
 56      -0.000005409794
 57      -0.000000442904
 58      -0.000061091530
 59       0.000014819111
 60       0.000010536577
 61       0.000013079830
 62       0.000016532233
 63      -0.000097356815
 64       0.000081541402
 65       0.000008985689
 66       0.000006809234
 67       0.000015221528
 68       0.000007677056
 69      -0.000378517016
 70       0.000023991160
 71      -0.000051559516
 72      -0.000000565667
 73       0.000004377093
 74      -0.000012614452
 75       0.000013870110
 76      -0.000079031774
 77       0.000241034925
 78       0.702361266521
 79      -0.436065590486
 80       0.546042590097
 81       0.016779275363
 82      -0.010407135526
 83       0.013047018601
 84      -0.004066793969
 85       0.002485189980
 86      -0.003170191718
 87       0.001523029190
 88      -0.000797523380
 89       0.001224929774
 90       0.000015591572
 91       0.000017330990
 92       0.000012375360
 93       0.000017608955
 94       0.000020671507
 95      -0.000003432380
 96      -0.000008203522
 97      -0.000011230760
 98      -0.000000555562
 99      -0.000010639961
100      -0.000002723277
101       0.000005408481
102       0.000014668542
103      -0.000009976024
104       0.000008106837
 Sym=     1a
 Ene= -1.02152757940824E+01
 Spin= Alpha
 Occup= 1.000000
  1      -0.135038156905
  2      -0.003902599211
  3      -0.003614658400
  4      -0.001885687922
  5       0.000686253102
  6      -0.001141937110
  7      -0.000686350804
  8      -0.001278192511
  9       0.004403133519
 10      -0.000137179513
 11       0.001096691549
 12      -0.000332927791
 13       0.000987765728
 14      -0.000440343786
 15      -0.026100176953
 16      -0.000509016872
 17      -0.004402571090
 18      -0.000264192788
 19       0.000104465969
 20      -0.000184428768
 21       0.004838294333
 22      -0.000533456137
 23       0.002346705536
 24      -0.000045925577
 25      -0.000050632523
 26       0.000072882471
 27      -0.000219036750
 28      -0.000048962631
 29       0.000887513020
 30       0.000603565671
 31       0.000191627678
 32      -0.000033241643
 33       0.000292574364
 34      -0.000688084353
 35      -0.001989587471
 36      -0.000028537425
 37       0.000004276425
 38       0.000056016132
 39       0.000986257364
 40       0.001717727234
 41       0.000027703555
 42       0.000070450255
 43      -0.000109658019
 44      -0.978298523157
 45      -0.051494846490
 46       0.043389911779
 47       0.000723671354
 48       0.000784321576
 49       0.000752017972
 50       0.002006832146
 51      -0.005450243370
 52      -0.001925105305
 53      -0.000807560065
 54       0.000218771251
 55       0.001396101367
 56      -0.001426812819
 57      -0.000143256458
 58       0.003098143866
 59      -0.007477552716
 60       0.002387585461
 61       0.000933437194
 62      -0.001373196699
 63       0.003085017926
 64      -0.007837181215
 65      -0.000278549300
 66      -0.000868945650
 67       0.002839361695
 68      -0.000861955290
 69      -0.014316529996
 70       0.000042603545
 71      -0.000084840746
 72      -0.000111063824
 73       0.000011841449
 74      -0.000021432355
 75       0.000205118363
 76      -0.002262363449
 77       0.008953690252
 78      -0.000007212038
 79      -0.000017193179
 80      -0.000006676049
 81       0.000025584190
 82       0.000062234491
 83       0.000024861112
 84      -0.000174302727
 85      -0.000514589922
 86      -0.000248580052
 87       0.001222084731
 88       0.004625902355
 89       0.002509225020
 90      -0.000013668266
 91       0.000017464027
 92       0.000057756455
 93      -0.000047368920
 94       0.000032700145
 95       0.000064866377
 96      -0.000082366053
 97      -0.000276632464
 98       0.000227079471
 99      -0.000153749984
100      -0.000211370432
101       0.000255399348
102       0.000914970164
103      -0.000758006071
104       0.000472235800
 Sym=     1a
 Ene= -1.02138067373930E+01
 Spin= Alpha
 Occup= 1.000000
  1       0.742433558210
  2       0.034025090812
  3      -0.027288268902
  4      -0.000182795061
  5       0.000391332992
  6      -0.001940495103
  7       0.002808017748
  8       0.002433757278
  9      -0.005954388477
 10      -0.000307066292
 11      -0.000021411592
 12      -0.000285059020
 13       0.001407222856
 14       0.000241090854
 15       0.641812527753
 16       0.028383986177
 17      -0.005161254172
 18       0.000067917956
 19      -0.000750853583
 20       0.002138277671
 21      -0.000652058569
 22       0.001359151032
 23      -0.004163230222
 24      -0.000471351853
 25       0.000084189861
 26      -0.000050113579
 27       0.001061504742
 28       0.000171136243
 29      -0.003665961057
 30       0.003929089086
 31       0.001954923875
 32       0.000229307333
 33      -0.000550013040
 34      -0.002817271388
 35       0.003970879309
 36       0.001529555554
 37      -0.000078663157
 38       0.000616644764
 39      -0.002712601359
 40       0.003878879292
 41      -0.001428274404
 42      -0.000317981963
 43       0.000585929024
 44      -0.118912970430
 45      -0.007662120468
 46       0.008175016761
 47      -0.001310453598
 48      -0.000130948128
 49      -0.001105205286
 50      -0.001549773063
 51       0.000462073088
 52       0.005526664452
 53       0.000044339032
 54      -0.000667172953
 55       0.000356394532
 56      -0.001060971146
 57       0.000042226917
 58       0.000172934011
 59      -0.003482068185
 60       0.000636356189
 61      -0.000008524251
 62      -0.000121485628
 63       0.001783823071
 64      -0.000059072187
 65       0.000315138213
 66      -0.000293523934
 67       0.000516621903
 68      -0.000424118640
 69       0.007232771197
 70       0.000159655022
 71      -0.000218284883
 72      -0.000085849193
 73      -0.000008168029
 74       0.000014914656
 75      -0.000141025980
 76       0.001414394641
 77      -0.004934282227
 78      -0.000003685982
 79       0.000022569570
 80       0.000004769516
 81       0.000011812529
 82      -0.000078888820
 83      -0.000017518879
 84       0.000000832888
 85       0.000486801800
 86       0.000166000941
 87      -0.000522213253
 88      -0.002799463251
 89      -0.001396370832
 90       0.000010497108
 91      -0.000006645188
 92      -0.000039772792
 93       0.000035788078
 94      -0.000017732461
 95      -0.000049552750
 96       0.000033997382
 97       0.000190171631
 98      -0.000169595023
 99       0.000086280366
100       0.000146353875
101      -0.000123320295
102      -0.000587057090
103       0.000511161482
104      -0.000273229992
 Sym=     1a
 Ene= -1.02133972009194E+01
 Spin= Alpha
 Occup= 1.000000
  1       0.638088703286
  2       0.034038508982
  3      -0.035268637666
  4       0.000356283499
  5      -0.000641902302
  6       0.001466585612
  7       0.002798766427
  8       0.000320775031
  9      -0.000023220154
 10       0.001548768537
 11       0.000081658880
 12      -0.001571419884
 13       0.001465486551
 14       0.000221572849
 15      -0.750780378124
 16      -0.039622206421
 17       0.032952779609
 18       0.000127453530
 19      -0.000426312900
 20       0.001140721310
 21      -0.001935199131
 22       0.000761882010
 23      -0.002629861439
 24      -0.001355814148
 25      -0.000143196599
 26       0.001564075425
 27      -0.001668780607
 28      -0.000267478820
 29      -0.002792399307
 30       0.005459932261
 31       0.001718928319
 32       0.000540767150
 33      -0.001415670244
 34       0.003766145526
 35      -0.005533667828
 36      -0.002239081073
 37       0.000217485170
 38      -0.001237689971
 39       0.003148286435
 40      -0.006599991352
 41       0.002095990917
 42       0.000618531224
 43      -0.001335200346
 44      -0.067506345616
 45      -0.005121158560
 46       0.011126568428
 47      -0.001465235276
 48      -0.000055876331
 49      -0.000784799656
 50       0.003696125041
 51       0.001379954145
 52       0.000362507000
 53      -0.000087828873
 54      -0.000716546169
 55       0.000395065249
 56      -0.001055914100
 57       0.000094319031
 58       0.001012261754
 59      -0.000042415333
 60       0.000562391296
 61      -0.000012011180
 62      -0.000103704401
 63       0.000162941220
 64      -0.001950698326
 65       0.000051154461
 66      -0.000196922908
 67       0.000409832208
 68      -0.000138350442
 69       0.003337720306
 70       0.000162233879
 71      -0.000105913407
 72       0.000171821675
 73      -0.000003853032
 74       0.000007071697
 75      -0.000066411179
 76       0.000644367145
 77      -0.002264641626
 78      -0.000004415054
 79       0.000011566893
 80       0.000001457447
 81       0.000014637994
 82      -0.000040490315
 83      -0.000005697501
 84      -0.000038197174
 85       0.000235035888
 86       0.000067893359
 87      -0.000173815360
 88      -0.001288576396
 89      -0.000632440096
 90       0.000004266699
 91      -0.000001713794
 92      -0.000018925211
 93       0.000018132236
 94      -0.000007396065
 95      -0.000018786994
 96       0.000009682409
 97       0.000089004816
 98      -0.000082742291
 99       0.000035729168
100       0.000050153568
101      -0.000042604904
102      -0.000264728017
103       0.000229319761
104      -0.000112516359
 Sym=     1a
 Ene= -8.66757861601649E+00
 Spin= Alpha
 Occup= 1.000000
  1       0.000035076094
  2      -0.000386085006
  3       0.000463176562
  4       0.000040442342
  5       0.000080387621
  6       0.000037363282
  7       0.000261522462
  8      -0.000361847337
  9       0.000646306232
 10      -0.000008891001
 11       0.000008595001
 12       0.000001138517
 13      -0.000007472002
 14      -0.000027855880
 15       0.000008031238
 16      -0.000030092828
 17      -0.000842685246
 18      -0.000001667150
 19       0.000015811382
 20       0.000011820065
 21       0.000062880390
 22      -0.000136814305
 23       0.000453310364
 24      -0.000006669389
 25      -0.000002251732
 26      -0.000004053044
 27      -0.000023029927
 28      -0.000004458105
 29      -0.000041367685
 30      -0.000031957828
 31      -0.000009355615
 32       0.000023125800
 33      -0.000000567812
 34       0.000003423942
 35      -0.000052917326
 36       0.000007535063
 37       0.000007294529
 38      -0.000011306898
 39      -0.000002448564
 40       0.000030007826
 41      -0.000003385922
 42       0.000004391443
 43      -0.000012050790
 44       0.000043493435
 45      -0.000761272309
 46       0.003437950201
 47      -0.000042799048
 48       0.000086551949
 49       0.000019063246
 50       0.000329804718
 51      -0.001176661849
 52      -0.000578930704
 53      -0.000012474151
 54       0.000013360158
 55       0.000051694046
 56      -0.000039452246
 57       0.000011277680
 58      -0.000106179049
 59      -0.000255643548
 60      -0.000024032320
 61       0.000016381456
 62      -0.000009583186
 63      -0.000189482955
 64      -0.000342498222
 65      -0.000032529264
 66      -0.000000898509
 67      -0.000014470365
 68       0.001030728817
 69      -0.006213575097
 70      -0.000141463492
 71      -0.000751943024
 72      -0.000404787843
 73      -0.136659884795
 74       0.516877833665
 75      -1.093412299298
 76      -0.032266831885
 77       0.014121260662
 78       0.000349673525
 79       0.001485960666
 80       0.000811665851
 81      -0.000821934426
 82      -0.003500746619
 83      -0.001911111207
 84      -0.000304080589
 85      -0.001195027316
 86      -0.000664857066
 87       0.000630222680
 88       0.002484843225
 89       0.001383227357
 90       0.000179036345
 91      -0.000166843098
 92      -0.000725618662
 93       0.000628591072
 94      -0.000307568725
 95       0.000142311656
 96      -0.000145200384
 97      -0.000592282028
 98       0.000505263954
 99      -0.000256337387
100      -0.000022905283
101       0.000031773669
102       0.000106646945
103      -0.000085966974
104       0.000050355228
 Sym=     1a
 Ene= -6.50034890004439E+00
 Spin= Alpha
 Occup= 1.000000
  1       0.000018099069
  2      -0.000227710384
  3       0.000321221913
  4       0.000024663684
  5       0.000046178758
  6       0.000021730417
  7       0.000094723667
  8      -0.000211285593
  9       0.000328216256
 10      -0.000004318362
 11       0.000005412890
 12       0.000001415442
 13      -0.000003705023
 14      -0.000014241624
 15       0.000004553563