
                                 *****************
                                 * O   R   C   A *
                                 *****************

                                            #,                                       
                                            ###                                      
                                            ####                                     
                                            #####                                    
                                            ######                                   
                                           ########,                                 
                                     ,,################,,,,,                         
                               ,,#################################,,                 
                          ,,##########################################,,             
                       ,#########################################, ''#####,          
                    ,#############################################,,   '####,        
                  ,##################################################,,,,####,       
                ,###########''''           ''''###############################       
              ,#####''   ,,,,##########,,,,          '''####'''          '####       
            ,##' ,,,,###########################,,,                        '##       
           ' ,,###''''                  '''############,,,                           
         ,,##''                                '''############,,,,        ,,,,,,###''
      ,#''                                            '''#######################'''  
     '                                                          ''''####''''         
             ,#######,   #######,   ,#######,      ##                                
            ,#'     '#,  ##    ##  ,#'     '#,    #''#        ,####,    ,#,          
            ##       ##  ##   ,#'  ##            #'  '#       #'       ,# #          
            ##       ##  #######   ##           ,######,      #####,      #          
            '#,     ,#'  ##    ##  '#,     ,#' ,#      #,     #,   #      #          
             '#######'   ##     ##  '#######'  #'      '#     '####' #    #          



                #########################################################
                #                        -***-                          #
                #          Department of theory and spectroscopy        #
                #                                                       #
                #                      Frank Neese                      #
                #                                                       #
                #     Directorship, Architecture, Infrastructure        #
                #                    SHARK, DRIVERS                     #
                #        Core code/Algorithms in most modules           #
                #                                                       #
                #        Max Planck Institute fuer Kohlenforschung      #
                #                Kaiser Wilhelm Platz 1                 #
                #                 D-45470 Muelheim/Ruhr                 #
                #                      Germany                          #
                #                                                       #
                #                  All rights reserved                  #
                #                        -***-                          #
                #########################################################


                         Program Version 6.1.0  -  RELEASE   -
                                (GIT: $679e74b$)
                          ($2025-06-10 18:02:51 +0200$)


 With contributions from (in alphabetic order):
[Max-Planck-Institut fuer Kohlenforschung]                               
  Daniel Aravena         : Magnetic Suceptibility                        
  Michael Atanasov       : Ab Initio Ligand Field Theory (pilot matlab implementation)
  Alexander A. Auer      : GIAO ZORA, VPT2 properties, NMR spectrum      
  Ute Becker             : All parallelization in ORCA, NUMFREQ, NUMCALC 
  Giovanni Bistoni       : ED, misc. LED, open-shell LED, HFLD           
  Dmytro Bykov           : pre 5.0 version of the SCF Hessian            
  Marcos Casanova-Páez   : Triplet and SCS-CIS(D). UHF-(DLPNO)-IP/EA/STEOM-CCSD. UHF-CVS-IP/STEOM-CCSD   
  Vijay G. Chilkuri      : MRCI spin determinant printing, contributions to CSF-ICE 
  Pauline Colinet        : FMM embedding                                 
  Dipayan Datta          : RHF DLPNO-CCSD density                        
  Achintya Kumar Dutta   : EOM-CC, STEOM-CC                              
  Nicolas Foglia         : Exact transition moments, OPA infrastructure, MCD improvements    
  Dmitry Ganyushin       : Spin-Orbit,Spin-Spin,Magnetic field MRCI      
  Miquel Garcia-Rates    : C-PCM and meta-GGA Hessian, CCSD/C-PCM, Gaussian charge scheme 
  Tiago L. C. Gouveia    : GS-ROHF, GS-ROCIS                             
  Yang Guo               : DLPNO-NEVPT2, F12-NEVPT2, CIM, IAO-localization        
  Andreas Hansen         : Spin unrestricted coupled pair/coupled cluster methods 
  Ingolf Harden          : AUTO-CI MPn and infrastructure                
  Benjamin Helmich-Paris : MC-RPA, TRAH-(SCF,CASSCF), AVAS, COSX integrals, SCF dyn. polar., MC-PDFT, srDFT 
  Lee Huntington         : MR-EOM, pCC                                   
  Robert Izsak           : Overlap fitted RIJCOSX, COSX-SCS-MP3, EOM     
  Riya Kayal             : Wick's Theorem for AUTO-CI, AUTO-CI UHF-CCSDT 
  Emily Kempfer          : AUTO-CI RHF CISDT and CCSDT, approximate NEVPT4
  Christian Kollmar      : KDIIS, OOCD, Brueckner-CCSD(T), CCSD density, CASPT2, CASPT2-K, improved NEVPT2 
  Axel Koslowski         : Symmetry handling                             
  Simone Kossmann        : meta-GGA functionals, TD-DFT gradient, OOMP2, (MP2 Hessian; deprecated post 5.0) 
  Lucas Lang             : DCDCAS, Hyperfine gauge corrections, ICE-SOC+SSC
  Marvin Lechner         : AUTO-CI (C++ implementation), FIC-MRCC        
  Spencer Leger          : CASSCF response                               
  Dagmar Lenk            : GEPOL surface, SMD, ORCA-2-JSON               
  Dimitrios Liakos       : Extrapolation schemes; Compound Job, Property file
  Dimitrios Manganas     : Further ROCIS development; embedding schemes. LFT, Crystal Embedding 
  Dimitrios Pantazis     : SARC Basis sets                               
  Anastasios Papadopoulos: AUTO-CI, single reference methods and gradients 
  Taras Petrenko         : pre 6.0 DFT Hessian and TD-DFT gradient,  ECA, NRVS 
  Petra Pikulova         : Analytic Raman intensities                    
  Peter Pinski           : DLPNO-MP2, DLPNO-MP2 Gradient                 
  Shashank Vittal Rao    : ES-AILFT, MagRelax                            
  Christoph Reimann      : Effective Core Potentials                     
  Marius Retegan         : Local ZFS, SOC                                
  Christoph Riplinger    : Optimizer, TS searches, QM/MM, DLPNO-CCSD(T), (RO)-DLPNO pert. Triples 
  Michael Roemelt        : Original ROCIS implementation, recursive CI coupling coefficients
  Masaaki Saitow         : Open-shell DLPNO-CCSD energy and density      
  Barbara Sandhoefer     : DKH picture change effects                    
  Yorick L. A. Schmerwitz: GMF and freeze-and-release deltaSCF, NEB S-IDPP initial path                    
  Kantharuban Sivalingam : CASSCF convergence/infrastructure, NEVPT2, NEVPT3, NEVPT4(SD), FIC-MRCI and CEPA variants
  Bernardo de Souza      : ESD, SOC TD-DFT                               
  Georgi L. Stoychev     : AutoAux, RI-MP2 NMR, DLPNO-MP2 response, X2C  
  Van Anh Tran           : RI-MP2 g-tensors                              
  Willem Van den Heuvel  : Paramagnetic NMR                              
  Zikuan Wang            : NOTCH, Electric field optimization            
  Frank Wennmohs         : Technical directorship and infrastructure     
  Hang Xu                : AUTO-CI-Response properties                   
                                                                         
[FACCTs GmbH]                                                            
  Markus Bursch, Nicolas Foglia, Miquel Garcia-Rates, Ingolf Harden, Hagen Neugebauer, Anastasios Papadopoulos, 
  Christoph Riplinger, Bernardo de Souza, Georgi L. Stoychev                                                    
                                                                 
  APM, various basis sets, CI-OPT, improved COSX, DLPNO-Multilevel,           
  DOCKER, DRACO, updates on ESD, Fragmentator, GOAT, IRC, LR-CPCM, L-BFGS, MBIS, meta-GGA TD-DFT gradient, ML-optimized integration grids, 
  MM, NACMEs, nearIR, NEB, NEB-TS, NL-DFT gradient (VV10), 2- and 3-layer-ONIOM, interface openCOSMO-RS, QMMM,   
  Crystal-QMMM, RESP, rigid body optimization, SF, symmetry and pop. for TD-DFT, various functionals, SOLVATOR                                   
                                                                         
[Other institutions]                                                     
  V. Asgeirsson          : NEB                                           
  Christoph Bannwarth    : sTDA-DFT, sTD-DFT, PBEh-3c, B97-3c, D3        
  Giovanni Bistoni       : ETS/NOCV, ADLD/ADEX, COVALED                  
  Martin Brehm           : Molecular dynamics                            
  Ronald Cardenas        : ETS/NOCV                                      
  Martina Colucci        : COVALED                                       
  Sebastian Ehlert       : rSCAN, r2SCAN, r2SCAN-3c, D4, dhf basis sets  
  Marvin Friede          : D4 for Fr, Ra, Ac-Lr                          
  Lars Goerigk           : TD-DFT with DH, B97 family of functionals     
  Stefan Grimme          : VdW corrections, initial TS optimization, DFT functionals, gCP, sTDA/sTD-DF 
  Waldemar Hujo          : DFT-NL                                        
  H. Jonsson             : NEB                                           
  Holger Kruse           : gCP                                           
  Marcel Mueller         : wB97X-3c, vDZP basis set                      
  Hagen Neugebauer       : wr2SCAN, Native XTB                           
  Gianluca Regni         : ADLD/ADEX                                     
  Tobias Risthaus        : pre 6.0 range-separated hybrid DFT and stability analysis
  Lukas Wittmann         : regularized MP2, r2SCAN double-hybrids, wr2SCAN        
                                                                         
We gratefully acknowledge several colleagues who have allowed us to      
interface, adapt or use parts of their codes:                            
  Ed Valeev, F. Pavosevic, A. Kumar             : LibInt (2-el integral package), F12 methods 
  Garnet Chan, S. Sharma, J. Yang, R. Olivares  : DMRG                   
  Ulf Ekstrom                                   : XCFun DFT Library      
  Mihaly Kallay                                 : mrcc  (arbitrary order and MRCC methods)
  Frank Weinhold                                : gennbo (NPA and NBO analysis)           
  Simon Mueller                                 : openCOSMO-RS                            
  Christopher J. Cramer and Donald G. Truhlar   : smd solvation model                     
  S Lehtola, MJT Oliveira, MAL Marques          : LibXC Library                           
  Liviu Ungur et al                             : ANISO software                          


 Your calculation uses the libint2 library for the computation of 2-el integrals
 For citations please refer to: http://libint.valeyev.net

 Your ORCA version has been built with support for libXC version: 7.0.0
 For citations please refer to: https://libxc.gitlab.io

 This ORCA versions uses:
   CBLAS   interface :  Fast vector & matrix operations
   LAPACKE interface :  Fast linear algebra routines
   SCALAPACK package :  Parallel linear algebra routines
   Shared memory     :  Shared parallel matrices
   BLAS/LAPACK       :  OpenBLAS 0.3.29  USE64BITINT DYNAMIC_ARCH NO_AFFINITY Zen SINGLE_THREADED
        Core in use  :  Zen
   Copyright (c) 2011-2014, The OpenBLAS Project


  ***********************************
  * Starting time: Sun Apr  5 14:29:53 2026
  * Host name:     QC1
  * Process ID:    25314
  * Working dir.:  /home/user/QC/radical/allyl/split-ts1_2
  ***********************************

NOTE: MaxCore=1200 MB was set to SCF,MP2,MDCI,CIPSI,MRCI,RASCI and CIS
      => If you want to overwrite this, your respective input block should be placed after the MaxCore statement
Warning: RI is on but no J-basis has been assigned. Assigning Def2/J (nothing to worry about!)
================================================================================

----- Orbital basis set information -----
Your calculation utilizes the basis: def-SVP
   H-Kr: A. Schäfer, H. Horn, R. Ahlrichs; J. Chem. Phys. 97, 2571 (1992)
   Rb-At: K. Eichkorn, F. Weigend, O. Treutler, R. Ahlrichs; Theor. Chem. Acc. 97, 119 (1997)
   Rn: F. Weigend, R. Ahlrichs; Phys. Chem. Chem. Phys. 7, 3297 (2005)
   Fr-Ra: I. S. Lim, P. Schwerdtfeger, B. Metz, H. Stoll, J. Chem. Phys. 122, 104103 (2005)
   Ac-Lr: X. Cao, M. Dolg, J. Molec. Struct. Theochem. 673 (2004)
----- AuxJ basis set information -----
Your calculation utilizes the auxiliary basis: def2/J
   H-Rn: F. Weigend, Phys. Chem. Chem. Phys. 8, 1057 (2006).
   Fr-Lr: K. Eichkorn, F. Weigend, O. Treutler, R. Ahlrichs; Theor. Chem. Acc. 97, 119 (1997).

================================================================================
                                        WARNINGS
                       Please study these warnings very carefully!
================================================================================


WARNING: your system is open-shell and RHF/RKS was chosen
  ===> : WILL SWITCH to UHF/UKS


================================================================================
                                       INPUT FILE
================================================================================
NAME = radical_007.inp
|  1> ! B3LYP def-SVP 
|  2> %maxcore 1200
|  3> %pal nprocs 8 end
|  4> * xyz 0 2
|  5> C    0.64078300   0.43203300   0.18871500
|  6> C    0.69709800   0.05962300   1.48149800
|  7> H    1.57182000   0.68042800  -0.33394500
|  8> H    1.64633500   0.01566100   2.02153000
|  9> H   -0.20541900  -0.22632800   2.03234800
| 10> C   -0.59231400   0.44276500  -0.61774700
| 11> H   -1.52591200   0.48694000  -0.03927400
| 12> H   -0.59735200   1.15000700  -1.45910200
| 13> H   -0.64994600  -0.59164700  -1.15857400
| 14> Br  -0.97596600  -2.27191700  -2.02971800
| 15> *
| 16> 
| 17>                          ****END OF INPUT****
================================================================================

                       ****************************
                       * Single Point Calculation *
                       ****************************

---------------------------------
CARTESIAN COORDINATES (ANGSTROEM)
---------------------------------
  C      0.640783    0.432033    0.188715
  C      0.697098    0.059623    1.481498
  H      1.571820    0.680428   -0.333945
  H      1.646335    0.015661    2.021530
  H     -0.205419   -0.226328    2.032348
  C     -0.592314    0.442765   -0.617747
  H     -1.525912    0.486940   -0.039274
  H     -0.597352    1.150007   -1.459102
  H     -0.649946   -0.591647   -1.158574
  Br    -0.975966   -2.271917   -2.029718

----------------------------
CARTESIAN COORDINATES (A.U.)
----------------------------
  NO LB      ZA    FRAG     MASS         X           Y           Z
   0 C     6.0000    0    12.011    1.210904    0.816424    0.356620
   1 C     6.0000    0    12.011    1.317324    0.112671    2.799625
   2 H     1.0000    0     1.008    2.970309    1.285823   -0.631065
   3 H     1.0000    0     1.008    3.111122    0.029595    3.820138
   4 H     1.0000    0     1.008   -0.388186   -0.427698    3.840581
   5 C     6.0000    0    12.011   -1.119311    0.836705   -1.167373
   6 H     1.0000    0     1.008   -2.883556    0.920183   -0.074217
   7 H     1.0000    0     1.008   -1.128832    2.173198   -2.757303
   8 H     1.0000    0     1.008   -1.228220   -1.118051   -2.189388
   9 Br   35.0000    0    79.900   -1.844308   -4.293301   -3.835611

--------------------------------
INTERNAL COORDINATES (ANGSTROEM)
--------------------------------
 C      0   0   0     0.000000000000     0.00000000     0.00000000
 C      1   0   0     1.346532016854     0.00000000     0.00000000
 H      1   2   0     1.096222352898   119.00588696     0.00000000
 H      2   1   3     1.092985864793   121.45389954     0.97747014
 H      2   1   3     1.095326723946   121.37097113   181.88665761
 C      1   2   3     1.473439630483   124.22886648   175.56136794
 H      6   1   2     1.099175904011   115.02790918    21.58928095
 H      6   1   2     1.099133687971   115.30838200   154.14176208
 H      6   1   2     1.168684507083   106.74482279   267.14030424
 Br     9   6   1     1.920543720418   173.05032023   147.72504604

---------------------------
INTERNAL COORDINATES (A.U.)
---------------------------
 C      0   0   0     0.000000000000     0.00000000     0.00000000
 C      1   0   0     2.544576742411     0.00000000     0.00000000
 H      1   2   0     2.071560028861   119.00588696     0.00000000
 H      2   1   3     2.065443952706   121.45389954     0.97747014
 H      2   1   3     2.069867535423   121.37097113   181.88665761
 C      1   2   3     2.784397376478   124.22886648   175.56136794
 H      6   1   2     2.077141431586   115.02790918    21.58928095
 H      6   1   2     2.077061654832   115.30838200   154.14176208
 H      6   1   2     2.208493655345   106.74482279   267.14030424
 Br     9   6   1     3.629301659812   173.05032023   147.72504604

---------------------
BASIS SET INFORMATION
---------------------
There are 3 groups of distinct atoms

 Group   1 Type C   : 7s4p1d contracted to 3s2p1d pattern {511/31/1}
 Group   2 Type H   : 4s1p contracted to 2s1p pattern {31/1}
 Group   3 Type Br  : 14s10p6d contracted to 5s4p3d pattern {63311/5311/411}

Atom   0C    basis set group =>   1
Atom   1C    basis set group =>   1
Atom   2H    basis set group =>   2
Atom   3H    basis set group =>   2
Atom   4H    basis set group =>   2
Atom   5C    basis set group =>   1
Atom   6H    basis set group =>   2
Atom   7H    basis set group =>   2
Atom   8H    basis set group =>   2
Atom   9Br   basis set group =>   3
---------------------------------
AUXILIARY/J BASIS SET INFORMATION
---------------------------------
There are 3 groups of distinct atoms

 Group   1 Type C   : 12s5p4d2f1g contracted to 6s4p3d1f1g pattern {711111/2111/211/2/1}
 Group   2 Type H   : 5s2p1d contracted to 3s1p1d pattern {311/2/1}
 Group   3 Type Br  : 19s5p5d3f1g contracted to 8s4p3d2f1g pattern {121111111/2111/311/21/1}

Atom   0C    basis set group =>   1
Atom   1C    basis set group =>   1
Atom   2H    basis set group =>   2
Atom   3H    basis set group =>   2
Atom   4H    basis set group =>   2
Atom   5C    basis set group =>   1
Atom   6H    basis set group =>   2
Atom   7H    basis set group =>   2
Atom   8H    basis set group =>   2
Atom   9Br   basis set group =>   3


           ************************************************************
           *        Program running with 8 parallel MPI-processes     *
           *              working on a common directory               *
           ************************************************************
------------------------------------------------------------------------------
                             ORCA STARTUP CALCULATIONS
                           -- RI-GTO INTEGRALS CHOSEN --
------------------------------------------------------------------------------
------------------------------------------------------------------------------
                   ___                                                        
                  /   \      - P O W E R E D   B Y -                         
                 /     \                                                     
                 |  |  |   _    _      __       _____    __    __             
                 |  |  |  | |  | |    /  \     |  _  \  |  |  /  |          
                  \  \/   | |  | |   /    \    | | | |  |  | /  /          
                 / \  \   | |__| |  /  /\  \   | |_| |  |  |/  /          
                |  |  |   |  __  | /  /__\  \  |    /   |      \           
                |  |  |   | |  | | |   __   |  |    \   |  |\   \          
                \     /   | |  | | |  |  |  |  | |\  \  |  | \   \       
                 \___/    |_|  |_| |__|  |__|  |_| \__\ |__|  \__/        
                                                                              
                      - O R C A' S   B I G   F R I E N D -                    
                                      &                                       
                       - I N T E G R A L  F E E D E R -                       
                                                                              
 v1 FN, 2020, v2 2021, v3 2022-2024                                           
------------------------------------------------------------------------------


----------------------
SHARK INTEGRAL PACKAGE
----------------------

Number of atoms                             ...     10
Number of basis functions                   ...    104
Number of shells                            ...     48
Maximum angular momentum                    ...      2
Integral batch strategy                     ... SHARK/LIBINT Hybrid
RI-J (if used) integral strategy            ... SPLIT-RIJ (Revised 2003 algorithm where possible)
Printlevel                                  ...      1
Contraction scheme used                     ... SEGMENTED contraction
Prescreening option                         ... SCHWARTZ
   Thresh                                   ... 1.000e-10
   Tcut                                     ... 1.000e-11
   Tpresel                                  ... 1.000e-11 
Coulomb Range Separation                    ... NOT USED
Exchange Range Separation                   ... NOT USED
Multipole approximations                    ... NOT USED
Finite Nucleus Model                        ... NOT USED
CABS basis                                  ... NOT available
Auxiliary Coulomb fitting basis             ... AVAILABLE
   # of basis functions in Aux-J            ...    271
   # of shells in Aux-J                     ...     93
   Maximum angular momentum in Aux-J        ...      4
Auxiliary J/K fitting basis                 ... NOT available
Auxiliary Correlation fitting basis         ... NOT available
Auxiliary 'external' fitting basis          ... NOT available

Checking pre-screening integrals            ... done (  0.0 sec) Dimension = 48
   => SHARK Basis and OBASIS are compatible. Storing Pre-screening
Shell pair information
Shell pair cut-off parameter TPreSel        ...   1.0e-11
Total number of shell pairs                 ...      1176
Shell pairs after pre-screening             ...      1081
Total number of primitive shell pairs       ...      4753
Primitive shell pairs kept                  ...      3298
          la=0 lb=0:    331 shell pairs
          la=1 lb=0:    383 shell pairs
          la=1 lb=1:    124 shell pairs
          la=2 lb=0:    139 shell pairs
          la=2 lb=1:     86 shell pairs
          la=2 lb=2:     18 shell pairs

Checking whether 4 symmetric matrices of dimension 104 fit in memory
:Max Core in MB      =   1200.00
 MB in use           =      4.72
 MB left             =   1195.28
 MB needed           =      0.17
 Data fit in memory  = YES
Calculating RI/J V-Matrix + Cholesky decomp.... done (  0.0 sec)
Calculating Nuclear repulsion               ... done (  0.0 sec) ENN=    192.039591923238 Eh

Diagonalization of the overlap matrix:
Smallest eigenvalue                        ... 2.771e-03
Time for diagonalization                   ...    0.001 sec
Threshold for overlap eigenvalues          ... 1.000e-07
Number of eigenvalues below threshold      ... 0
Time for construction of square roots      ...    0.000 sec
Total time needed                          ...    0.002 sec

-------------------
DFT GRID GENERATION
-------------------

General Integration Accuracy     IntAcc      ... 4.388
Radial Grid Type                 RadialGrid  ... OptM3 with GC (2021)
Angular Grid (max. ang.)         AngularGrid ... 4 (Lebedev-302)
Angular grid pruning method      GridPruning ... 4 (adaptive)
Weight generation scheme         WeightScheme... mBecke (2022)
Basis function cutoff            BFCut       ... 1.0000e-10
Integration weight cutoff        WCut        ... 1.0000e-14
Partially contracted basis set               ... off
Rotationally invariant grid construction     ... off
Angular grids for H and He will be reduced by one unit
Core-polarized basis detected: some atoms will have their core
                               angular grid increased.

Total number of grid points                  ...    48991
Total number of batches                      ...      772
Average number of points per batch           ...       63
Average number of grid points per atom       ...     4899

--------------------
COSX GRID GENERATION
--------------------

GRIDX 1
-------
General Integration Accuracy     IntAcc      ... 3.816
Radial Grid Type                 RadialGrid  ... OptM3 with GC (2021)
Angular Grid (max. ang.)         AngularGrid ... 1 (Lebedev-50)
Angular grid pruning method      GridPruning ... 4 (adaptive)
Weight generation scheme         WeightScheme... mBecke (2022)
Basis function cutoff            BFCut       ... 1.0000e-10
Integration weight cutoff        WCut        ... 1.0000e-14
Partially contracted basis set               ... on
Rotationally invariant grid construction     ... off
Angular grids for H and He will be reduced by one unit
Core-polarized basis detected: some atoms will have their core
                               angular grid increased.

Total number of grid points                  ...    11058
Total number of batches                      ...       91
Average number of points per batch           ...      121
Average number of grid points per atom       ...     1106
UseSFitting                                  ... on

GRIDX 2
-------
General Integration Accuracy     IntAcc      ... 4.020
Radial Grid Type                 RadialGrid  ... OptM3 with GC (2021)
Angular Grid (max. ang.)         AngularGrid ... 2 (Lebedev-110)
Angular grid pruning method      GridPruning ... 4 (adaptive)
Weight generation scheme         WeightScheme... mBecke (2022)
Basis function cutoff            BFCut       ... 1.0000e-10
Integration weight cutoff        WCut        ... 1.0000e-14
Partially contracted basis set               ... on
Rotationally invariant grid construction     ... off
Angular grids for H and He will be reduced by one unit
Core-polarized basis detected: some atoms will have their core
                               angular grid increased.

Total number of grid points                  ...    16375
Total number of batches                      ...      132
Average number of points per batch           ...      124
Average number of grid points per atom       ...     1638
UseSFitting                                  ... on

GRIDX 3
-------
General Integration Accuracy     IntAcc      ... 4.338
Radial Grid Type                 RadialGrid  ... OptM3 with GC (2021)
Angular Grid (max. ang.)         AngularGrid ... 3 (Lebedev-194)
Angular grid pruning method      GridPruning ... 4 (adaptive)
Weight generation scheme         WeightScheme... mBecke (2022)
Basis function cutoff            BFCut       ... 1.0000e-10
Integration weight cutoff        WCut        ... 1.0000e-14
Partially contracted basis set               ... on
Rotationally invariant grid construction     ... off
Angular grids for H and He will be reduced by one unit
Core-polarized basis detected: some atoms will have their core
                               angular grid increased.

Total number of grid points                  ...    28549
Total number of batches                      ...      229
Average number of points per batch           ...      124
Average number of grid points per atom       ...     2855
UseSFitting                                  ... on
Grids setup in   0.4 sec
Initializing property integral containers    ... done (  0.0 sec)

SHARK setup successfully completed in   0.5 seconds

Maximum memory used throughout the entire STARTUP-calculation: 17.7 MB


           ************************************************************
           *        Program running with 8 parallel MPI-processes     *
           *              working on a common directory               *
           ************************************************************
-------------------------------------------------------------------------------
                                 ORCA GUESS
                   Start orbitals & Density for SCF / CASSCF
-------------------------------------------------------------------------------

------------
SCF SETTINGS
------------
Hamiltonian:
 Density Functional     Method          .... DFT(GTOs)
 Exchange Functional    Exchange        .... B88
   X-Alpha parameter    XAlpha          ....  0.666667
   Becke's b parameter  XBeta           ....  0.004200
 Correlation Functional Correlation     .... LYP
 LDA part of GGA corr.  LDAOpt          .... VWN-5
 Gradients option       PostSCFGGA      .... off
 Hybrid DFT is turned on
   Fraction HF Exchange ScalHFX         ....  0.200000
   Scaling of DF-GGA-X  ScalDFX         ....  0.720000
   Scaling of DF-GGA-C  ScalDFC         ....  0.810000
   Scaling of DF-LDA-C  ScalLDAC        ....  1.000000
   Perturbative correction              ....  0.000000
   NL short-range parameter             ....  4.800000
 RI-approximation to the Coulomb term is turned on
   Number of AuxJ basis functions       .... 271
   RIJ-COSX (HFX calculated with COS-X)).... on


General Settings:
 Integral files         IntName         .... radical_007
 Hartree-Fock type      HFTyp           .... UHF
 Total Charge           Charge          ....    0
 Multiplicity           Mult            ....    2
 Number of Electrons    NEL             ....   59
 Basis Dimension        Dim             ....  104
 Nuclear Repulsion      ENuc            ....    192.0395919232 Eh

Convergence Acceleration:
 AO-DIIS                CNVDIIS         .... on
   Start iteration      DIISMaxIt       ....    12
   Startup error        DIISStart       ....  0.200000
   # of expansion vecs  DIISMaxEq       ....     5
   Bias factor          DIISBfac        ....   1.050
   Max. coefficient     DIISMaxC        ....  10.000
 MO-DIIS                CNVKDIIS        .... off
 Trust-Rad. Augm. Hess. CNVTRAH         .... auto
   Auto Start mean grad. ratio tolernc. ....  1.125000
   Auto Start start iteration           ....    50
   Auto Start num. interpolation iter.  ....    10
   Max. Number of Micro iterations      ....    24
   Max. Number of Macro iterations      .... Maxiter - #DIIS iter
   Number of Davidson start vectors     ....     2
   Converg. threshold    (grad. norm)   ....   5.000e-05
   Grad. Scal. Fac. for Micro threshold ....   0.100
   Minimum threshold for Micro iter.    ....   1.000e-02
   NR start threshold (gradient norm)   ....   1.000e-04
   Initial trust radius                 ....   0.400
   Minimum AH scaling param. (alpha)    ....   1.000
   Maximum AH scaling param. (alpha)    .... 1000.000
   Quad. conv. algorithm                .... NR
   White noise on init. David. guess    .... on
   Maximum white noise                  ....   0.010
   Pseudo random numbers                .... off
   Inactive MOs                         .... canonical
   Orbital update algorithm             .... Taylor
   Preconditioner                       .... Diag
   Full preconditioner red. dimension   ....   250
 SOSCF                 CNVSOSCF           .... on
   Start iteration     SOSCFMaxIt         ....   150
   Startup grad/error  SOSCFStart         ....  0.003300
   Hessian update      SOSCFHessUp        .... L-BFGS
   Autom. constraints  SOSCFAutoConstrain .... off
 Level Shifting         CNVShift        .... on
   Level shift para.    LevelShift      ....    0.2500
   Turn off err/grad.   ShiftErr        ....    0.0010
 Zerner damping         CNVZerner       .... off
 Static damping         CNVDamp         .... on
   Fraction old density DampFac         ....    0.7000
   Max. Damping (<1)    DampMax         ....    0.9800
   Min. Damping (>=0)   DampMin         ....    0.0000
   Turn off err/grad.   DampErr         ....    0.1000

SCF Procedure:
 Maximum # iterations   MaxIter         ....   125
 SCF integral mode      SCFMode         .... Direct
   Integral package                     .... SHARK and LIBINT hybrid scheme
 Reset frequency        DirectResetFreq ....    20
 Integral Threshold     Thresh          ....  1.000e-10 Eh
 Primitive CutOff       TCut            ....  1.000e-11 Eh

Convergence Tolerance:
 Convergence Check Mode ConvCheckMode   .... Total+1el-Energy
 Convergence forced     ConvForced      .... 0
 Energy Change          TolE            ....  1.000e-06 Eh
 1-El. energy change                    ....  1.000e-03 Eh
 Orbital Gradient       TolG            ....  5.000e-05
 Orbital Rotation angle TolX            ....  5.000e-05
 DIIS Error             TolErr          ....  1.000e-06

------------------------------
INITIAL GUESS: MODEL POTENTIAL
------------------------------
Loading Hartree-Fock densities                     ... done
Calculating cut-offs                               ... done
Initializing the effective Hamiltonian             ... done
Setting up the integral package (SHARK)            ... done
Starting the Coulomb interaction                   ... done (   0.0 sec)
Making the grid                                    ... done (   0.1 sec)
Mapping shells                                     ... done
Starting the XC term evaluation                    ... done (   0.0 sec)
  promolecular density results
     # of electrons  =     58.997668980
     EX              =   -106.842760825
     EC              =     -2.449259909
     EX+EC           =   -109.292020735
Transforming the Hamiltonian                       ... done (   0.0 sec)
Diagonalizing the Hamiltonian                      ... done (   0.0 sec)
Back transforming the eigenvectors                 ... done (   0.0 sec)
Now organizing SCF variables                       ... done
                      ------------------
                      INITIAL GUESS DONE (   0.1 sec)
                      ------------------
             **** ENERGY FILE WAS UPDATED (radical_007.en.tmp) ****
Finished Guess after   0.4 sec
Maximum memory used throughout the entire GUESS-calculation: 8.9 MB


           ************************************************************
           *        Program running with 8 parallel MPI-processes     *
           *              working on a common directory               *
           ************************************************************

-------------------------------------------------------------------------------------------
                                      ORCA LEAN-SCF
                              memory conserving SCF solver
-------------------------------------------------------------------------------------------

----------------------------------------D-I-I-S--------------------------------------------
Iteration    Energy (Eh)           Delta-E    RMSDP     MaxDP     DIISErr   Damp  Time(sec)
-------------------------------------------------------------------------------------------
               ***  Starting incremental Fock matrix formation  ***
    1    -2691.3235765881859152     0.00e+00  4.57e-03  3.57e-02  7.58e-02  0.700   0.3
Warning: op=1 Small HOMO/LUMO gap (   0.071) - skipping pre-diagonalization
         Will do a full diagonalization
    2    -2691.3711961412750497    -4.76e-02  3.48e-03  2.14e-02  4.04e-02  0.700   0.2
                               ***Turning on AO-DIIS***
    3    -2691.3906017595131743    -1.94e-02  1.55e-03  1.28e-02  1.64e-02  0.700   0.2
    4    -2691.4013735351240939    -1.08e-02  3.00e-03  2.97e-02  8.69e-03  0.000   0.2
    5    -2691.4253550508260560    -2.40e-02  7.15e-04  5.58e-03  3.73e-03  0.000   0.2
                              *** Initializing SOSCF ***
---------------------------------------S-O-S-C-F--------------------------------------
Iteration    Energy (Eh)           Delta-E    RMSDP     MaxDP     MaxGrad    Time(sec)
--------------------------------------------------------------------------------------
    6    -2691.4257505284863328    -3.95e-04  3.16e-04  2.63e-03  1.86e-03     0.2
               *** Restarting incremental Fock matrix formation ***
    7    -2691.4258299064240418    -7.94e-05  4.54e-04  3.46e-03  2.17e-03     0.2
    8    -2691.4258885093090612    -5.86e-05  4.38e-04  2.99e-03  1.50e-03     0.2
    9    -2691.4259021139241668    -1.36e-05  1.47e-04  1.18e-03  7.60e-04     0.2
   10    -2691.4259124874433837    -1.04e-05  8.02e-05  5.29e-04  2.85e-04     0.2
   11    -2691.4259132319411947    -7.44e-07  4.39e-05  3.80e-04  2.31e-04     0.2
                 **** Energy Check signals convergence ****

               *****************************************************
               *                     SUCCESS                       *
               *           SCF CONVERGED AFTER  11 CYCLES          *
               *****************************************************

Recomputing exchange energy using gridx3       ... done (    0.243 sec)
Old exchange energy                            :    -21.428285155 Eh
New exchange energy                            :    -21.428246317 Eh
Exchange energy change after final integration :      0.000038838 Eh
Total energy after final integration           :  -2691.425875374 Eh
             **** ENERGY FILE WAS UPDATED (radical_007.en.tmp) ****

----------------
TOTAL SCF ENERGY
----------------

Total Energy       :      -2691.42587537386635 Eh          -73237.42139 eV

Components:
Nuclear Repulsion  :        192.03959192323791 Eh            5225.66296 eV
Electronic Energy  :      -2883.46550613488262 Eh          -78463.08541 eV
One Electron Energy:      -4121.39315016544424 Eh         -112148.80915 eV
Two Electron Energy:       1237.92764403056162 Eh           33685.72374 eV

Virial components:
Potential Energy   :      -5378.51939350325301 Eh         -146356.95334 eV
Kinetic Energy     :       2687.09351812938712 Eh           73119.53195 eV
Virial Ratio       :          2.00161228376134

DFT components:
N(Alpha)           :       29.999998066141 electrons
N(Beta)            :       28.999995701365 electrons
N(Total)           :       58.999993767506 electrons
E(X)               :      -85.245494633770 Eh       
E(C)               :       -2.873478094577 Eh       
E(XC)              :      -88.118972728347 Eh       

---------------
SCF CONVERGENCE
---------------

  Last Energy change         ...    7.4450e-07  Tolerance :   1.0000e-06
  Last MAX-Density change    ...    3.8013e-04  Tolerance :   1.0000e-05
  Last RMS-Density change    ...    4.3874e-05  Tolerance :   1.0000e-06
  Last DIIS Error            ...    1.8551e-03  Tolerance :   1.0000e-06
  Last Orbital Gradient      ...    2.3142e-04  Tolerance :   5.0000e-05
  Last Orbital Rotation      ...    8.0172e-04  Tolerance :   5.0000e-05


----------------------
UHF SPIN CONTAMINATION
----------------------

Warning: in a DFT calculation there is little theoretical justification to 
         calculate <S**2> as in Hartree-Fock theory. We will do it anyways
         but you should keep in mind that the values have only limited relevance

Expectation value of <S**2>     :     0.758701
Ideal value S*(S+1) for S=0.5   :     0.750000
Deviation                       :     0.008701

----------------
ORBITAL ENERGIES
----------------
                 SPIN UP ORBITALS
  NO   OCC          E(Eh)            E(eV) 
   0   1.0000    -482.764043    -13136.6775 
   1   1.0000     -62.447029     -1699.2701 
   2   1.0000     -56.280478     -1531.4697 
   3   1.0000     -56.276327     -1531.3567 
   4   1.0000     -56.276316     -1531.3564 
   5   1.0000     -10.219197      -278.0785 
   6   1.0000     -10.217612      -278.0354 
   7   1.0000     -10.212091      -277.8851 
   8   1.0000      -8.665255      -235.7936 
   9   1.0000      -6.502054      -176.9299 
  10   1.0000      -6.484470      -176.4514 
  11   1.0000      -6.484419      -176.4500 
  12   1.0000      -2.614518       -71.1447 
  13   1.0000      -2.610194       -71.0270 
  14   1.0000      -2.610160       -71.0261 
  15   1.0000      -2.597111       -70.6710 
  16   1.0000      -2.597110       -70.6709 
  17   1.0000      -0.809673       -22.0323 
  18   1.0000      -0.744758       -20.2659 
  19   1.0000      -0.702785       -19.1238 
  20   1.0000      -0.573478       -15.6051 
  21   1.0000      -0.493653       -13.4330 
  22   1.0000      -0.453489       -12.3401 
  23   1.0000      -0.447963       -12.1897 
  24   1.0000      -0.402121       -10.9423 
  25   1.0000      -0.375299       -10.2124 
  26   1.0000      -0.310658        -8.4534 
  27   1.0000      -0.273037        -7.4297 
  28   1.0000      -0.272795        -7.4231 
  29   1.0000      -0.263075        -7.1586 
  30   0.0000      -0.013689        -0.3725 
  31   0.0000       0.062873         1.7109 
  32   0.0000       0.080312         2.1854 
  33   0.0000       0.098011         2.6670 
  34   0.0000       0.135805         3.6954 
  35   0.0000       0.140229         3.8158 
  36   0.0000       0.184066         5.0087 
  37   0.0000       0.241499         6.5715 
  38   0.0000       0.317014         8.6264 
  39   0.0000       0.355661         9.6780 
  40   0.0000       0.376057        10.2330 

                 SPIN DOWN ORBITALS
  NO   OCC          E(Eh)            E(eV) 
   0   1.0000    -482.762123    -13136.6252 
   1   1.0000     -62.446013     -1699.2424 
   2   1.0000     -56.276427     -1531.3594 
   3   1.0000     -56.275583     -1531.3365 
   4   1.0000     -56.275572     -1531.3362 
   5   1.0000     -10.218617      -278.0627 
   6   1.0000     -10.215121      -277.9676 
   7   1.0000     -10.209238      -277.8075 
   8   1.0000      -8.662393      -235.7157 
   9   1.0000      -6.494232      -176.7170 
  10   1.0000      -6.483174      -176.4161 
  11   1.0000      -6.483124      -176.4148 
  12   1.0000      -2.608959       -70.9934 
  13   1.0000      -2.605872       -70.9094 
  14   1.0000      -2.605838       -70.9085 
  15   1.0000      -2.596371       -70.6508 
  16   1.0000      -2.596370       -70.6508 
  17   1.0000      -0.804503       -21.8916 
  18   1.0000      -0.718981       -19.5645 
  19   1.0000      -0.689244       -18.7553 
  20   1.0000      -0.570472       -15.5233 
  21   1.0000      -0.491156       -13.3650 
  22   1.0000      -0.449253       -12.2248 
  23   1.0000      -0.428113       -11.6496 
  24   1.0000      -0.399085       -10.8596 
  25   1.0000      -0.373602       -10.1662 
  26   1.0000      -0.281775        -7.6675 
  27   1.0000      -0.263252        -7.1634 
  28   1.0000      -0.262935        -7.1548 
  29   0.0000      -0.177309        -4.8248 
  30   0.0000      -0.005385        -0.1465 
  31   0.0000       0.064112         1.7446 
  32   0.0000       0.081564         2.2195 
  33   0.0000       0.100118         2.7243 
  34   0.0000       0.137769         3.7489 
  35   0.0000       0.141228         3.8430 
  36   0.0000       0.196628         5.3505 
  37   0.0000       0.243083         6.6146 
  38   0.0000       0.319757         8.7010 
  39   0.0000       0.365176         9.9369 
*Only the first 10 virtual orbitals were printed.

                    ********************************
                    * MULLIKEN POPULATION ANALYSIS *
                    ********************************

--------------------------------------------
MULLIKEN ATOMIC CHARGES AND SPIN POPULATIONS
--------------------------------------------
   0 C :   -0.089820   -0.077712
   1 C :   -0.003440    0.217898
   2 H :    0.023947    0.002835
   3 H :    0.039659   -0.009377
   4 H :    0.032728   -0.009206
   5 C :    0.068008    0.212244
   6 H :    0.043453   -0.003135
   7 H :    0.041564    0.000394
   8 H :    0.042052   -0.023766
   9 Br:   -0.198152    0.689825
Sum of atomic charges         :    0.0000000
Sum of atomic spin populations:    1.0000000

-----------------------------------------------------
MULLIKEN REDUCED ORBITAL CHARGES AND SPIN POPULATIONS
-----------------------------------------------------
CHARGE
  0 C s       :     3.160585  s :     3.160585
      pz      :     0.975511  p :     2.893268
      px      :     0.964674
      py      :     0.953083
      dz2     :     0.008730  d :     0.035967
      dxz     :     0.013034
      dyz     :     0.006678
      dx2y2   :     0.004468
      dxy     :     0.003058

  1 C s       :     3.122582  s :     3.122582
      pz      :     0.976057  p :     2.854668
      px      :     0.931541
      py      :     0.947069
      dz2     :     0.006873  d :     0.026190
      dxz     :     0.010572
      dyz     :     0.004849
      dx2y2   :     0.002796
      dxy     :     0.001100

  2 H s       :     0.953650  s :     0.953650
      pz      :     0.006043  p :     0.022403
      px      :     0.011642
      py      :     0.004719

  3 H s       :     0.936935  s :     0.936935
      pz      :     0.006650  p :     0.023406
      px      :     0.012290
      py      :     0.004466

  4 H s       :     0.943958  s :     0.943958
      pz      :     0.006823  p :     0.023314
      px      :     0.011376
      py      :     0.005114

  5 C s       :     2.969574  s :     2.969574
      pz      :     0.981998  p :     2.933211
      px      :     0.976747
      py      :     0.974466
      dz2     :     0.003062  d :     0.029207
      dxz     :     0.007780
      dyz     :     0.007850
      dx2y2   :     0.008304
      dxy     :     0.002211

  6 H s       :     0.933526  s :     0.933526
      pz      :     0.006965  p :     0.023021
      px      :     0.011427
      py      :     0.004630

  7 H s       :     0.935186  s :     0.935186
      pz      :     0.010011  p :     0.023250
      px      :     0.003935
      py      :     0.009304

  8 H s       :     0.925537  s :     0.925537
      pz      :     0.009039  p :     0.032411
      px      :     0.005767
      py      :     0.017605

  9 Brs       :     7.978916  s :     7.978916
      pz      :     5.850658  p :    17.209698
      px      :     5.980118
      py      :     5.378922
      dz2     :     2.000483  d :    10.009537
      dxz     :     2.000195
      dyz     :     2.004296
      dx2y2   :     2.003844
      dxy     :     2.000719


SPIN
  0 C s       :    -0.011208  s :    -0.011208
      pz      :    -0.010798  p :    -0.069279
      px      :    -0.007881
      py      :    -0.050599
      dz2     :     0.000597  d :     0.002774
      dxz     :    -0.000003
      dyz     :     0.001504
      dx2y2   :     0.000170
      dxy     :     0.000506

  1 C s       :     0.021344  s :     0.021344
      pz      :     0.017835  p :     0.197175
      px      :     0.012788
      py      :     0.166551
      dz2     :    -0.000145  d :    -0.000621
      dxz     :    -0.000004
      dyz     :    -0.000195
      dx2y2   :    -0.000246
      dxy     :    -0.000031

  2 H s       :     0.003131  s :     0.003131
      pz      :    -0.000016  p :    -0.000297
      px      :    -0.000016
      py      :    -0.000265

  3 H s       :    -0.010282  s :    -0.010282
      pz      :     0.000057  p :     0.000905
      px      :     0.000048
      py      :     0.000800

  4 H s       :    -0.010028  s :    -0.010028
      pz      :     0.000029  p :     0.000821
      px      :     0.000045
      py      :     0.000747

  5 C s       :     0.017259  s :     0.017259
      pz      :     0.038874  p :     0.195421
      px      :     0.008151
      py      :     0.148396
      dz2     :     0.000040  d :    -0.000437
      dxz     :    -0.000173
      dyz     :    -0.000080
      dx2y2   :    -0.000022
      dxy     :    -0.000202

  6 H s       :    -0.003935  s :    -0.003935
      pz      :     0.000030  p :     0.000801
      px      :     0.000094
      py      :     0.000677

  7 H s       :    -0.000529  s :    -0.000529
      pz      :     0.000516  p :     0.000923
      px      :    -0.000013
      py      :     0.000419

  8 H s       :    -0.034029  s :    -0.034029
      pz      :     0.002124  p :     0.010263
      px      :     0.000185
      py      :     0.007953

  9 Brs       :     0.000121  s :     0.000121
      pz      :     0.128091  p :     0.689972
      px      :     0.009347
      py      :     0.552534
      dz2     :     0.000006  d :    -0.000268
      dxz     :    -0.000003
      dyz     :    -0.000151
      dx2y2   :    -0.000111
      dxy     :    -0.000009



                     *******************************
                     * LOEWDIN POPULATION ANALYSIS *
                     *******************************

-------------------------------------------
LOEWDIN ATOMIC CHARGES AND SPIN POPULATIONS
-------------------------------------------
   0 C :   -0.016228   -0.047734
   1 C :   -0.011058    0.179818
   2 H :    0.033473    0.000169
   3 H :    0.031488   -0.000496
   4 H :    0.028943   -0.000799
   5 C :   -0.020530    0.171344
   6 H :    0.040777    0.001466
   7 H :    0.042622    0.003717
   8 H :    0.026402    0.037882
   9 Br:   -0.155888    0.654634

----------------------------------------------------
LOEWDIN REDUCED ORBITAL CHARGES AND SPIN POPULATIONS
----------------------------------------------------
CHARGE
  0 C s       :     2.879254  s :     2.879254
      pz      :     1.070103  p :     3.047110
      px      :     1.038515
      py      :     0.938491
      dz2     :     0.023479  d :     0.089864
      dxz     :     0.034940
      dyz     :     0.014483
      dx2y2   :     0.010360
      dxy     :     0.006603

  1 C s       :     2.894166  s :     2.894166
      pz      :     1.061988  p :     3.049138
      px      :     1.044201
      py      :     0.942949
      dz2     :     0.018764  d :     0.067754
      dxz     :     0.028667
      dyz     :     0.010549
      dx2y2   :     0.006866
      dxy     :     0.002908

  2 H s       :     0.900391  s :     0.900391
      pz      :     0.017242  p :     0.066136
      px      :     0.034428
      py      :     0.014466

  3 H s       :     0.900895  s :     0.900895
      pz      :     0.018012  p :     0.067617
      px      :     0.035985
      py      :     0.013620

  4 H s       :     0.903802  s :     0.903802
      pz      :     0.018357  p :     0.067255
      px      :     0.033408
      py      :     0.015490

  5 C s       :     2.855886  s :     2.855886
      pz      :     1.040494  p :     3.092306
      px      :     1.050860
      py      :     1.000953
      dz2     :     0.006357  d :     0.072337
      dxz     :     0.021283
      dyz     :     0.019233
      dx2y2   :     0.021060
      dxy     :     0.004404

  6 H s       :     0.893159  s :     0.893159
      pz      :     0.019973  p :     0.066063
      px      :     0.033644
      py      :     0.012447

  7 H s       :     0.890951  s :     0.890951
      pz      :     0.029499  p :     0.066427
      px      :     0.011172
      py      :     0.025757

  8 H s       :     0.873978  s :     0.873978
      pz      :     0.025642  p :     0.099620
      px      :     0.013152
      py      :     0.060826

  9 Brs       :     7.952249  s :     7.952249
      pz      :     5.845119  p :    17.189163
      px      :     5.980229
      py      :     5.363814
      dz2     :     2.000649  d :    10.014476
      dxz     :     2.000268
      dyz     :     2.006632
      dx2y2   :     2.005915
      dxy     :     2.001013


SPIN
  0 C s       :    -0.003092  s :    -0.003092
      pz      :    -0.004809  p :    -0.051184
      px      :    -0.003576
      py      :    -0.042799
      dz2     :     0.001458  d :     0.006542
      dxz     :     0.000213
      dyz     :     0.003270
      dx2y2   :     0.000320
      dxy     :     0.001282

  1 C s       :     0.005659  s :     0.005659
      pz      :     0.014529  p :     0.175608
      px      :     0.006934
      py      :     0.154144
      dz2     :    -0.000369  d :    -0.001448
      dxz     :    -0.000192
      dyz     :    -0.000562
      dx2y2   :    -0.000282
      dxy     :    -0.000043

  2 H s       :     0.001475  s :     0.001475
      pz      :    -0.000060  p :    -0.001306
      px      :    -0.000206
      py      :    -0.001039

  3 H s       :    -0.004472  s :    -0.004472
      pz      :     0.000409  p :     0.003975
      px      :     0.000518
      py      :     0.003048

  4 H s       :    -0.004556  s :    -0.004556
      pz      :     0.000401  p :     0.003757
      px      :     0.000455
      py      :     0.002901

  5 C s       :     0.010595  s :     0.010595
      pz      :     0.030979  p :     0.162749
      px      :     0.004624
      py      :     0.127146
      dz2     :    -0.000030  d :    -0.002000
      dxz     :    -0.000406
      dyz     :    -0.000691
      dx2y2   :    -0.000461
      dxy     :    -0.000412

  6 H s       :    -0.002684  s :    -0.002684
      pz      :     0.000602  p :     0.004149
      px      :     0.000522
      py      :     0.003025

  7 H s       :    -0.000757  s :    -0.000757
      pz      :     0.001509  p :     0.004474
      px      :     0.000068
      py      :     0.002897

  8 H s       :     0.003160  s :     0.003160
      pz      :     0.007146  p :     0.034722
      px      :     0.000469
      py      :     0.027106

  9 Brs       :     0.000018  s :     0.000018
      pz      :     0.121102  p :     0.654014
      px      :     0.008648
      py      :     0.524265
      dz2     :     0.000037  d :     0.000602
      dxz     :     0.000004
      dyz     :     0.000269
      dx2y2   :     0.000265
      dxy     :     0.000028



                      *****************************
                      * MAYER POPULATION ANALYSIS *
                      *****************************

  NA   - Mulliken gross atomic population
  ZA   - Total nuclear charge
  QA   - Mulliken gross atomic charge
  VA   - Mayer's total valence
  BVA  - Mayer's bonded valence
  FA   - Mayer's free valence

  ATOM       NA         ZA         QA         VA         BVA        FA
  0 C      6.0898     6.0000    -0.0898     4.1239     4.1202     0.0036
  1 C      6.0034     6.0000    -0.0034     3.9527     3.9187     0.0339
  2 H      0.9761     1.0000     0.0239     0.9799     0.9799     0.0000
  3 H      0.9603     1.0000     0.0397     0.9754     0.9753     0.0001
  4 H      0.9673     1.0000     0.0327     0.9848     0.9847     0.0001
  5 C      5.9320     6.0000     0.0680     3.8976     3.8616     0.0360
  6 H      0.9565     1.0000     0.0435     0.9943     0.9943     0.0000
  7 H      0.9584     1.0000     0.0416     0.9860     0.9860     0.0000
  8 H      0.9579     1.0000     0.0421     1.0728     1.0677     0.0051
  9 Br    35.1982    35.0000    -0.1982     0.9917     0.5127     0.4790

  Mayer bond orders larger than 0.100000
B(  0-C ,  1-C ) :   1.8984 B(  0-C ,  2-H ) :   0.9616 B(  0-C ,  5-C ) :   1.1271 
B(  1-C ,  3-H ) :   0.9537 B(  1-C ,  4-H ) :   0.9560 B(  5-C ,  6-H ) :   0.9531 
B(  5-C ,  7-H ) :   0.9386 B(  5-C ,  8-H ) :   0.7566 B(  8-H ,  9-Br) :   0.2630 


-------
TIMINGS
-------

Total SCF time: 0 days 0 hours 0 min 2 sec 

Total time                  ....       2.873 sec
Sum of individual times     ....       2.685 sec  ( 93.4%)

SCF preparation             ....       0.308 sec  ( 10.7%)
Fock matrix formation       ....       2.211 sec  ( 77.0%)
  Startup                   ....       0.004 sec  (  0.2% of F)
  Split-RI-J                ....       0.136 sec  (  6.2% of F)
  Chain of spheres X        ....       1.691 sec  ( 76.5% of F)
  XC integration            ....       0.479 sec  ( 21.7% of F)
    XC Preparation          ....       0.000 sec  (  0.0% of XC)
    Basis function eval.    ....       0.105 sec  ( 21.9% of XC)
    Density eval.           ....       0.093 sec  ( 19.5% of XC)
    XC-Functional eval.     ....       0.035 sec  (  7.4% of XC)
    XC-Potential eval.      ....       0.120 sec  ( 25.2% of XC)
Diagonalization             ....       0.000 sec  (  0.0%)
Density matrix formation    ....       0.024 sec  (  0.8%)
Total Energy calculation    ....       0.012 sec  (  0.4%)
Population analysis         ....       0.009 sec  (  0.3%)
Orbital Transformation      ....       0.017 sec  (  0.6%)
Orbital Orthonormalization  ....       0.000 sec  (  0.0%)
DIIS solution               ....       0.064 sec  (  2.2%)
SOSCF solution              ....       0.039 sec  (  1.4%)
Finished LeanSCF after   2.9 sec

Maximum memory used throughout the entire LEANSCF-calculation: 9.1 MB

-------------------------   --------------------
FINAL SINGLE POINT ENERGY     -2691.425875373866
-------------------------   --------------------



           ************************************************************
           *        Program running with 8 parallel MPI-processes     *
           *              working on a common directory               *
           ************************************************************

------------------------------------------------------------------------------
                              ORCA PROPERTY CALCULATIONS
------------------------------------------------------------------------------

GBWName                                 ... radical_007.gbw
Number of atoms                         ...     10
Number of basis functions               ...    104
Max core memory                         ...   1200 MB

Electric properties:
Dipole moment                           ... YES
Quadrupole moment                       ...  NO
Static polarizability (Dipole/Dipole)   ...  NO
Static polarizability (Dipole/Quad.)    ...  NO
Static polarizability (Quad./Quad.)     ...  NO
Static polarizability (Velocity)        ...  NO
Static hyperpolarizability              ...  NO

Atomic electric properties:
Dipole moment                           ...  NO
Quadrupole moment                       ...  NO
Static polarizability                   ...  NO

Choice of electric origin               ... Center of mass
Position of electric origin             ...    -1.065588    -2.614668    -2.299966

General magnetic properties:
Magnetizability                         ...  NO

EPR properties:
g-Tensor (aka g-matrix)                 ...  NO
Zero-Field splitting spin-orbit         ...  NO
Zero-field splitting spin-spin          ...  NO
Hyperfine couplings                     ...  NO (   0 nuclei)
Quadrupole couplings                    ...  NO (   0 nuclei)
Contact density                         ...  NO (   0 nuclei)

NMR properties:
Chemical shifts                         ...  NO (   0 nuclei)
Spin-rotation constants                 ...  NO (   0 nuclei)
Spin-spin couplings                     ...  NO (   0 nuclei,    0 pairs)

Choice of magnetic origin               ... GIAO
Position of magnetic origin             ...     0.000000     0.000000     0.000000

Properties with geometric perturbations:
SCF Hessian                             ...  NO
IR spectrum                             ...  NO
VCD spectrum                            ...  NO
X-ray spectroscopy properties:
SCF XES/XAS/RIXS spectra                ...  NO

SCF SOC stabilization energy            ...  NO
Diagonal Born-Oppenheimer correction    ...  NO

-------------
DIPOLE MOMENT
-------------

Method             : SCF
Type of density    : Electron Density
Multiplicity       :   2
Irrep              :   0
Energy             : -2691.4258753738663472 Eh
Basis              : AO
                                X                 Y                 Z
Electronic contribution:     -6.898181459     -16.571094367     -14.711896953
Nuclear contribution   :      7.225033798      17.457704828      15.393592232
                        -----------------------------------------
Total Dipole Moment    :      0.326852339       0.886610461       0.681695279
                        -----------------------------------------
Magnitude (a.u.)       :      1.165169092
Magnitude (Debye)      :      2.961624469



--------------------
Rotational spectrum 
--------------------
 
Rotational constants in cm-1:             0.407752             0.041500             0.039269 
Rotational constants in MHz :         12224.108748          1244.138037          1177.250735 

Dipole components along the rotational axes: 
x,y,z [a.u.] :     1.150255    -0.185218     0.015056 
x,y,z [Debye]:     2.923716    -0.470786     0.038270 

 

Dipole moment calculation done in   0.0 sec 

Maximum memory used throughout the entire PROP-calculation: 5.2 MB

--------------------------------
SUGGESTED CITATIONS FOR THIS RUN
--------------------------------

Below you find a list of papers that are relevant to this ORCA run
We neither can nor want to force you to cite these papers, but we appreciate if you do
You receive ORCA, which is the product of decades of hard work by many enthusiastic individuals, for free
The only thing we kindly ask in return is that you cite our papers,
We deeply appreciate it, if you show your appreciation for ORCA by not just citing the generic ORCA reference.

Please note that relegating all ORCA citations to the supporting information does *not* help us.
SI sections are not indexed - citations you put there will not count into any citation statistics
But we need these citations in order to attract the funding resources that allow us to do what we are doing

Therefore, if you are a happy ORCA user, please consider citing a few of the papers listed below in the main body of your paper

In addition to the list printed below, the program has created the file radical_007.bibtex that contains the list in bibtex format
You can import this file easily into all common literature databanks and citation aid programs


List of essential papers. We consider these as the minimum necessary citations

  1. Neese, F.
     Software update: the ORCA program system, version 6.0
     WIRES Comput. Molec. Sci. 2025 15(1), e70019
     doi.org/10.1002/wcms.7019

List of papers to cite with high priority. The work reported in these papers was absolutely
necessary for this run to complete.
Our perspective: the developers of density functionals and basis sets usually get cited in chemistry papers
Good! But without the algorithms to do something with them, the functionals or basis sets would not do anything.
Hence, in our opinion, the algorithm design and method developments papers are equally worthy of getting cited

  1. Neese, F.
     An improvement of the resolution of the identity approximation for the formation of the Coulomb matrix
     J. Comp. Chem. 2003 24(14), 1740-1747
     doi.org/10.1002/jcc.10318
  2. Neese, F.; Wennmohs, F.; Hansen, A.; Becker, U.
     Efficient, approximate and parallel Hartree-Fock and hybrid DFT calculations. A 'chain-of-spheres' algorithm for the Hartree-Fock exchange
     Chem. Phys. 2009 356(1-3), 98-109
     doi.org/10.1016/j.chemphys.2008.10.036
  3. Helmich-Paris, B.; de Souza, B.; Neese, F.; Izsák, R.
     An improved chain of spheres for exchange algorithm
     J. Chem. Phys. 2021 155(10), 104109
     doi.org/10.1063/5.0058766
  4. Neese, F.
     The SHARK Integral Generation and Digestion System
     J. Comp. Chem. 2022 44(3), 381
     doi.org/10.1002/jcc.26942

List of suggested additional citations. These are papers that are important in the 'surrounding' of 
of this run, or papers that preceded the highly important papers. If you like your results we are grateful for a citation.

  1. Izsak, R.; Neese, F.
     An overlap fitted chain of spheres exchange method
     J. Chem. Phys. 2011 135 , 144105
     doi.org/10.1063/1.3646921
  2. Izsak, R.; Hansen, A.; Neese, F.
     The resolution of identity and chain of spheres approximations for the LPNO-CCSD singles Fock term
     Molec. Phys. 2012 110 , 2413-2417
     doi.org/10.1080/00268976.2012.687466
  3. Neese, F.
     The ORCA program system
     WIRES Comput. Molec. Sci. 2012 2(1), 73-78
     doi.org/10.1002/wcms.81
  4. Izsak, R.; Neese, F.; Klopper, W.
     Robust fitting techniques in the chain of spheres approximation to the Fock exchange: The role of the complementary space
     J. Chem. Phys. 2013 139 , 
     doi.org/10.1063/1.4819264
  5. Neese, F.
     Software update: the ORCA program system, version 4.0
     WIRES Comput. Molec. Sci. 2018 8(1), 1-6
     doi.org/10.1002/wcms.1327
  6. Neese, F.; Wennmohs, F.; Becker, U.; Riplinger, C.
     The ORCA quantum chemistry program package
     J. Chem. Phys. 2020 152(22), 224108
     doi.org/10.1063/5.0004608
  7. Neese, F.
     Software update: The ORCA program system—Version 5.0
     WIRES Comput. Molec. Sci. 2022 12(1), e1606
     doi.org/10.1002/wcms.1606

List of optional additional citations

  1. Neese, F.
     Approximate second-order SCF convergence for spin unrestricted wavefunctions
     Chem. Phys. Lett. 2000 325(1-3), 93-98
     doi.org/10.1016/s0009-2614(00)00662-x

Timings for individual modules:

Sum of individual times          ...        4.758 sec (=   0.079 min)
Startup calculation              ...        0.832 sec (=   0.014 min)  17.5 %
SCF iterations                   ...        3.493 sec (=   0.058 min)  73.4 %
Property calculations            ...        0.432 sec (=   0.007 min)   9.1 %
                             ****ORCA TERMINATED NORMALLY****
TOTAL RUN TIME: 0 days 0 hours 0 minutes 5 seconds 249 msec
