
                                 *****************
                                 * O   R   C   A *
                                 *****************

                                            #,                                       
                                            ###                                      
                                            ####                                     
                                            #####                                    
                                            ######                                   
                                           ########,                                 
                                     ,,################,,,,,                         
                               ,,#################################,,                 
                          ,,##########################################,,             
                       ,#########################################, ''#####,          
                    ,#############################################,,   '####,        
                  ,##################################################,,,,####,       
                ,###########''''           ''''###############################       
              ,#####''   ,,,,##########,,,,          '''####'''          '####       
            ,##' ,,,,###########################,,,                        '##       
           ' ,,###''''                  '''############,,,                           
         ,,##''                                '''############,,,,        ,,,,,,###''
      ,#''                                            '''#######################'''  
     '                                                          ''''####''''         
             ,#######,   #######,   ,#######,      ##                                
            ,#'     '#,  ##    ##  ,#'     '#,    #''#        ,####,    ,#,          
            ##       ##  ##   ,#'  ##            #'  '#       #'       ,# #          
            ##       ##  #######   ##           ,######,      #####,      #          
            '#,     ,#'  ##    ##  '#,     ,#' ,#      #,     #,   #      #          
             '#######'   ##     ##  '#######'  #'      '#     '####' #    #          



                #########################################################
                #                        -***-                          #
                #          Department of theory and spectroscopy        #
                #                                                       #
                #                      Frank Neese                      #
                #                                                       #
                #     Directorship, Architecture, Infrastructure        #
                #                    SHARK, DRIVERS                     #
                #        Core code/Algorithms in most modules           #
                #                                                       #
                #        Max Planck Institute fuer Kohlenforschung      #
                #                Kaiser Wilhelm Platz 1                 #
                #                 D-45470 Muelheim/Ruhr                 #
                #                      Germany                          #
                #                                                       #
                #                  All rights reserved                  #
                #                        -***-                          #
                #########################################################


                         Program Version 6.1.0  -  RELEASE   -
                                (GIT: $679e74b$)
                          ($2025-06-10 18:02:51 +0200$)


 With contributions from (in alphabetic order):
[Max-Planck-Institut fuer Kohlenforschung]                               
  Daniel Aravena         : Magnetic Suceptibility                        
  Michael Atanasov       : Ab Initio Ligand Field Theory (pilot matlab implementation)
  Alexander A. Auer      : GIAO ZORA, VPT2 properties, NMR spectrum      
  Ute Becker             : All parallelization in ORCA, NUMFREQ, NUMCALC 
  Giovanni Bistoni       : ED, misc. LED, open-shell LED, HFLD           
  Dmytro Bykov           : pre 5.0 version of the SCF Hessian            
  Marcos Casanova-Páez   : Triplet and SCS-CIS(D). UHF-(DLPNO)-IP/EA/STEOM-CCSD. UHF-CVS-IP/STEOM-CCSD   
  Vijay G. Chilkuri      : MRCI spin determinant printing, contributions to CSF-ICE 
  Pauline Colinet        : FMM embedding                                 
  Dipayan Datta          : RHF DLPNO-CCSD density                        
  Achintya Kumar Dutta   : EOM-CC, STEOM-CC                              
  Nicolas Foglia         : Exact transition moments, OPA infrastructure, MCD improvements    
  Dmitry Ganyushin       : Spin-Orbit,Spin-Spin,Magnetic field MRCI      
  Miquel Garcia-Rates    : C-PCM and meta-GGA Hessian, CCSD/C-PCM, Gaussian charge scheme 
  Tiago L. C. Gouveia    : GS-ROHF, GS-ROCIS                             
  Yang Guo               : DLPNO-NEVPT2, F12-NEVPT2, CIM, IAO-localization        
  Andreas Hansen         : Spin unrestricted coupled pair/coupled cluster methods 
  Ingolf Harden          : AUTO-CI MPn and infrastructure                
  Benjamin Helmich-Paris : MC-RPA, TRAH-(SCF,CASSCF), AVAS, COSX integrals, SCF dyn. polar., MC-PDFT, srDFT 
  Lee Huntington         : MR-EOM, pCC                                   
  Robert Izsak           : Overlap fitted RIJCOSX, COSX-SCS-MP3, EOM     
  Riya Kayal             : Wick's Theorem for AUTO-CI, AUTO-CI UHF-CCSDT 
  Emily Kempfer          : AUTO-CI RHF CISDT and CCSDT, approximate NEVPT4
  Christian Kollmar      : KDIIS, OOCD, Brueckner-CCSD(T), CCSD density, CASPT2, CASPT2-K, improved NEVPT2 
  Axel Koslowski         : Symmetry handling                             
  Simone Kossmann        : meta-GGA functionals, TD-DFT gradient, OOMP2, (MP2 Hessian; deprecated post 5.0) 
  Lucas Lang             : DCDCAS, Hyperfine gauge corrections, ICE-SOC+SSC
  Marvin Lechner         : AUTO-CI (C++ implementation), FIC-MRCC        
  Spencer Leger          : CASSCF response                               
  Dagmar Lenk            : GEPOL surface, SMD, ORCA-2-JSON               
  Dimitrios Liakos       : Extrapolation schemes; Compound Job, Property file
  Dimitrios Manganas     : Further ROCIS development; embedding schemes. LFT, Crystal Embedding 
  Dimitrios Pantazis     : SARC Basis sets                               
  Anastasios Papadopoulos: AUTO-CI, single reference methods and gradients 
  Taras Petrenko         : pre 6.0 DFT Hessian and TD-DFT gradient,  ECA, NRVS 
  Petra Pikulova         : Analytic Raman intensities                    
  Peter Pinski           : DLPNO-MP2, DLPNO-MP2 Gradient                 
  Shashank Vittal Rao    : ES-AILFT, MagRelax                            
  Christoph Reimann      : Effective Core Potentials                     
  Marius Retegan         : Local ZFS, SOC                                
  Christoph Riplinger    : Optimizer, TS searches, QM/MM, DLPNO-CCSD(T), (RO)-DLPNO pert. Triples 
  Michael Roemelt        : Original ROCIS implementation, recursive CI coupling coefficients
  Masaaki Saitow         : Open-shell DLPNO-CCSD energy and density      
  Barbara Sandhoefer     : DKH picture change effects                    
  Yorick L. A. Schmerwitz: GMF and freeze-and-release deltaSCF, NEB S-IDPP initial path                    
  Kantharuban Sivalingam : CASSCF convergence/infrastructure, NEVPT2, NEVPT3, NEVPT4(SD), FIC-MRCI and CEPA variants
  Bernardo de Souza      : ESD, SOC TD-DFT                               
  Georgi L. Stoychev     : AutoAux, RI-MP2 NMR, DLPNO-MP2 response, X2C  
  Van Anh Tran           : RI-MP2 g-tensors                              
  Willem Van den Heuvel  : Paramagnetic NMR                              
  Zikuan Wang            : NOTCH, Electric field optimization            
  Frank Wennmohs         : Technical directorship and infrastructure     
  Hang Xu                : AUTO-CI-Response properties                   
                                                                         
[FACCTs GmbH]                                                            
  Markus Bursch, Nicolas Foglia, Miquel Garcia-Rates, Ingolf Harden, Hagen Neugebauer, Anastasios Papadopoulos, 
  Christoph Riplinger, Bernardo de Souza, Georgi L. Stoychev                                                    
                                                                 
  APM, various basis sets, CI-OPT, improved COSX, DLPNO-Multilevel,           
  DOCKER, DRACO, updates on ESD, Fragmentator, GOAT, IRC, LR-CPCM, L-BFGS, MBIS, meta-GGA TD-DFT gradient, ML-optimized integration grids, 
  MM, NACMEs, nearIR, NEB, NEB-TS, NL-DFT gradient (VV10), 2- and 3-layer-ONIOM, interface openCOSMO-RS, QMMM,   
  Crystal-QMMM, RESP, rigid body optimization, SF, symmetry and pop. for TD-DFT, various functionals, SOLVATOR                                   
                                                                         
[Other institutions]                                                     
  V. Asgeirsson          : NEB                                           
  Christoph Bannwarth    : sTDA-DFT, sTD-DFT, PBEh-3c, B97-3c, D3        
  Giovanni Bistoni       : ETS/NOCV, ADLD/ADEX, COVALED                  
  Martin Brehm           : Molecular dynamics                            
  Ronald Cardenas        : ETS/NOCV                                      
  Martina Colucci        : COVALED                                       
  Sebastian Ehlert       : rSCAN, r2SCAN, r2SCAN-3c, D4, dhf basis sets  
  Marvin Friede          : D4 for Fr, Ra, Ac-Lr                          
  Lars Goerigk           : TD-DFT with DH, B97 family of functionals     
  Stefan Grimme          : VdW corrections, initial TS optimization, DFT functionals, gCP, sTDA/sTD-DF 
  Waldemar Hujo          : DFT-NL                                        
  H. Jonsson             : NEB                                           
  Holger Kruse           : gCP                                           
  Marcel Mueller         : wB97X-3c, vDZP basis set                      
  Hagen Neugebauer       : wr2SCAN, Native XTB                           
  Gianluca Regni         : ADLD/ADEX                                     
  Tobias Risthaus        : pre 6.0 range-separated hybrid DFT and stability analysis
  Lukas Wittmann         : regularized MP2, r2SCAN double-hybrids, wr2SCAN        
                                                                         
We gratefully acknowledge several colleagues who have allowed us to      
interface, adapt or use parts of their codes:                            
  Ed Valeev, F. Pavosevic, A. Kumar             : LibInt (2-el integral package), F12 methods 
  Garnet Chan, S. Sharma, J. Yang, R. Olivares  : DMRG                   
  Ulf Ekstrom                                   : XCFun DFT Library      
  Mihaly Kallay                                 : mrcc  (arbitrary order and MRCC methods)
  Frank Weinhold                                : gennbo (NPA and NBO analysis)           
  Simon Mueller                                 : openCOSMO-RS                            
  Christopher J. Cramer and Donald G. Truhlar   : smd solvation model                     
  S Lehtola, MJT Oliveira, MAL Marques          : LibXC Library                           
  Liviu Ungur et al                             : ANISO software                          


 Your calculation uses the libint2 library for the computation of 2-el integrals
 For citations please refer to: http://libint.valeyev.net

 Your ORCA version has been built with support for libXC version: 7.0.0
 For citations please refer to: https://libxc.gitlab.io

 This ORCA versions uses:
   CBLAS   interface :  Fast vector & matrix operations
   LAPACKE interface :  Fast linear algebra routines
   SCALAPACK package :  Parallel linear algebra routines
   Shared memory     :  Shared parallel matrices
   BLAS/LAPACK       :  OpenBLAS 0.3.29  USE64BITINT DYNAMIC_ARCH NO_AFFINITY Zen SINGLE_THREADED
        Core in use  :  Zen
   Copyright (c) 2011-2014, The OpenBLAS Project


  ***********************************
  * Starting time: Sun Apr  5 14:30:04 2026
  * Host name:     QC1
  * Process ID:    25614
  * Working dir.:  /home/user/QC/radical/allyl/split-ts1_2
  ***********************************

NOTE: MaxCore=1200 MB was set to SCF,MP2,MDCI,CIPSI,MRCI,RASCI and CIS
      => If you want to overwrite this, your respective input block should be placed after the MaxCore statement
Warning: RI is on but no J-basis has been assigned. Assigning Def2/J (nothing to worry about!)
================================================================================

----- Orbital basis set information -----
Your calculation utilizes the basis: def-SVP
   H-Kr: A. Schäfer, H. Horn, R. Ahlrichs; J. Chem. Phys. 97, 2571 (1992)
   Rb-At: K. Eichkorn, F. Weigend, O. Treutler, R. Ahlrichs; Theor. Chem. Acc. 97, 119 (1997)
   Rn: F. Weigend, R. Ahlrichs; Phys. Chem. Chem. Phys. 7, 3297 (2005)
   Fr-Ra: I. S. Lim, P. Schwerdtfeger, B. Metz, H. Stoll, J. Chem. Phys. 122, 104103 (2005)
   Ac-Lr: X. Cao, M. Dolg, J. Molec. Struct. Theochem. 673 (2004)
----- AuxJ basis set information -----
Your calculation utilizes the auxiliary basis: def2/J
   H-Rn: F. Weigend, Phys. Chem. Chem. Phys. 8, 1057 (2006).
   Fr-Lr: K. Eichkorn, F. Weigend, O. Treutler, R. Ahlrichs; Theor. Chem. Acc. 97, 119 (1997).

================================================================================
                                        WARNINGS
                       Please study these warnings very carefully!
================================================================================


WARNING: your system is open-shell and RHF/RKS was chosen
  ===> : WILL SWITCH to UHF/UKS


================================================================================
                                       INPUT FILE
================================================================================
NAME = radical_009.inp
|  1> ! B3LYP def-SVP 
|  2> %maxcore 1200
|  3> %pal nprocs 8 end
|  4> * xyz 0 2
|  5> C    0.63911100   0.43258400   0.18754900
|  6> C    0.69603800   0.05757700   1.47977100
|  7> H    1.57006900   0.68079200  -0.33601400
|  8> H    1.64580300   0.01026500   2.01891900
|  9> H   -0.20632300  -0.22716700   2.03182800
| 10> C   -0.59187600   0.44451000  -0.61691400
| 11> H   -1.52761200   0.48062800  -0.04164800
| 12> H   -0.59704100   1.14080900  -1.46713900
| 13> H   -0.65015800  -0.59898500  -1.15863300
| 14> Br  -0.96888400  -2.24344600  -2.01199200
| 15> *
| 16> 
| 17>                          ****END OF INPUT****
================================================================================

                       ****************************
                       * Single Point Calculation *
                       ****************************

---------------------------------
CARTESIAN COORDINATES (ANGSTROEM)
---------------------------------
  C      0.639111    0.432584    0.187549
  C      0.696038    0.057577    1.479771
  H      1.570069    0.680792   -0.336014
  H      1.645803    0.010265    2.018919
  H     -0.206323   -0.227167    2.031828
  C     -0.591876    0.444510   -0.616914
  H     -1.527612    0.480628   -0.041648
  H     -0.597041    1.140809   -1.467139
  H     -0.650158   -0.598985   -1.158633
  Br    -0.968884   -2.243446   -2.011992

----------------------------
CARTESIAN COORDINATES (A.U.)
----------------------------
  NO LB      ZA    FRAG     MASS         X           Y           Z
   0 C     6.0000    0    12.011    1.207745    0.817465    0.354416
   1 C     6.0000    0    12.011    1.315321    0.108805    2.796362
   2 H     1.0000    0     1.008    2.967000    1.286510   -0.634974
   3 H     1.0000    0     1.008    3.110117    0.019398    3.815204
   4 H     1.0000    0     1.008   -0.389894   -0.429283    3.839598
   5 C     6.0000    0    12.011   -1.118484    0.840002   -1.165799
   6 H     1.0000    0     1.008   -2.886768    0.908255   -0.078703
   7 H     1.0000    0     1.008   -1.128244    2.155817   -2.772491
   8 H     1.0000    0     1.008   -1.228621   -1.131918   -2.189499
   9 Br   35.0000    0    79.900   -1.830925   -4.239499   -3.802114

--------------------------------
INTERNAL COORDINATES (ANGSTROEM)
--------------------------------
 C      0   0   0     0.000000000000     0.00000000     0.00000000
 C      1   0   0     1.346740001137     0.00000000     0.00000000
 H      1   2   0     1.096543762919   119.03086066     0.00000000
 H      2   1   3     1.093147998431   121.46775122     0.92167685
 H      2   1   3     1.095491419914   121.40568919   181.81553627
 C      1   2   3     1.470588977932   124.23102539   175.45586776
 H      6   1   2     1.099016534169   115.25424506    21.21023071
 H      6   1   2     1.098972941091   115.61284311   155.01868565
 H      6   1   2     1.177173768613   106.61817904   267.40018192
 Br     9   6   1     1.879909526142   173.07660940   149.22070232

---------------------------
INTERNAL COORDINATES (A.U.)
---------------------------
 C      0   0   0     0.000000000000     0.00000000     0.00000000
 C      1   0   0     2.544969775745     0.00000000     0.00000000
 H      1   2   0     2.072167405777   119.03086066     0.00000000
 H      2   1   3     2.065750340878   121.46775122     0.92167685
 H      2   1   3     2.070178765699   121.40568919   181.81553627
 C      1   2   3     2.779010423854   124.23102539   175.45586776
 H      6   1   2     2.076840266230   115.25424506    21.21023071
 H      6   1   2     2.076757887253   115.61284311   155.01868565
 H      6   1   2     2.224536034714   106.61817904   267.40018192
 Br     9   6   1     3.552514160957   173.07660940   149.22070232

---------------------
BASIS SET INFORMATION
---------------------
There are 3 groups of distinct atoms

 Group   1 Type C   : 7s4p1d contracted to 3s2p1d pattern {511/31/1}
 Group   2 Type H   : 4s1p contracted to 2s1p pattern {31/1}
 Group   3 Type Br  : 14s10p6d contracted to 5s4p3d pattern {63311/5311/411}

Atom   0C    basis set group =>   1
Atom   1C    basis set group =>   1
Atom   2H    basis set group =>   2
Atom   3H    basis set group =>   2
Atom   4H    basis set group =>   2
Atom   5C    basis set group =>   1
Atom   6H    basis set group =>   2
Atom   7H    basis set group =>   2
Atom   8H    basis set group =>   2
Atom   9Br   basis set group =>   3
---------------------------------
AUXILIARY/J BASIS SET INFORMATION
---------------------------------
There are 3 groups of distinct atoms

 Group   1 Type C   : 12s5p4d2f1g contracted to 6s4p3d1f1g pattern {711111/2111/211/2/1}
 Group   2 Type H   : 5s2p1d contracted to 3s1p1d pattern {311/2/1}
 Group   3 Type Br  : 19s5p5d3f1g contracted to 8s4p3d2f1g pattern {121111111/2111/311/21/1}

Atom   0C    basis set group =>   1
Atom   1C    basis set group =>   1
Atom   2H    basis set group =>   2
Atom   3H    basis set group =>   2
Atom   4H    basis set group =>   2
Atom   5C    basis set group =>   1
Atom   6H    basis set group =>   2
Atom   7H    basis set group =>   2
Atom   8H    basis set group =>   2
Atom   9Br   basis set group =>   3


           ************************************************************
           *        Program running with 8 parallel MPI-processes     *
           *              working on a common directory               *
           ************************************************************
------------------------------------------------------------------------------
                             ORCA STARTUP CALCULATIONS
                           -- RI-GTO INTEGRALS CHOSEN --
------------------------------------------------------------------------------
------------------------------------------------------------------------------
                   ___                                                        
                  /   \      - P O W E R E D   B Y -                         
                 /     \                                                     
                 |  |  |   _    _      __       _____    __    __             
                 |  |  |  | |  | |    /  \     |  _  \  |  |  /  |          
                  \  \/   | |  | |   /    \    | | | |  |  | /  /          
                 / \  \   | |__| |  /  /\  \   | |_| |  |  |/  /          
                |  |  |   |  __  | /  /__\  \  |    /   |      \           
                |  |  |   | |  | | |   __   |  |    \   |  |\   \          
                \     /   | |  | | |  |  |  |  | |\  \  |  | \   \       
                 \___/    |_|  |_| |__|  |__|  |_| \__\ |__|  \__/        
                                                                              
                      - O R C A' S   B I G   F R I E N D -                    
                                      &                                       
                       - I N T E G R A L  F E E D E R -                       
                                                                              
 v1 FN, 2020, v2 2021, v3 2022-2024                                           
------------------------------------------------------------------------------


----------------------
SHARK INTEGRAL PACKAGE
----------------------

Number of atoms                             ...     10
Number of basis functions                   ...    104
Number of shells                            ...     48
Maximum angular momentum                    ...      2
Integral batch strategy                     ... SHARK/LIBINT Hybrid
RI-J (if used) integral strategy            ... SPLIT-RIJ (Revised 2003 algorithm where possible)
Printlevel                                  ...      1
Contraction scheme used                     ... SEGMENTED contraction
Prescreening option                         ... SCHWARTZ
   Thresh                                   ... 1.000e-10
   Tcut                                     ... 1.000e-11
   Tpresel                                  ... 1.000e-11 
Coulomb Range Separation                    ... NOT USED
Exchange Range Separation                   ... NOT USED
Multipole approximations                    ... NOT USED
Finite Nucleus Model                        ... NOT USED
CABS basis                                  ... NOT available
Auxiliary Coulomb fitting basis             ... AVAILABLE
   # of basis functions in Aux-J            ...    271
   # of shells in Aux-J                     ...     93
   Maximum angular momentum in Aux-J        ...      4
Auxiliary J/K fitting basis                 ... NOT available
Auxiliary Correlation fitting basis         ... NOT available
Auxiliary 'external' fitting basis          ... NOT available

Checking pre-screening integrals            ... done (  0.0 sec) Dimension = 48
   => SHARK Basis and OBASIS are compatible. Storing Pre-screening
Shell pair information
Shell pair cut-off parameter TPreSel        ...   1.0e-11
Total number of shell pairs                 ...      1176
Shell pairs after pre-screening             ...      1082
Total number of primitive shell pairs       ...      4753
Primitive shell pairs kept                  ...      3307
          la=0 lb=0:    331 shell pairs
          la=1 lb=0:    383 shell pairs
          la=1 lb=1:    124 shell pairs
          la=2 lb=0:    140 shell pairs
          la=2 lb=1:     86 shell pairs
          la=2 lb=2:     18 shell pairs

Checking whether 4 symmetric matrices of dimension 104 fit in memory
:Max Core in MB      =   1200.00
 MB in use           =      4.72
 MB left             =   1195.28
 MB needed           =      0.17
 Data fit in memory  = YES
Calculating RI/J V-Matrix + Cholesky decomp.... done (  0.0 sec)
Calculating Nuclear repulsion               ... done (  0.0 sec) ENN=    193.282242887324 Eh

Diagonalization of the overlap matrix:
Smallest eigenvalue                        ... 2.760e-03
Time for diagonalization                   ...    0.001 sec
Threshold for overlap eigenvalues          ... 1.000e-07
Number of eigenvalues below threshold      ... 0
Time for construction of square roots      ...    0.000 sec
Total time needed                          ...    0.002 sec

-------------------
DFT GRID GENERATION
-------------------

General Integration Accuracy     IntAcc      ... 4.388
Radial Grid Type                 RadialGrid  ... OptM3 with GC (2021)
Angular Grid (max. ang.)         AngularGrid ... 4 (Lebedev-302)
Angular grid pruning method      GridPruning ... 4 (adaptive)
Weight generation scheme         WeightScheme... mBecke (2022)
Basis function cutoff            BFCut       ... 1.0000e-10
Integration weight cutoff        WCut        ... 1.0000e-14
Partially contracted basis set               ... off
Rotationally invariant grid construction     ... off
Angular grids for H and He will be reduced by one unit
Core-polarized basis detected: some atoms will have their core
                               angular grid increased.

Total number of grid points                  ...    48991
Total number of batches                      ...      771
Average number of points per batch           ...       63
Average number of grid points per atom       ...     4899

--------------------
COSX GRID GENERATION
--------------------

GRIDX 1
-------
General Integration Accuracy     IntAcc      ... 3.816
Radial Grid Type                 RadialGrid  ... OptM3 with GC (2021)
Angular Grid (max. ang.)         AngularGrid ... 1 (Lebedev-50)
Angular grid pruning method      GridPruning ... 4 (adaptive)
Weight generation scheme         WeightScheme... mBecke (2022)
Basis function cutoff            BFCut       ... 1.0000e-10
Integration weight cutoff        WCut        ... 1.0000e-14
Partially contracted basis set               ... on
Rotationally invariant grid construction     ... off
Angular grids for H and He will be reduced by one unit
Core-polarized basis detected: some atoms will have their core
                               angular grid increased.

Total number of grid points                  ...    11055
Total number of batches                      ...       90
Average number of points per batch           ...      122
Average number of grid points per atom       ...     1106
UseSFitting                                  ... on

GRIDX 2
-------
General Integration Accuracy     IntAcc      ... 4.020
Radial Grid Type                 RadialGrid  ... OptM3 with GC (2021)
Angular Grid (max. ang.)         AngularGrid ... 2 (Lebedev-110)
Angular grid pruning method      GridPruning ... 4 (adaptive)
Weight generation scheme         WeightScheme... mBecke (2022)
Basis function cutoff            BFCut       ... 1.0000e-10
Integration weight cutoff        WCut        ... 1.0000e-14
Partially contracted basis set               ... on
Rotationally invariant grid construction     ... off
Angular grids for H and He will be reduced by one unit
Core-polarized basis detected: some atoms will have their core
                               angular grid increased.

Total number of grid points                  ...    16372
Total number of batches                      ...      132
Average number of points per batch           ...      124
Average number of grid points per atom       ...     1637
UseSFitting                                  ... on

GRIDX 3
-------
General Integration Accuracy     IntAcc      ... 4.338
Radial Grid Type                 RadialGrid  ... OptM3 with GC (2021)
Angular Grid (max. ang.)         AngularGrid ... 3 (Lebedev-194)
Angular grid pruning method      GridPruning ... 4 (adaptive)
Weight generation scheme         WeightScheme... mBecke (2022)
Basis function cutoff            BFCut       ... 1.0000e-10
Integration weight cutoff        WCut        ... 1.0000e-14
Partially contracted basis set               ... on
Rotationally invariant grid construction     ... off
Angular grids for H and He will be reduced by one unit
Core-polarized basis detected: some atoms will have their core
                               angular grid increased.

Total number of grid points                  ...    28550
Total number of batches                      ...      229
Average number of points per batch           ...      124
Average number of grid points per atom       ...     2855
UseSFitting                                  ... on
Grids setup in   0.4 sec
Initializing property integral containers    ... done (  0.0 sec)

SHARK setup successfully completed in   0.4 seconds

Maximum memory used throughout the entire STARTUP-calculation: 17.7 MB


           ************************************************************
           *        Program running with 8 parallel MPI-processes     *
           *              working on a common directory               *
           ************************************************************
-------------------------------------------------------------------------------
                                 ORCA GUESS
                   Start orbitals & Density for SCF / CASSCF
-------------------------------------------------------------------------------

------------
SCF SETTINGS
------------
Hamiltonian:
 Density Functional     Method          .... DFT(GTOs)
 Exchange Functional    Exchange        .... B88
   X-Alpha parameter    XAlpha          ....  0.666667
   Becke's b parameter  XBeta           ....  0.004200
 Correlation Functional Correlation     .... LYP
 LDA part of GGA corr.  LDAOpt          .... VWN-5
 Gradients option       PostSCFGGA      .... off
 Hybrid DFT is turned on
   Fraction HF Exchange ScalHFX         ....  0.200000
   Scaling of DF-GGA-X  ScalDFX         ....  0.720000
   Scaling of DF-GGA-C  ScalDFC         ....  0.810000
   Scaling of DF-LDA-C  ScalLDAC        ....  1.000000
   Perturbative correction              ....  0.000000
   NL short-range parameter             ....  4.800000
 RI-approximation to the Coulomb term is turned on
   Number of AuxJ basis functions       .... 271
   RIJ-COSX (HFX calculated with COS-X)).... on


General Settings:
 Integral files         IntName         .... radical_009
 Hartree-Fock type      HFTyp           .... UHF
 Total Charge           Charge          ....    0
 Multiplicity           Mult            ....    2
 Number of Electrons    NEL             ....   59
 Basis Dimension        Dim             ....  104
 Nuclear Repulsion      ENuc            ....    193.2822428873 Eh

Convergence Acceleration:
 AO-DIIS                CNVDIIS         .... on
   Start iteration      DIISMaxIt       ....    12
   Startup error        DIISStart       ....  0.200000
   # of expansion vecs  DIISMaxEq       ....     5
   Bias factor          DIISBfac        ....   1.050
   Max. coefficient     DIISMaxC        ....  10.000
 MO-DIIS                CNVKDIIS        .... off
 Trust-Rad. Augm. Hess. CNVTRAH         .... auto
   Auto Start mean grad. ratio tolernc. ....  1.125000
   Auto Start start iteration           ....    50
   Auto Start num. interpolation iter.  ....    10
   Max. Number of Micro iterations      ....    24
   Max. Number of Macro iterations      .... Maxiter - #DIIS iter
   Number of Davidson start vectors     ....     2
   Converg. threshold    (grad. norm)   ....   5.000e-05
   Grad. Scal. Fac. for Micro threshold ....   0.100
   Minimum threshold for Micro iter.    ....   1.000e-02
   NR start threshold (gradient norm)   ....   1.000e-04
   Initial trust radius                 ....   0.400
   Minimum AH scaling param. (alpha)    ....   1.000
   Maximum AH scaling param. (alpha)    .... 1000.000
   Quad. conv. algorithm                .... NR
   White noise on init. David. guess    .... on
   Maximum white noise                  ....   0.010
   Pseudo random numbers                .... off
   Inactive MOs                         .... canonical
   Orbital update algorithm             .... Taylor
   Preconditioner                       .... Diag
   Full preconditioner red. dimension   ....   250
 SOSCF                 CNVSOSCF           .... on
   Start iteration     SOSCFMaxIt         ....   150
   Startup grad/error  SOSCFStart         ....  0.003300
   Hessian update      SOSCFHessUp        .... L-BFGS
   Autom. constraints  SOSCFAutoConstrain .... off
 Level Shifting         CNVShift        .... on
   Level shift para.    LevelShift      ....    0.2500
   Turn off err/grad.   ShiftErr        ....    0.0010
 Zerner damping         CNVZerner       .... off
 Static damping         CNVDamp         .... on
   Fraction old density DampFac         ....    0.7000
   Max. Damping (<1)    DampMax         ....    0.9800
   Min. Damping (>=0)   DampMin         ....    0.0000
   Turn off err/grad.   DampErr         ....    0.1000

SCF Procedure:
 Maximum # iterations   MaxIter         ....   125
 SCF integral mode      SCFMode         .... Direct
   Integral package                     .... SHARK and LIBINT hybrid scheme
 Reset frequency        DirectResetFreq ....    20
 Integral Threshold     Thresh          ....  1.000e-10 Eh
 Primitive CutOff       TCut            ....  1.000e-11 Eh

Convergence Tolerance:
 Convergence Check Mode ConvCheckMode   .... Total+1el-Energy
 Convergence forced     ConvForced      .... 0
 Energy Change          TolE            ....  1.000e-06 Eh
 1-El. energy change                    ....  1.000e-03 Eh
 Orbital Gradient       TolG            ....  5.000e-05
 Orbital Rotation angle TolX            ....  5.000e-05
 DIIS Error             TolErr          ....  1.000e-06

------------------------------
INITIAL GUESS: MODEL POTENTIAL
------------------------------
Loading Hartree-Fock densities                     ... done
Calculating cut-offs                               ... done
Initializing the effective Hamiltonian             ... done
Setting up the integral package (SHARK)            ... done
Starting the Coulomb interaction                   ... done (   0.0 sec)
Making the grid                                    ... done (   0.1 sec)
Mapping shells                                     ... done
Starting the XC term evaluation                    ... done (   0.0 sec)
  promolecular density results
     # of electrons  =     58.997719780
     EX              =   -106.845086573
     EC              =     -2.449734633
     EX+EC           =   -109.294821206
Transforming the Hamiltonian                       ... done (   0.0 sec)
Diagonalizing the Hamiltonian                      ... done (   0.0 sec)
Back transforming the eigenvectors                 ... done (   0.0 sec)
Now organizing SCF variables                       ... done
                      ------------------
                      INITIAL GUESS DONE (   0.1 sec)
                      ------------------
             **** ENERGY FILE WAS UPDATED (radical_009.en.tmp) ****
Finished Guess after   0.4 sec
Maximum memory used throughout the entire GUESS-calculation: 8.9 MB


           ************************************************************
           *        Program running with 8 parallel MPI-processes     *
           *              working on a common directory               *
           ************************************************************

-------------------------------------------------------------------------------------------
                                      ORCA LEAN-SCF
                              memory conserving SCF solver
-------------------------------------------------------------------------------------------

----------------------------------------D-I-I-S--------------------------------------------
Iteration    Energy (Eh)           Delta-E    RMSDP     MaxDP     DIISErr   Damp  Time(sec)
-------------------------------------------------------------------------------------------
               ***  Starting incremental Fock matrix formation  ***
    1    -2691.3246927955492538     0.00e+00  4.55e-03  3.54e-02  7.53e-02  0.700   0.2
Warning: op=1 Small HOMO/LUMO gap (   0.077) - skipping pre-diagonalization
         Will do a full diagonalization
    2    -2691.3714933858518634    -4.68e-02  3.46e-03  2.13e-02  4.01e-02  0.700   0.2
                               ***Turning on AO-DIIS***
    3    -2691.3905912515051568    -1.91e-02  1.55e-03  1.29e-02  1.64e-02  0.700   0.2
    4    -2691.4012475672761866    -1.07e-02  2.99e-03  2.96e-02  8.82e-03  0.000   0.2
    5    -2691.4249664324920559    -2.37e-02  7.08e-04  5.74e-03  3.66e-03  0.000   0.2
                              *** Initializing SOSCF ***
---------------------------------------S-O-S-C-F--------------------------------------
Iteration    Energy (Eh)           Delta-E    RMSDP     MaxDP     MaxGrad    Time(sec)
--------------------------------------------------------------------------------------
    6    -2691.4253371357253855    -3.71e-04  3.11e-04  2.69e-03  1.76e-03     0.2
               *** Restarting incremental Fock matrix formation ***
    7    -2691.4254109696698833    -7.38e-05  4.34e-04  3.17e-03  2.02e-03     0.2
    8    -2691.4254659769412683    -5.50e-05  4.25e-04  3.13e-03  1.52e-03     0.2
    9    -2691.4254782109351254    -1.22e-05  1.47e-04  1.16e-03  8.09e-04     0.2
   10    -2691.4254886501585133    -1.04e-05  7.85e-05  4.87e-04  2.66e-04     0.2
   11    -2691.4254893727297713    -7.23e-07  4.11e-05  3.78e-04  2.23e-04     0.2
                 **** Energy Check signals convergence ****

               *****************************************************
               *                     SUCCESS                       *
               *           SCF CONVERGED AFTER  11 CYCLES          *
               *****************************************************

Recomputing exchange energy using gridx3       ... done (    0.240 sec)
Old exchange energy                            :    -21.428481931 Eh
New exchange energy                            :    -21.428443952 Eh
Exchange energy change after final integration :      0.000037978 Eh
Total energy after final integration           :  -2691.425452272 Eh
             **** ENERGY FILE WAS UPDATED (radical_009.en.tmp) ****

----------------
TOTAL SCF ENERGY
----------------

Total Energy       :      -2691.42545227195023 Eh          -73237.40987 eV

Components:
Nuclear Repulsion  :        193.28224288732432 Eh            5259.47722 eV
Electronic Energy  :      -2884.70773313766313 Eh          -78496.88812 eV
One Electron Energy:      -4123.91676864695000 Eh         -112217.48030 eV
Two Electron Energy:       1239.20903550928688 Eh           33720.59218 eV

Virial components:
Potential Energy   :      -5378.52898657101196 Eh         -146357.21438 eV
Kinetic Energy     :       2687.10353429906172 Eh           73119.80451 eV
Virial Ratio       :          2.00160839279831

DFT components:
N(Alpha)           :       29.999996956699 electrons
N(Beta)            :       28.999994572045 electrons
N(Total)           :       58.999991528744 electrons
E(X)               :      -85.246723769052 Eh       
E(C)               :       -2.873935246846 Eh       
E(XC)              :      -88.120659015897 Eh       

---------------
SCF CONVERGENCE
---------------

  Last Energy change         ...    7.2257e-07  Tolerance :   1.0000e-06
  Last MAX-Density change    ...    3.7807e-04  Tolerance :   1.0000e-05
  Last RMS-Density change    ...    4.1104e-05  Tolerance :   1.0000e-06
  Last DIIS Error            ...    1.7602e-03  Tolerance :   1.0000e-06
  Last Orbital Gradient      ...    2.2253e-04  Tolerance :   5.0000e-05
  Last Orbital Rotation      ...    6.3855e-04  Tolerance :   5.0000e-05


----------------------
UHF SPIN CONTAMINATION
----------------------

Warning: in a DFT calculation there is little theoretical justification to 
         calculate <S**2> as in Hartree-Fock theory. We will do it anyways
         but you should keep in mind that the values have only limited relevance

Expectation value of <S**2>     :     0.759631
Ideal value S*(S+1) for S=0.5   :     0.750000
Deviation                       :     0.009631

----------------
ORBITAL ENERGIES
----------------
                 SPIN UP ORBITALS
  NO   OCC          E(Eh)            E(eV) 
   0   1.0000    -482.762018    -13136.6224 
   1   1.0000     -62.445052     -1699.2163 
   2   1.0000     -56.278451     -1531.4145 
   3   1.0000     -56.274348     -1531.3029 
   4   1.0000     -56.274338     -1531.3026 
   5   1.0000     -10.220396      -278.1111 
   6   1.0000     -10.218183      -278.0509 
   7   1.0000     -10.213023      -277.9105 
   8   1.0000      -8.663320      -235.7409 
   9   1.0000      -6.499878      -176.8707 
  10   1.0000      -6.482653      -176.4020 
  11   1.0000      -6.482599      -176.4005 
  12   1.0000      -2.612434       -71.0879 
  13   1.0000      -2.608188       -70.9724 
  14   1.0000      -2.608152       -70.9714 
  15   1.0000      -2.595350       -70.6231 
  16   1.0000      -2.595348       -70.6230 
  17   1.0000      -0.811027       -22.0692 
  18   1.0000      -0.744730       -20.2651 
  19   1.0000      -0.702998       -19.1295 
  20   1.0000      -0.574280       -15.6270 
  21   1.0000      -0.494806       -13.4644 
  22   1.0000      -0.454904       -12.3786 
  23   1.0000      -0.448708       -12.2100 
  24   1.0000      -0.403494       -10.9796 
  25   1.0000      -0.376217       -10.2374 
  26   1.0000      -0.310545        -8.4503 
  27   1.0000      -0.271882        -7.3983 
  28   1.0000      -0.271623        -7.3912 
  29   1.0000      -0.260244        -7.0816 
  30   0.0000      -0.014156        -0.3852 
  31   0.0000       0.062417         1.6985 
  32   0.0000       0.079803         2.1715 
  33   0.0000       0.097657         2.6574 
  34   0.0000       0.135566         3.6889 
  35   0.0000       0.139884         3.8064 
  36   0.0000       0.185394         5.0448 
  37   0.0000       0.241475         6.5709 
  38   0.0000       0.316515         8.6128 
  39   0.0000       0.355363         9.6699 
  40   0.0000       0.375308        10.2127 

                 SPIN DOWN ORBITALS
  NO   OCC          E(Eh)            E(eV) 
   0   1.0000    -482.760152    -13136.5716 
   1   1.0000     -62.444064     -1699.1894 
   2   1.0000     -56.274517     -1531.3074 
   3   1.0000     -56.273626     -1531.2832 
   4   1.0000     -56.273614     -1531.2829 
   5   1.0000     -10.219302      -278.0813 
   6   1.0000     -10.215969      -277.9906 
   7   1.0000     -10.209977      -277.8276 
   8   1.0000      -8.660538      -235.6652 
   9   1.0000      -6.492286      -176.6641 
  10   1.0000      -6.481392      -176.3676 
  11   1.0000      -6.481338      -176.3662 
  12   1.0000      -2.607042       -70.9412 
  13   1.0000      -2.603991       -70.8582 
  14   1.0000      -2.603955       -70.8572 
  15   1.0000      -2.594628       -70.6034 
  16   1.0000      -2.594626       -70.6034 
  17   1.0000      -0.805518       -21.9193 
  18   1.0000      -0.720129       -19.5957 
  19   1.0000      -0.688699       -18.7404 
  20   1.0000      -0.571090       -15.5401 
  21   1.0000      -0.492164       -13.3925 
  22   1.0000      -0.450362       -12.2550 
  23   1.0000      -0.427971       -11.6457 
  24   1.0000      -0.400320       -10.8933 
  25   1.0000      -0.374470       -10.1898 
  26   1.0000      -0.283028        -7.7016 
  27   1.0000      -0.262402        -7.1403 
  28   1.0000      -0.262071        -7.1313 
  29   0.0000      -0.174025        -4.7354 
  30   0.0000      -0.005368        -0.1461 
  31   0.0000       0.063703         1.7335 
  32   0.0000       0.081144         2.2080 
  33   0.0000       0.099896         2.7183 
  34   0.0000       0.137650         3.7456 
  35   0.0000       0.140961         3.8357 
  36   0.0000       0.198413         5.3991 
  37   0.0000       0.243111         6.6154 
  38   0.0000       0.319420         8.6919 
  39   0.0000       0.364652         9.9227 
*Only the first 10 virtual orbitals were printed.

                    ********************************
                    * MULLIKEN POPULATION ANALYSIS *
                    ********************************

--------------------------------------------
MULLIKEN ATOMIC CHARGES AND SPIN POPULATIONS
--------------------------------------------
   0 C :   -0.088222   -0.086404
   1 C :   -0.002948    0.232467
   2 H :    0.024289    0.003159
   3 H :    0.040183   -0.010063
   4 H :    0.033271   -0.009843
   5 C :    0.068512    0.232145
   6 H :    0.044435   -0.003719
   7 H :    0.042509   -0.000204
   8 H :    0.043232   -0.025383
   9 Br:   -0.205262    0.667846
Sum of atomic charges         :    0.0000000
Sum of atomic spin populations:    1.0000000

-----------------------------------------------------
MULLIKEN REDUCED ORBITAL CHARGES AND SPIN POPULATIONS
-----------------------------------------------------
CHARGE
  0 C s       :     3.159505  s :     3.159505
      pz      :     0.974589  p :     2.892706
      px      :     0.964508
      py      :     0.953608
      dz2     :     0.008729  d :     0.036011
      dxz     :     0.013051
      dyz     :     0.006663
      dx2y2   :     0.004482
      dxy     :     0.003087

  1 C s       :     3.123152  s :     3.123152
      pz      :     0.975859  p :     2.853615
      px      :     0.932298
      py      :     0.945458
      dz2     :     0.006872  d :     0.026181
      dxz     :     0.010558
      dyz     :     0.004839
      dx2y2   :     0.002806
      dxy     :     0.001106

  2 H s       :     0.953315  s :     0.953315
      pz      :     0.006043  p :     0.022395
      px      :     0.011646
      py      :     0.004706

  3 H s       :     0.936419  s :     0.936419
      pz      :     0.006638  p :     0.023398
      px      :     0.012299
      py      :     0.004460

  4 H s       :     0.943421  s :     0.943421
      pz      :     0.006836  p :     0.023308
      px      :     0.011372
      py      :     0.005100

  5 C s       :     2.972043  s :     2.972043
      pz      :     0.980816  p :     2.930219
      px      :     0.977702
      py      :     0.971700
      dz2     :     0.003190  d :     0.029226
      dxz     :     0.007782
      dyz     :     0.007742
      dx2y2   :     0.008268
      dxy     :     0.002244

  6 H s       :     0.932517  s :     0.932517
      pz      :     0.006933  p :     0.023048
      px      :     0.011495
      py      :     0.004620

  7 H s       :     0.934214  s :     0.934214
      pz      :     0.010149  p :     0.023277
      px      :     0.003908
      py      :     0.009221

  8 H s       :     0.923044  s :     0.923044
      pz      :     0.009357  p :     0.033724
      px      :     0.005948
      py      :     0.018418

  9 Brs       :     7.976710  s :     7.976710
      pz      :     5.851221  p :    17.218186
      px      :     5.978877
      py      :     5.388088
      dz2     :     2.000533  d :    10.010366
      dxz     :     2.000218
      dyz     :     2.004661
      dx2y2   :     2.004156
      dxy     :     2.000798


SPIN
  0 C s       :    -0.012303  s :    -0.012303
      pz      :    -0.012138  p :    -0.077102
      px      :    -0.008569
      py      :    -0.056394
      dz2     :     0.000644  d :     0.003000
      dxz     :    -0.000002
      dyz     :     0.001615
      dx2y2   :     0.000184
      dxy     :     0.000559

  1 C s       :     0.022886  s :     0.022886
      pz      :     0.019363  p :     0.210269
      px      :     0.013439
      py      :     0.177466
      dz2     :    -0.000159  d :    -0.000687
      dxz     :    -0.000006
      dyz     :    -0.000226
      dx2y2   :    -0.000266
      dxy     :    -0.000031

  2 H s       :     0.003488  s :     0.003488
      pz      :    -0.000020  p :    -0.000329
      px      :    -0.000018
      py      :    -0.000291

  3 H s       :    -0.011035  s :    -0.011035
      pz      :     0.000062  p :     0.000973
      px      :     0.000052
      py      :     0.000859

  4 H s       :    -0.010725  s :    -0.010725
      pz      :     0.000034  p :     0.000881
      px      :     0.000048
      py      :     0.000800

  5 C s       :     0.018721  s :     0.018721
      pz      :     0.041898  p :     0.213931
      px      :     0.008947
      py      :     0.163086
      dz2     :     0.000046  d :    -0.000508
      dxz     :    -0.000185
      dyz     :    -0.000114
      dx2y2   :    -0.000037
      dxy     :    -0.000217

  6 H s       :    -0.004599  s :    -0.004599
      pz      :     0.000037  p :     0.000880
      px      :     0.000096
      py      :     0.000747

  7 H s       :    -0.001216  s :    -0.001216
      pz      :     0.000542  p :     0.001012
      px      :    -0.000015
      py      :     0.000485

  8 H s       :    -0.036478  s :    -0.036478
      pz      :     0.002292  p :     0.011095
      px      :     0.000202
      py      :     0.008601

  9 Brs       :     0.000181  s :     0.000181
      pz      :     0.124519  p :     0.668056
      px      :     0.009453
      py      :     0.534084
      dz2     :     0.000003  d :    -0.000391
      dxz     :    -0.000004
      dyz     :    -0.000210
      dx2y2   :    -0.000167
      dxy     :    -0.000012



                     *******************************
                     * LOEWDIN POPULATION ANALYSIS *
                     *******************************

-------------------------------------------
LOEWDIN ATOMIC CHARGES AND SPIN POPULATIONS
-------------------------------------------
   0 C :   -0.017031   -0.053384
   1 C :   -0.009491    0.191596
   2 H :    0.033862    0.000188
   3 H :    0.031724   -0.000552
   4 H :    0.029183   -0.000858
   5 C :   -0.018261    0.186979
   6 H :    0.041045    0.001495
   7 H :    0.042925    0.003738
   8 H :    0.024790    0.040151
   9 Br:   -0.158746    0.630648

----------------------------------------------------
LOEWDIN REDUCED ORBITAL CHARGES AND SPIN POPULATIONS
----------------------------------------------------
CHARGE
  0 C s       :     2.878732  s :     2.878732
      pz      :     1.069799  p :     3.048134
      px      :     1.039078
      py      :     0.939256
      dz2     :     0.023497  d :     0.090165
      dxz     :     0.035033
      dyz     :     0.014511
      dx2y2   :     0.010424
      dxy     :     0.006700

  1 C s       :     2.894339  s :     2.894339
      pz      :     1.061541  p :     3.047446
      px      :     1.044514
      py      :     0.941391
      dz2     :     0.018730  d :     0.067706
      dxz     :     0.028629
      dyz     :     0.010540
      dx2y2   :     0.006884
      dxy     :     0.002925

  2 H s       :     0.900085  s :     0.900085
      pz      :     0.017247  p :     0.066053
      px      :     0.034380
      py      :     0.014426

  3 H s       :     0.900660  s :     0.900660
      pz      :     0.017988  p :     0.067616
      px      :     0.036019
      py      :     0.013609

  4 H s       :     0.903561  s :     0.903561
      pz      :     0.018401  p :     0.067256
      px      :     0.033403
      py      :     0.015452

  5 C s       :     2.857909  s :     2.857909
      pz      :     1.039925  p :     3.087994
      px      :     1.051908
      py      :     0.996162
      dz2     :     0.006670  d :     0.072358
      dxz     :     0.021305
      dyz     :     0.018978
      dx2y2   :     0.020943
      dxy     :     0.004463

  6 H s       :     0.892626  s :     0.892626
      pz      :     0.019936  p :     0.066330
      px      :     0.033840
      py      :     0.012553

  7 H s       :     0.890366  s :     0.890366
      pz      :     0.029958  p :     0.066709
      px      :     0.011120
      py      :     0.025631

  8 H s       :     0.869921  s :     0.869921
      pz      :     0.026796  p :     0.105289
      px      :     0.013445
      py      :     0.065048

  9 Brs       :     7.946366  s :     7.946366
      pz      :     5.845291  p :    17.196157
      px      :     5.978849
      py      :     5.372017
      dz2     :     2.000727  d :    10.016223
      dxz     :     2.000305
      dyz     :     2.007440
      dx2y2   :     2.006607
      dxy     :     2.001145


SPIN
  0 C s       :    -0.003399  s :    -0.003399
      pz      :    -0.005511  p :    -0.057095
      px      :    -0.003888
      py      :    -0.047696
      dz2     :     0.001577  d :     0.007109
      dxz     :     0.000239
      dyz     :     0.003527
      dx2y2   :     0.000348
      dxy     :     0.001419

  1 C s       :     0.006056  s :     0.006056
      pz      :     0.015768  p :     0.187135
      px      :     0.007206
      py      :     0.164162
      dz2     :    -0.000404  d :    -0.001596
      dxz     :    -0.000211
      dyz     :    -0.000629
      dx2y2   :    -0.000308
      dxy     :    -0.000045

  2 H s       :     0.001636  s :     0.001636
      pz      :    -0.000078  p :    -0.001448
      px      :    -0.000226
      py      :    -0.001144

  3 H s       :    -0.004815  s :    -0.004815
      pz      :     0.000442  p :     0.004263
      px      :     0.000554
      py      :     0.003267

  4 H s       :    -0.004883  s :    -0.004883
      pz      :     0.000436  p :     0.004025
      px      :     0.000485
      py      :     0.003103

  5 C s       :     0.011494  s :     0.011494
      pz      :     0.033247  p :     0.177744
      px      :     0.005040
      py      :     0.139458
      dz2     :    -0.000036  d :    -0.002258
      dxz     :    -0.000440
      dyz     :    -0.000803
      dx2y2   :    -0.000529
      dxy     :    -0.000450

  6 H s       :    -0.003090  s :    -0.003090
      pz      :     0.000674  p :     0.004585
      px      :     0.000567
      py      :     0.003344

  7 H s       :    -0.001205  s :    -0.001205
      pz      :     0.001608  p :     0.004943
      px      :     0.000075
      py      :     0.003260

  8 H s       :     0.001637  s :     0.001637
      pz      :     0.007918  p :     0.038513
      px      :     0.000532
      py      :     0.030063

  9 Brs       :     0.000146  s :     0.000146
      pz      :     0.117060  p :     0.629775
      px      :     0.008691
      py      :     0.504024
      dz2     :     0.000043  d :     0.000727
      dxz     :     0.000005
      dyz     :     0.000327
      dx2y2   :     0.000316
      dxy     :     0.000036



                      *****************************
                      * MAYER POPULATION ANALYSIS *
                      *****************************

  NA   - Mulliken gross atomic population
  ZA   - Total nuclear charge
  QA   - Mulliken gross atomic charge
  VA   - Mayer's total valence
  BVA  - Mayer's bonded valence
  FA   - Mayer's free valence

  ATOM       NA         ZA         QA         VA         BVA        FA
  0 C      6.0882     6.0000    -0.0882     4.1238     4.1194     0.0044
  1 C      6.0029     6.0000    -0.0029     3.9517     3.9131     0.0385
  2 H      0.9757     1.0000     0.0243     0.9800     0.9799     0.0000
  3 H      0.9598     1.0000     0.0402     0.9755     0.9753     0.0001
  4 H      0.9667     1.0000     0.0333     0.9848     0.9847     0.0001
  5 C      5.9315     6.0000     0.0685     3.8942     3.8513     0.0430
  6 H      0.9556     1.0000     0.0444     0.9944     0.9943     0.0001
  7 H      0.9575     1.0000     0.0425     0.9862     0.9861     0.0001
  8 H      0.9568     1.0000     0.0432     1.0765     1.0712     0.0054
  9 Br    35.2053    35.0000    -0.2053     0.9883     0.5392     0.4490

  Mayer bond orders larger than 0.100000
B(  0-C ,  1-C ) :   1.8913 B(  0-C ,  2-H ) :   0.9615 B(  0-C ,  5-C ) :   1.1333 
B(  1-C ,  3-H ) :   0.9538 B(  1-C ,  4-H ) :   0.9560 B(  5-C ,  6-H ) :   0.9522 
B(  5-C ,  7-H ) :   0.9376 B(  5-C ,  8-H ) :   0.7365 B(  8-H ,  9-Br) :   0.2861 


-------
TIMINGS
-------

Total SCF time: 0 days 0 hours 0 min 2 sec 

Total time                  ....       2.854 sec
Sum of individual times     ....       2.663 sec  ( 93.3%)

SCF preparation             ....       0.301 sec  ( 10.5%)
Fock matrix formation       ....       2.194 sec  ( 76.9%)
  Startup                   ....       0.004 sec  (  0.2% of F)
  Split-RI-J                ....       0.135 sec  (  6.1% of F)
  Chain of spheres X        ....       1.672 sec  ( 76.2% of F)
  XC integration            ....       0.478 sec  ( 21.8% of F)
    XC Preparation          ....       0.000 sec  (  0.0% of XC)
    Basis function eval.    ....       0.108 sec  ( 22.6% of XC)
    Density eval.           ....       0.098 sec  ( 20.5% of XC)
    XC-Functional eval.     ....       0.036 sec  (  7.5% of XC)
    XC-Potential eval.      ....       0.130 sec  ( 27.1% of XC)
Diagonalization             ....       0.000 sec  (  0.0%)
Density matrix formation    ....       0.025 sec  (  0.9%)
Total Energy calculation    ....       0.012 sec  (  0.4%)
Population analysis         ....       0.009 sec  (  0.3%)
Orbital Transformation      ....       0.018 sec  (  0.6%)
Orbital Orthonormalization  ....       0.000 sec  (  0.0%)
DIIS solution               ....       0.065 sec  (  2.3%)
SOSCF solution              ....       0.040 sec  (  1.4%)
Finished LeanSCF after   2.9 sec

Maximum memory used throughout the entire LEANSCF-calculation: 9.1 MB

-------------------------   --------------------
FINAL SINGLE POINT ENERGY     -2691.425452271950
-------------------------   --------------------



           ************************************************************
           *        Program running with 8 parallel MPI-processes     *
           *              working on a common directory               *
           ************************************************************

------------------------------------------------------------------------------
                              ORCA PROPERTY CALCULATIONS
------------------------------------------------------------------------------

GBWName                                 ... radical_009.gbw
Number of atoms                         ...     10
Number of basis functions               ...    104
Max core memory                         ...   1200 MB

Electric properties:
Dipole moment                           ... YES
Quadrupole moment                       ...  NO
Static polarizability (Dipole/Dipole)   ...  NO
Static polarizability (Dipole/Quad.)    ...  NO
Static polarizability (Quad./Quad.)     ...  NO
Static polarizability (Velocity)        ...  NO
Static hyperpolarizability              ...  NO

Atomic electric properties:
Dipole moment                           ...  NO
Quadrupole moment                       ...  NO
Static polarizability                   ...  NO

Choice of electric origin               ... Center of mass
Position of electric origin             ...    -1.057323    -2.579828    -2.278653

General magnetic properties:
Magnetizability                         ...  NO

EPR properties:
g-Tensor (aka g-matrix)                 ...  NO
Zero-Field splitting spin-orbit         ...  NO
Zero-field splitting spin-spin          ...  NO
Hyperfine couplings                     ...  NO (   0 nuclei)
Quadrupole couplings                    ...  NO (   0 nuclei)
Contact density                         ...  NO (   0 nuclei)

NMR properties:
Chemical shifts                         ...  NO (   0 nuclei)
Spin-rotation constants                 ...  NO (   0 nuclei)
Spin-spin couplings                     ...  NO (   0 nuclei,    0 pairs)

Choice of magnetic origin               ... GIAO
Position of magnetic origin             ...     0.000000     0.000000     0.000000

Properties with geometric perturbations:
SCF Hessian                             ...  NO
IR spectrum                             ...  NO
VCD spectrum                            ...  NO
X-ray spectroscopy properties:
SCF XES/XAS/RIXS spectra                ...  NO

SCF SOC stabilization energy            ...  NO
Diagonal Born-Oppenheimer correction    ...  NO

-------------
DIPOLE MOMENT
-------------

Method             : SCF
Type of density    : Electron Density
Multiplicity       :   2
Irrep              :   0
Energy             : -2691.4254522719502347 Eh
Basis              : AO
                                X                 Y                 Z
Electronic contribution:     -6.837466301     -16.327069267     -14.556938152
Nuclear contribution   :      7.170774339      17.233810352      15.255538805
                        -----------------------------------------
Total Dipole Moment    :      0.333308037       0.906741085       0.698600654
                        -----------------------------------------
Magnitude (a.u.)       :      1.192189798
Magnitude (Debye)      :      3.030305645



--------------------
Rotational spectrum 
--------------------
 
Rotational constants in cm-1:             0.408941             0.042226             0.039928 
Rotational constants in MHz :         12259.736147          1265.896343          1197.022119 

Dipole components along the rotational axes: 
x,y,z [a.u.] :     1.176395    -0.192613     0.017628 
x,y,z [Debye]:     2.990159    -0.489584     0.044806 

 

Dipole moment calculation done in   0.0 sec 

Maximum memory used throughout the entire PROP-calculation: 5.2 MB

--------------------------------
SUGGESTED CITATIONS FOR THIS RUN
--------------------------------

Below you find a list of papers that are relevant to this ORCA run
We neither can nor want to force you to cite these papers, but we appreciate if you do
You receive ORCA, which is the product of decades of hard work by many enthusiastic individuals, for free
The only thing we kindly ask in return is that you cite our papers,
We deeply appreciate it, if you show your appreciation for ORCA by not just citing the generic ORCA reference.

Please note that relegating all ORCA citations to the supporting information does *not* help us.
SI sections are not indexed - citations you put there will not count into any citation statistics
But we need these citations in order to attract the funding resources that allow us to do what we are doing

Therefore, if you are a happy ORCA user, please consider citing a few of the papers listed below in the main body of your paper

In addition to the list printed below, the program has created the file radical_009.bibtex that contains the list in bibtex format
You can import this file easily into all common literature databanks and citation aid programs


List of essential papers. We consider these as the minimum necessary citations

  1. Neese, F.
     Software update: the ORCA program system, version 6.0
     WIRES Comput. Molec. Sci. 2025 15(1), e70019
     doi.org/10.1002/wcms.7019

List of papers to cite with high priority. The work reported in these papers was absolutely
necessary for this run to complete.
Our perspective: the developers of density functionals and basis sets usually get cited in chemistry papers
Good! But without the algorithms to do something with them, the functionals or basis sets would not do anything.
Hence, in our opinion, the algorithm design and method developments papers are equally worthy of getting cited

  1. Neese, F.
     An improvement of the resolution of the identity approximation for the formation of the Coulomb matrix
     J. Comp. Chem. 2003 24(14), 1740-1747
     doi.org/10.1002/jcc.10318
  2. Neese, F.; Wennmohs, F.; Hansen, A.; Becker, U.
     Efficient, approximate and parallel Hartree-Fock and hybrid DFT calculations. A 'chain-of-spheres' algorithm for the Hartree-Fock exchange
     Chem. Phys. 2009 356(1-3), 98-109
     doi.org/10.1016/j.chemphys.2008.10.036
  3. Helmich-Paris, B.; de Souza, B.; Neese, F.; Izsák, R.
     An improved chain of spheres for exchange algorithm
     J. Chem. Phys. 2021 155(10), 104109
     doi.org/10.1063/5.0058766
  4. Neese, F.
     The SHARK Integral Generation and Digestion System
     J. Comp. Chem. 2022 44(3), 381
     doi.org/10.1002/jcc.26942

List of suggested additional citations. These are papers that are important in the 'surrounding' of 
of this run, or papers that preceded the highly important papers. If you like your results we are grateful for a citation.

  1. Izsak, R.; Neese, F.
     An overlap fitted chain of spheres exchange method
     J. Chem. Phys. 2011 135 , 144105
     doi.org/10.1063/1.3646921
  2. Izsak, R.; Hansen, A.; Neese, F.
     The resolution of identity and chain of spheres approximations for the LPNO-CCSD singles Fock term
     Molec. Phys. 2012 110 , 2413-2417
     doi.org/10.1080/00268976.2012.687466
  3. Neese, F.
     The ORCA program system
     WIRES Comput. Molec. Sci. 2012 2(1), 73-78
     doi.org/10.1002/wcms.81
  4. Izsak, R.; Neese, F.; Klopper, W.
     Robust fitting techniques in the chain of spheres approximation to the Fock exchange: The role of the complementary space
     J. Chem. Phys. 2013 139 , 
     doi.org/10.1063/1.4819264
  5. Neese, F.
     Software update: the ORCA program system, version 4.0
     WIRES Comput. Molec. Sci. 2018 8(1), 1-6
     doi.org/10.1002/wcms.1327
  6. Neese, F.; Wennmohs, F.; Becker, U.; Riplinger, C.
     The ORCA quantum chemistry program package
     J. Chem. Phys. 2020 152(22), 224108
     doi.org/10.1063/5.0004608
  7. Neese, F.
     Software update: The ORCA program system—Version 5.0
     WIRES Comput. Molec. Sci. 2022 12(1), e1606
     doi.org/10.1002/wcms.1606

List of optional additional citations

  1. Neese, F.
     Approximate second-order SCF convergence for spin unrestricted wavefunctions
     Chem. Phys. Lett. 2000 325(1-3), 93-98
     doi.org/10.1016/s0009-2614(00)00662-x

Timings for individual modules:

Sum of individual times          ...        4.757 sec (=   0.079 min)
Startup calculation              ...        0.812 sec (=   0.014 min)  17.1 %
SCF iterations                   ...        3.494 sec (=   0.058 min)  73.5 %
Property calculations            ...        0.450 sec (=   0.008 min)   9.5 %
                             ****ORCA TERMINATED NORMALLY****
TOTAL RUN TIME: 0 days 0 hours 0 minutes 5 seconds 197 msec
