[Molden Format]
[Title]
 Molden file created by orca_2mkl for BaseName=radical_002

[Atoms] AU
C    1   6          1.2155001952         0.8098534730         0.3610983183 
C    2   6          1.3217859519         0.1224126795         2.8066269233 
H    3   1          2.9771954939         1.2839063916        -0.6234263208 
H    4   1          3.1127190933         0.0561380943         3.8327727804 
H    5   1         -0.3839073127        -0.4212331833         3.8471819422 
C    6   6         -1.1176293890         0.8285844385        -1.1694683563 
H    7   1         -2.8736347223         0.9335889608        -0.0625140302 
H    8   1         -1.1256550559         2.2056240928        -2.7259526249 
H    9   1         -1.2370714190        -1.0969444468        -2.2047472599 
Br  10  35         -1.8720571946        -4.3863775000        -3.8995689301 
[GTO]
  1 0
s   5 1.0 
     1238.4016938000         0.8208956682
      186.2900499200         1.4766449896
       42.2511763460         2.1526124058
       11.6765579320         2.1081722461
        3.5930506482         0.8290999933
s   1 1.0 
        0.4024514736         0.3601183351
s   1 1.0 
        0.1309018267         0.1551027052
p   3 1.0 
        9.4680970621         1.3467645142
        2.0103545142         1.0678070931
        0.5477100471         0.5108735714
p   1 1.0 
        0.1526861379         0.1360471976
d   1 1.0 
        0.8000000000         1.9292013661

  2 0
s   5 1.0 
     1238.4016938000         0.8208956682
      186.2900499200         1.4766449896
       42.2511763460         2.1526124058
       11.6765579320         2.1081722461
        3.5930506482         0.8290999933
s   1 1.0 
        0.4024514736         0.3601183351
s   1 1.0 
        0.1309018267         0.1551027052
p   3 1.0 
        9.4680970621         1.3467645142
        2.0103545142         1.0678070931
        0.5477100471         0.5108735714
p   1 1.0 
        0.1526861379         0.1360471976
d   1 1.0 
        0.8000000000         1.9292013661

  3 0
s   3 1.0 
       13.0107010000         0.1634903809
        1.9622572000         0.2773515510
        0.4445379600         0.3157501452
s   1 1.0 
        0.1219496200         0.1470772262
p   1 1.0 
        0.8000000000         1.0784563492

  4 0
s   3 1.0 
       13.0107010000         0.1634903809
        1.9622572000         0.2773515510
        0.4445379600         0.3157501452
s   1 1.0 
        0.1219496200         0.1470772262
p   1 1.0 
        0.8000000000         1.0784563492

  5 0
s   3 1.0 
       13.0107010000         0.1634903809
        1.9622572000         0.2773515510
        0.4445379600         0.3157501452
s   1 1.0 
        0.1219496200         0.1470772262
p   1 1.0 
        0.8000000000         1.0784563492

  6 0
s   5 1.0 
     1238.4016938000         0.8208956682
      186.2900499200         1.4766449896
       42.2511763460         2.1526124058
       11.6765579320         2.1081722461
        3.5930506482         0.8290999933
s   1 1.0 
        0.4024514736         0.3601183351
s   1 1.0 
        0.1309018267         0.1551027052
p   3 1.0 
        9.4680970621         1.3467645142
        2.0103545142         1.0678070931
        0.5477100471         0.5108735714
p   1 1.0 
        0.1526861379         0.1360471976
d   1 1.0 
        0.8000000000         1.9292013661

  7 0
s   3 1.0 
       13.0107010000         0.1634903809
        1.9622572000         0.2773515510
        0.4445379600         0.3157501452
s   1 1.0 
        0.1219496200         0.1470772262
p   1 1.0 
        0.8000000000         1.0784563492

  8 0
s   3 1.0 
       13.0107010000         0.1634903809
        1.9622572000         0.2773515510
        0.4445379600         0.3157501452
s   1 1.0 
        0.1219496200         0.1470772262
p   1 1.0 
        0.8000000000         1.0784563492

  9 0
s   3 1.0 
       13.0107010000         0.1634903809
        1.9622572000         0.2773515510
        0.4445379600         0.3157501452
s   1 1.0 
        0.1219496200         0.1470772262
p   1 1.0 
        0.8000000000         1.0784563492

 10 0
s   6 1.0 
   113286.3877600000         7.5076141183
    17009.6263030000        13.8835270484
     3870.1842567000        22.7307285566
     1093.0357227000        30.8227297499
      356.3972179700        27.2481937511
      123.1253964300         9.6953381145
s   3 1.0 
      236.7408400700        -4.7631125758
       28.4686610700         5.6113863182
       11.8834437220         1.9900291396
s   3 1.0 
       21.2696333120        -1.5429794477
        3.6129226841         1.3310800628
        1.6626648969         0.4300130345
s   1 1.0 
        0.3482379323         0.3230852630
s   1 1.0 
        0.1301903139         0.1544699827
p   5 1.0 
     1560.2801881000       115.0180051576
      368.4785920500       143.9035925417
      117.2297884900       137.5255986684
       42.6489092480        78.9578527439
       16.0872250960        15.8580577654
p   3 1.0 
        8.6352810058         6.8437546680
        3.5613665502         3.7974971038
        1.5292626609         0.5585414278
p   1 1.0 
        0.5306429485         0.6455696201
p   1 1.0 
        0.1570275896         0.1408996918
d   4 1.0 
      104.8551864200       261.4493931636
       30.2811436880       176.6993802449
       10.6513942670        76.9545600188
        3.8699456233        17.5937671387
d   1 1.0 
        1.3240876762         4.6593398042
d   1 1.0 
        0.3890000000         0.5462379705

[5D]
[7F]
[9G]
[MO]
 Sym=     1a
 Ene= -4.82767450780740E+02
 Spin= Alpha
 Occup= 1.000000
  1       0.000005678439
  2      -0.000077673883
  3       0.000223354496
  4       0.000008784785
  5       0.000015202694
  6       0.000005517503
  7      -0.000015280157
  8      -0.000064351856
  9       0.000140054789
 10      -0.000001589205
 11       0.000001950930
 12       0.000000855147
 13      -0.000000879082
 14      -0.000005779699
 15       0.000001374091
 16      -0.000008213780
 17      -0.000215662856
 18       0.000000139256
 19       0.000002895674
 20       0.000002735734
 21       0.000020939380
 22      -0.000027101894
 23       0.000102888353
 24      -0.000000128011
 25      -0.000002072780
 26      -0.000001366003
 27      -0.000004320979
 28      -0.000000952260
 29      -0.000002853426
 30       0.000006182869
 31      -0.000001900862
 32       0.000002184547
 33       0.000000825489
 34       0.000001230440
 35      -0.000007923724
 36       0.000000983684
 37       0.000002013851
 38      -0.000003413016
 39       0.000000324403
 40       0.000009521960
 41      -0.000000717093
 42       0.000000353216
 43      -0.000001827763
 44       0.000008287536
 45      -0.000155948219
 46       0.001054916968
 47      -0.000008796497
 48       0.000014607913
 49       0.000007771154
 50       0.000037947027
 51      -0.000379747752
 52      -0.000265321388
 53      -0.000003745836
 54       0.000005209869
 55       0.000011869344
 56      -0.000012784399
 57       0.000005356693
 58      -0.000010337481
 59       0.000007588327
 60       0.000006179027
 61       0.000003667323
 62      -0.000003025217
 63      -0.000044484514
 64      -0.000033599180
 65      -0.000005762137
 66       0.000001699619
 67       0.000007729212
 68       0.000008028433
 69      -0.001454053321
 70       0.000007811117
 71       0.000005037036
 72       0.000002736636
 73      -0.994982768424
 74      -0.015687107563
 75       0.003907191782
 76      -0.002331695250
 77       0.001671941476
 78      -0.000001675876
 79      -0.000007430497
 80      -0.000003739599
 81       0.000005720730
 82       0.000025001773
 83       0.000012620936
 84      -0.000027694352
 85      -0.000123029067
 86      -0.000062352180
 87       0.000091217951
 88       0.000430931882
 89       0.000220266356
 90      -0.000003257747
 91       0.000002388103
 92       0.000011096513
 93      -0.000010336447
 94       0.000004765446
 95       0.000012590633
 96      -0.000009180316
 97      -0.000042901903
 98       0.000039988614
 99      -0.000018292751
100      -0.000030107034
101       0.000021820325
102       0.000103119211
103      -0.000096119307
104       0.000043217552
 Sym=     1a
 Ene= -6.24503616512897E+01
 Spin= Alpha
 Occup= 1.000000
  1       0.000013552742
  2      -0.000187512240
  3       0.000529602496
  4       0.000021118210
  5       0.000036464169
  6       0.000013354824
  7      -0.000031116161
  8      -0.000155080232
  9       0.000340450005
 10      -0.000004011784
 11       0.000004504177
 12       0.000002223270
 13      -0.000002354065
 14      -0.000013853762
 15       0.000003307665
 16      -0.000020309084
 17      -0.000518440111
 18       0.000000524101
 19       0.000006989670
 20       0.000006657557
 21       0.000047572894
 22      -0.000065897142
 23       0.000247742723
 24      -0.000000305238
 25      -0.000004948328
 26      -0.000003229792
 27      -0.000010233509
 28      -0.000002237804
 29      -0.000007527354
 30       0.000015160163
 31      -0.000004644080
 32       0.000005063106
 33       0.000001758993
 34       0.000003276068
 35      -0.000018494257
 36       0.000002354660
 37       0.000004794544
 38      -0.000008048358
 39       0.000000095044
 40       0.000021793530
 41      -0.000001693137
 42       0.000000796915
 43      -0.000004238063
 44       0.000019088280
 45      -0.000373527566
 46       0.002595807886
 47      -0.000021703507
 48       0.000029870899
 49       0.000016141912
 50       0.000096830793
 51      -0.000931172696
 52      -0.000646575582
 53      -0.000009684066
 54       0.000012761899
 55       0.000031897496
 56      -0.000033610785
 57       0.000012697193
 58      -0.000024173274
 59       0.000017141622
 60       0.000014666599
 61       0.000008659201
 62      -0.000007632248
 63      -0.000107418970
 64      -0.000082680819
 65      -0.000014339753
 66       0.000003751410
 67       0.000018491613
 68       0.000018321678
 69      -0.003581555449
 70       0.000016971713
 71       0.000000120727
 72       0.000000309527
 73      -0.347189675766
 74       1.046963882084
 75       0.018550817197
 76      -0.006309298223
 77       0.004260597049
 78       0.000010140510
 79       0.000080310875
 80       0.000037222984
 81       0.000015281463
 82       0.000069300580
 83       0.000034704462
 84      -0.000068465797
 85      -0.000305131753
 86      -0.000154491762
 87       0.000224585652
 88       0.001061812708
 89       0.000542609219
 90      -0.000022276161
 91       0.000011492967
 92       0.000070628808
 93      -0.000069246494
 94       0.000023429251
 95       0.000035057200
 96      -0.000023770069
 97      -0.000117437675
 98       0.000110758641
 99      -0.000047722375
100      -0.000074585465
101       0.000053410265
102       0.000254602815
103      -0.000237802508
104       0.000106117178
 Sym=     1a
 Ene= -5.62838764316513E+01
 Spin= Alpha
 Occup= 1.000000
  1      -0.000015921341
  2       0.000232113687
  3      -0.000675880677
  4      -0.000025180318
  5      -0.000043695042
  6      -0.000015775446
  7       0.000091875199
  8       0.000212271969
  9      -0.000326367494
 10       0.000003616605
 11      -0.000006800882
 12      -0.000007411003
 13       0.000003374115
 14       0.000010090391
 15      -0.000004600399
 16       0.000033190595
 17       0.000552756084
 18      -0.000002437030
 19      -0.000010439811
 20      -0.000010490654
 21      -0.000053564730
 22       0.000063063255
 23      -0.000254408346
 24      -0.000000994974
 25       0.000007785941
 26       0.000006140745
 27       0.000011487102
 28       0.000000434554
 29       0.000012946180
 30      -0.000027056597
 31       0.000004393729
 32      -0.000007767678
 33      -0.000007386841
 34      -0.000006289867
 35       0.000017719564
 36      -0.000000540732
 37      -0.000005514953
 38       0.000009005414
 39       0.000004667436
 40      -0.000031617338
 41       0.000000072479
 42       0.000000364672
 43       0.000002545949
 44      -0.000014807361
 45       0.000351568506
 46      -0.002874528062
 47       0.000028546106
 48      -0.000004642807
 49      -0.000004729263
 50      -0.000104751226
 51       0.001061339845
 52       0.000773448318
 53       0.000012675745
 54      -0.000017148290
 55      -0.000044293110
 56       0.000047424999
 57      -0.000014219720
 58       0.000004466328
 59      -0.000070843186
 60      -0.000017942139
 61       0.000005206251
 62       0.000017236089
 63       0.000111842789
 64       0.000057073629
 65       0.000019513379
 66       0.000010719700
 67      -0.000013832114
 68       0.000074572939
 69       0.004451326808
 70      -0.000027691011
 71      -0.000019870568
 72      -0.000012518516
 73      -0.000049095484
 74       0.000140730760
 75      -0.000159506871
 76       0.001028045423
 77      -0.002141701569
 78      -0.119194914163
 79      -0.884124733183
 80      -0.430875372925
 81      -0.002871432132
 82      -0.021243930898
 83      -0.010354609608
 84       0.000782422050
 85       0.005544809842
 86       0.002710859036
 87      -0.000548445122
 88      -0.003299267428
 89      -0.001642285561
 90       0.000012976942
 91      -0.000008590349
 92      -0.000043481239
 93       0.000041184568
 94      -0.000017313092
 95      -0.000043220350
 96       0.000030401063
 97       0.000148154712
 98      -0.000138646777
 99       0.000060911484
100       0.000101728507
101      -0.000072142213
102      -0.000351049189
103       0.000327777311
104      -0.000143332345
 Sym=     1a
 Ene= -5.62796638221640E+01
 Spin= Alpha
 Occup= 1.000000
  1       0.000006152006
  2      -0.000055850104
  3       0.000177521047
  4       0.000013085998
  5       0.000023317058
  6       0.000003749178
  7       0.000004358973
  8      -0.000194695963
  9       0.000282544465
 10       0.000006695027
 11      -0.000002272607
 12      -0.000002775415
 13       0.000002116558
 14       0.000010417130
 15       0.000001239222
 16      -0.000007535257
 17      -0.000375845518
 18       0.000004623241
 19      -0.000002533887
 20       0.000005189228
 21      -0.000014359822
 22      -0.000002205171
 23       0.000163317944
 24      -0.000003880203
 25      -0.000002773855
 26      -0.000003926984
 27      -0.000004938795
 28       0.000001037638
 29       0.000015611281
 30       0.000055863697
 31      -0.000008315292
 32       0.000017307498
 33      -0.000001639689
 34       0.000010661010
 35       0.000019136553
 36       0.000001338798
 37      -0.000002364403
 38      -0.000007872694
 39      -0.000001158789
 40       0.000017342732
 41      -0.000002610159
 42      -0.000003295203
 43      -0.000007940729
 44      -0.000003353460
 45       0.000070858117
 46      -0.000391023966
 47      -0.000041267928
 48      -0.000023413495
 49      -0.000009530640
 50       0.000301290989
 51       0.000326249181
 52       0.000066006900
 53       0.000001277407
 54       0.000025315348
 55      -0.000015649477
 56       0.000005442211
 57       0.000018206604
 58       0.000119120946
 59       0.000027412272
 60      -0.000011385613
 61      -0.000016425413
 62      -0.000017942299
 63      -0.000013318390
 64      -0.000038398988
 65      -0.000031292432
 66      -0.000006123457
 67      -0.000010552463
 68       0.000024302369
 69       0.000616481611
 70       0.000052538789
 71      -0.000002661408
 72      -0.000001556287
 73      -0.000001244779
 74       0.000003044208
 75      -0.000013008393
 76       0.000094746321
 77      -0.000232393316
 78      -0.979943891698
 79       0.069494724619
 80       0.128497501530
 81      -0.023403433545
 82       0.001653267768
 83       0.003065308419
 84       0.005672800719
 85      -0.000368565383
 86      -0.000725786203
 87      -0.002124795672
 88       0.000004094111
 89       0.000201008144
 90       0.000002130531
 91      -0.000005166702
 92      -0.000001383082
 93       0.000000761678
 94      -0.000010914290
 95      -0.000005404402
 96       0.000008552763
 97       0.000009840236
 98      -0.000008741074
 99       0.000017000846
100       0.000012430480
101      -0.000016225859
102      -0.000028174789
103       0.000025752683
104      -0.000031616911
 Sym=     1a
 Ene= -5.62796522512346E+01
 Spin= Alpha
 Occup= 1.000000
  1      -0.000005959469
  2       0.000049159379
  3       0.000078249606
  4      -0.000008668325
  5      -0.000015738972
  6      -0.000024514837
  7      -0.000104795276
  8      -0.000020617799
  9       0.000206582008
 10      -0.000005197017
 11       0.000001785408
 12       0.000002661294
 13       0.000001651101
 14      -0.000000074450
 15       0.000001460689
 16      -0.000028533959
 17      -0.000151214785
 18       0.000009020902
 19      -0.000007264648
 20       0.000007440773
 21      -0.000065173933
 22      -0.000022179127
 23       0.000014439872
 24       0.000004177074
 25      -0.000003730714
 26       0.000001624090
 27       0.000002672610
 28       0.000002651106
 29       0.000034968854
 30       0.000083679052
 31      -0.000005478460
 32      -0.000007077450
 33      -0.000006897336
 34       0.000017958375
 35       0.000054117063
 36      -0.000003970069
 37       0.000000335920
 38      -0.000003687870
 39      -0.000009748477
 40      -0.000007633560
 41      -0.000000759052
 42      -0.000001419737
 43       0.000001521140
 44      -0.000003242981
 45       0.000031076707
 46       0.000004269619
 47       0.000007808251
 48      -0.000017051804
 49       0.000042967963
 50       0.000037992739
 51       0.000102822878
 52      -0.000347165661
 53      -0.000006869532
 54       0.000002197099
 55      -0.000028819474
 56      -0.000028691469
 57      -0.000001241508
 58       0.000075300914
 59       0.000051923925
 60       0.000019391052
 61      -0.000015353652
 62       0.000023693066
 63      -0.000122049929
 64      -0.000074079340
 65       0.000002315650
 66       0.000016808499
 67      -0.000001020846
 68      -0.000012256741
 69      -0.000075275181
 70      -0.000006348799
 71       0.000025178595
 72      -0.000046744149
 73      -0.000000286197
 74       0.000001045276
 75       0.000003143500
 76      -0.000018967936
 77       0.000037032401
 78       0.084447194079
 79      -0.441646993998
 80       0.882863913228
 81       0.002017077048
 82      -0.010544864794
 83       0.021083503386
 84      -0.000489934347
 85       0.002543624079
 86      -0.005105132196
 87       0.000185019613
 88      -0.000917057301
 89       0.001894594027
 90       0.000006911387
 91       0.000001790998
 92       0.000007106769
 93       0.000003805269
 94       0.000000324741
 95      -0.000007857807
 96      -0.000002545990
 97      -0.000009864401
 98      -0.000002885709
 99      -0.000000736132
100       0.000011521819
101       0.000004243969
102       0.000016797764
103       0.000002485936
104       0.000001730432
 Sym=     1a
 Ene= -1.02172646443548E+01
 Spin= Alpha
 Occup= 1.000000
  1      -0.116123169390
  2      -0.004443763625
  3      -0.000844912801
  4      -0.001328931468
  5       0.000353677683
  6      -0.000928771938
  7      -0.000739991517
  8      -0.001659640973
  9       0.005409504990
 10      -0.000099459223
 11       0.001328787408
 12      -0.000036346195
 13       0.000899222752
 14      -0.000168843963
 15      -0.008172536777
 16       0.000418894106
 17      -0.006869952473
 18      -0.000274390509
 19       0.000064365760
 20      -0.000229532585
 21       0.004718163856
 22      -0.000272172585
 23       0.003420348409
 24      -0.000051014079
 25       0.000052026247
 26       0.000050635754
 27      -0.000202746830
 28      -0.000122932616
 29       0.000986909163
 30       0.000645481528
 31       0.000010814534
 32       0.000009055293
 33       0.000279162937
 34      -0.000760639920
 35      -0.001833717506
 36       0.000068871543
 37      -0.000006954300
 38       0.000043424898
 39       0.000909534037
 40       0.001844302193
 41       0.000002231416
 42       0.000060072094
 43      -0.000112070606
 44      -0.980897755500
 45      -0.053192005065
 46       0.054581566858
 47       0.000838575289
 48       0.000733802306
 49       0.000937886746
 50       0.001853490176
 51      -0.006501057003
 52      -0.003375657008
 53      -0.000237167222
 54       0.000586724504
 55       0.000468714730
 56       0.000041498188
 57       0.000123684409
 58       0.002787044978
 59      -0.007333296350
 60       0.002190702300
 61       0.000073544482
 62      -0.001620393425
 63       0.002627042387
 64      -0.008042695791
 65      -0.000263695421
 66      -0.001709017632
 67       0.002165928750
 68       0.002383652202
 69      -0.024108206354
 70      -0.000065362606
 71       0.002244775373
 72       0.000978098007
 73       0.000011718704
 74      -0.000021154038
 75       0.000203231662
 76      -0.002144637150
 77       0.006935536898
 78      -0.000004794103
 79      -0.000018622706
 80      -0.000003083232
 81       0.000017361405
 82       0.000067511878
 83       0.000012540006
 84      -0.000131199487
 85      -0.000528379266
 86      -0.000174287545
 87       0.000869592172
 88       0.004033974616
 89       0.001894729376
 90      -0.000021798631
 91       0.000013376070
 92       0.000050840503
 93      -0.000052339149
 94       0.000030379736
 95       0.000101337661
 96      -0.000062489466
 97      -0.000240626966
 98       0.000246579533
 99      -0.000141063505
100      -0.000294436440
101       0.000186183048
102       0.000768699437
103      -0.000768870845
104       0.000406664988
 Sym=     1a
 Ene= -1.02164799559808E+01
 Spin= Alpha
 Occup= 1.000000
  1      -0.979994055832
  2      -0.047392032675
  3       0.042106495207
  4      -0.000442280699
  5       0.000228822711
  6       0.000366173156
  7      -0.004379575424
  8      -0.001923653254
  9       0.004119338674
 10      -0.001022596210
 11       0.000221622047
 12       0.000951062440
 13      -0.001667979628
 14      -0.000702406687
 15      -0.052804484501
 16       0.002174360510
 17      -0.016247425741
 18      -0.000134140004
 19       0.000775216821
 20      -0.002615555679
 21       0.002322918323
 22      -0.001073372988
 23       0.004751852079
 24       0.001061054885
 25       0.000044249746
 26      -0.000704112723
 27       0.000289219694
 28       0.000087126097
 29       0.004653327479
 30      -0.006286550131
 31      -0.002553289379
 32      -0.000604261745
 33       0.001317387450
 34      -0.000285574213
 35       0.000057063855
 36       0.000177314577
 37      -0.000081191586
 38       0.000384969184
 39       0.000272000902
 40       0.001343739715
 41      -0.000136036081
 42      -0.000140991668
 43       0.000431618918
 44       0.115697954687
 45       0.006748962257
 46      -0.006146150901
 47       0.001577197426
 48       0.000313219938
 49       0.001213834463
 50      -0.001379400799
 51      -0.003876682110
 52      -0.005657716525
 53      -0.000168642796
 54       0.001183482493
 55       0.000053373448
 56       0.001020595625
 57       0.000100640707
 58      -0.000349902368
 59       0.001911136250
 60      -0.000555143506
 61       0.000189307569
 62       0.000062051858
 63      -0.000894813417
 64       0.000573190799
 65      -0.000294571203
 66       0.000474735332
 67      -0.000206612643
 68      -0.000410587862
 69      -0.010399603385
 70      -0.000527014440
 71      -0.000507382727
 72      -0.000503109333
 73       0.000007896267
 74      -0.000014606396
 75       0.000135667898
 76      -0.001336982694
 77       0.003778342613
 78       0.000007605292
 79      -0.000022768889
 80      -0.000002065472
 81      -0.000025409520
 82       0.000079326383
 83       0.000008080045
 84       0.000074436047
 85      -0.000473136863
 86      -0.000110675509
 87       0.000218552643
 88       0.002454777827
 89       0.001060021715
 90      -0.000011595933
 91      -0.000000654292
 92       0.000033724342
 93      -0.000037247255
 94       0.000010464143
 95       0.000054580080
 96       0.000000268900
 97      -0.000161446713
 98       0.000175921057
 99      -0.000051003928
100      -0.000163489186
101       0.000033989688
102       0.000516533008
103      -0.000533927061
104       0.000174768426
 Sym=     1a
 Ene= -1.02105352836293E+01
 Spin= Alpha
 Occup= 1.000000
  1       0.052477354784
  2       0.006840847195
  3      -0.011838159760
  4       0.000394460227
  5      -0.000708706916
  6       0.002669662349
  7       0.000693549959
  8      -0.000357115003
  9       0.002027676931
 10       0.001336611523
 11      -0.000002331288
 12      -0.000860358684
 13       0.000404472387
 14       0.000136372237
 15      -0.986699383335
 16      -0.048470192102
 17       0.030486202824
 18       0.000034307656
 19       0.000136673082
 20      -0.000311826815
 21      -0.000934974961
 22      -0.000230083212
 23      -0.000130623037
 24      -0.001111740151
 25      -0.000216817070
 26       0.001291913053
 27      -0.002116864317
 28      -0.000563980980
 29      -0.000270460208
 30       0.001565004787
 31       0.000271332965
 32       0.000264290196
 33      -0.000831285486
 34       0.004651993917
 35      -0.006864131924
 36      -0.002697734529
 37       0.000080781781
 38      -0.001408038600
 39       0.004195131690
 40      -0.007424730261
 41       0.002561167198
 42       0.000779513069
 43      -0.001390773281
 44       0.002024316570
 45      -0.000254791383
 46       0.004776330892
 47      -0.000273914318
 48       0.000003203369
 49      -0.000003491656
 50       0.002661813308
 51       0.000176722212
 52      -0.002109767056
 53      -0.000196572565
 54      -0.000197105516
 55       0.000076711662
 56      -0.000173556509
 57       0.000068138001
 58       0.000429843568
 59       0.001109958931
 60      -0.000006386977
 61      -0.000097989040
 62      -0.000051343393
 63      -0.000619197827
 64      -0.000920512386
 65      -0.000061934752
 66       0.000107519150
 67       0.000153656590
 68       0.000047375427
 69      -0.002343388341
 70      -0.000060352881
 71      -0.000180528915
 72       0.000209514656
 73       0.000002480858
 74      -0.000004782560
 75       0.000041942611
 76      -0.000339009516
 77       0.000856838421
 78      -0.000000305130
 79      -0.000005852171
 80      -0.000004645660
 81       0.000001140517
 82       0.000020267217
 83       0.000016094320
 84      -0.000010807904
 85      -0.000110366619
 86      -0.000085793171
 87       0.000084146109
 88       0.000511258262
 89       0.000330302924
 90       0.000000154544
 91       0.000002023774
 92       0.000010731376
 93      -0.000005111228
 94       0.000001958975
 95      -0.000000382845
 96      -0.000009431481
 97      -0.000049829230
 98       0.000024552986
 99      -0.000009344639
100      -0.000004652319
101       0.000026942893
102       0.000140051061
103      -0.000080313133
104       0.000030309619
 Sym=     1a
 Ene= -8.66852112162863E+00
 Spin= Alpha
 Occup= 1.000000
  1       0.000034022332
  2      -0.000409720361
  3       0.001021643175
  4       0.000044212370
  5       0.000074484101
  6       0.000028364012
  7       0.000029421612
  8      -0.000336895251
  9       0.000801056453
 10      -0.000011166216
 11       0.000007491426
 12       0.000007182946
 13      -0.000008343519
 14      -0.000029238601
 15       0.000009673541
 16      -0.000051739264
 17      -0.001122992735
 18       0.000003749647
 19       0.000014779879
 20       0.000015158917
 21       0.000055855729
 22      -0.000154763677
 23       0.000543357866
 24      -0.000000531998
 25      -0.000009504900
 26      -0.000005723033
 27      -0.000020206910
 28      -0.000004342519
 29      -0.000023484665
 30       0.000031609782
 31      -0.000011345886
 32       0.000007984631
 33      -0.000001129271
 34       0.000012126564
 35      -0.000028494630
 36       0.000005066408
 37       0.000009733163
 38      -0.000015642786
 39      -0.000008675882
 40       0.000026287101
 41      -0.000003646776
 42       0.000001002679
 43      -0.000007556288
 44       0.000034461294
 45      -0.000774667111
 46       0.006543353218
 47      -0.000054000608
 48      -0.000022614619
 49      -0.000007081931
 50       0.000296601176
 51      -0.002282399278
 52      -0.001526641586
 53      -0.000031727110
 54       0.000030552038
 55       0.000121939558
 56      -0.000118864443
 57       0.000024598597
 58      -0.000039004435
 59       0.000010068814
 60       0.000028963026
 61       0.000016043050
 62      -0.000020984549
 63      -0.000237252195
 64      -0.000217160636
 65      -0.000037465855
 66       0.000003532043
 67       0.000038124064
 68       0.000049705506
 69      -0.009087028084
 70       0.000004079204
 71      -0.000211317713
 72      -0.000109249107
 73      -0.136666767890
 74       0.516894723704
 75      -1.093500219417
 76      -0.032276167692
 77       0.013701632947
 78       0.000041359570
 79       0.000293711996
 80       0.000136550872
 81      -0.000088982477
 82      -0.000661819797
 83      -0.000305724548
 84      -0.000181013302
 85      -0.000825270443
 86      -0.000416516765
 87       0.000565647788
 88       0.002688783022
 89       0.001373273889
 90       0.000333143973
 91      -0.000127412733
 92      -0.000993525895
 93       0.001013400868
 94      -0.000265531597
 95       0.000288583815
 96      -0.000131031333
 97      -0.000879475058
 98       0.000881535346
 99      -0.000270466283
100      -0.000183488105
101       0.000124850677
102       0.000614685523
103      -0.000579661040
104       0.000250006454
 Sym=     1a
 Ene= -6.50568299769820E+00
 Spin= Alpha
 Occup= 1.000000
  1       0.000018345933
  2      -0.000254510325
  3       0.000697593363
  4       0.000027777768
  5       0.000046883086
  6       0.000018559715
  7      -0.000079798533
  8      -0.000235445426
  9       0.000360088636
 10      -0.000004546370
 11       0.000005962251
 12       0.000007413694
 13      -0.000004119992
 14      -0.000010591400
 15       0.000005691211