[Molden Format]
[Title]
 Molden file created by orca_2mkl for BaseName=radical_015

[Atoms] AU
C    1   6          1.1898452732         0.8268062062         0.3341319264 
C    2   6          1.3120368548         0.0917499833         2.7994629715 
H    3   1          2.9544356323         1.2887346418        -0.6485577886 
H    4   1          3.1114869918         0.0014664275         3.8081269722 
H    5   1         -0.3941798640        -0.4292853064         3.8466263627 
C    6   6         -1.0937829349         0.9316727785        -1.1101706400 
H    7   1         -2.8975851113         0.8292023789        -0.0959980876 
H    8   1         -1.1169963308         2.0651305137        -2.8418589773 
H    9   1         -1.2576297497        -1.4677559574        -2.3509761579 
Br  10  35         -1.8076307615        -4.1377216661        -3.7407865814 
[GTO]
  1 0
s   5 1.0 
     1238.4016938000         0.8208956682
      186.2900499200         1.4766449896
       42.2511763460         2.1526124058
       11.6765579320         2.1081722461
        3.5930506482         0.8290999933
s   1 1.0 
        0.4024514736         0.3601183351
s   1 1.0 
        0.1309018267         0.1551027052
p   3 1.0 
        9.4680970621         1.3467645142
        2.0103545142         1.0678070931
        0.5477100471         0.5108735714
p   1 1.0 
        0.1526861379         0.1360471976
d   1 1.0 
        0.8000000000         1.9292013661

  2 0
s   5 1.0 
     1238.4016938000         0.8208956682
      186.2900499200         1.4766449896
       42.2511763460         2.1526124058
       11.6765579320         2.1081722461
        3.5930506482         0.8290999933
s   1 1.0 
        0.4024514736         0.3601183351
s   1 1.0 
        0.1309018267         0.1551027052
p   3 1.0 
        9.4680970621         1.3467645142
        2.0103545142         1.0678070931
        0.5477100471         0.5108735714
p   1 1.0 
        0.1526861379         0.1360471976
d   1 1.0 
        0.8000000000         1.9292013661

  3 0
s   3 1.0 
       13.0107010000         0.1634903809
        1.9622572000         0.2773515510
        0.4445379600         0.3157501452
s   1 1.0 
        0.1219496200         0.1470772262
p   1 1.0 
        0.8000000000         1.0784563492

  4 0
s   3 1.0 
       13.0107010000         0.1634903809
        1.9622572000         0.2773515510
        0.4445379600         0.3157501452
s   1 1.0 
        0.1219496200         0.1470772262
p   1 1.0 
        0.8000000000         1.0784563492

  5 0
s   3 1.0 
       13.0107010000         0.1634903809
        1.9622572000         0.2773515510
        0.4445379600         0.3157501452
s   1 1.0 
        0.1219496200         0.1470772262
p   1 1.0 
        0.8000000000         1.0784563492

  6 0
s   5 1.0 
     1238.4016938000         0.8208956682
      186.2900499200         1.4766449896
       42.2511763460         2.1526124058
       11.6765579320         2.1081722461
        3.5930506482         0.8290999933
s   1 1.0 
        0.4024514736         0.3601183351
s   1 1.0 
        0.1309018267         0.1551027052
p   3 1.0 
        9.4680970621         1.3467645142
        2.0103545142         1.0678070931
        0.5477100471         0.5108735714
p   1 1.0 
        0.1526861379         0.1360471976
d   1 1.0 
        0.8000000000         1.9292013661

  7 0
s   3 1.0 
       13.0107010000         0.1634903809
        1.9622572000         0.2773515510
        0.4445379600         0.3157501452
s   1 1.0 
        0.1219496200         0.1470772262
p   1 1.0 
        0.8000000000         1.0784563492

  8 0
s   3 1.0 
       13.0107010000         0.1634903809
        1.9622572000         0.2773515510
        0.4445379600         0.3157501452
s   1 1.0 
        0.1219496200         0.1470772262
p   1 1.0 
        0.8000000000         1.0784563492

  9 0
s   3 1.0 
       13.0107010000         0.1634903809
        1.9622572000         0.2773515510
        0.4445379600         0.3157501452
s   1 1.0 
        0.1219496200         0.1470772262
p   1 1.0 
        0.8000000000         1.0784563492

 10 0
s   6 1.0 
   113286.3877600000         7.5076141183
    17009.6263030000        13.8835270484
     3870.1842567000        22.7307285566
     1093.0357227000        30.8227297499
      356.3972179700        27.2481937511
      123.1253964300         9.6953381145
s   3 1.0 
      236.7408400700        -4.7631125758
       28.4686610700         5.6113863182
       11.8834437220         1.9900291396
s   3 1.0 
       21.2696333120        -1.5429794477
        3.6129226841         1.3310800628
        1.6626648969         0.4300130345
s   1 1.0 
        0.3482379323         0.3230852630
s   1 1.0 
        0.1301903139         0.1544699827
p   5 1.0 
     1560.2801881000       115.0180051576
      368.4785920500       143.9035925417
      117.2297884900       137.5255986684
       42.6489092480        78.9578527439
       16.0872250960        15.8580577654
p   3 1.0 
        8.6352810058         6.8437546680
        3.5613665502         3.7974971038
        1.5292626609         0.5585414278
p   1 1.0 
        0.5306429485         0.6455696201
p   1 1.0 
        0.1570275896         0.1408996918
d   4 1.0 
      104.8551864200       261.4493931636
       30.2811436880       176.6993802449
       10.6513942670        76.9545600188
        3.8699456233        17.5937671387
d   1 1.0 
        1.3240876762         4.6593398042
d   1 1.0 
        0.3890000000         0.5462379705

[5D]
[7F]
[9G]
[MO]
 Sym=     1a
 Ene= -4.82749259741931E+02
 Spin= Alpha
 Occup= 1.000000
  1      -0.000005469615
  2       0.000080580153
  3      -0.000191106412
  4      -0.000007019316
  5      -0.000015546708
  6      -0.000004674048
  7      -0.000003300511
  8       0.000067653298
  9      -0.000138510538
 10       0.000001638698
 11      -0.000003859433
 12      -0.000001181025
 13      -0.000000205978
 14       0.000005178832
 15      -0.000001585428
 16       0.000009987791
 17       0.000200295252
 18      -0.000000279339
 19      -0.000002917440
 20      -0.000003163279
 21      -0.000015938879
 22       0.000027813865
 23      -0.000098914363
 24       0.000000447468
 25       0.000001825619
 26       0.000001176741
 27       0.000005016089
 28       0.000001021406
 29       0.000005566572
 30      -0.000001895850
 31       0.000001604216
 32      -0.000002845158
 33      -0.000000621428
 34      -0.000001916622
 35       0.000007793576
 36      -0.000000882439
 37      -0.000002021091
 38       0.000003337232
 39       0.000000644755
 40      -0.000007220582
 41       0.000000455617
 42      -0.000000391901
 43       0.000001728014
 44      -0.000004568301
 45       0.000142586602
 46      -0.000880226491
 47       0.000008430772
 48       0.000004274682
 49       0.000002782307
 50      -0.000052112971
 51       0.000335777884
 52       0.000218127562
 53       0.000008698700
 54      -0.000005517741
 55      -0.000030343901
 56       0.000029129632
 57      -0.000003824305
 58       0.000007729888
 59       0.000004469181
 60      -0.000005171593
 61      -0.000001710220
 62       0.000005651014
 63       0.000038924813
 64       0.000039530067
 65       0.000007125505
 66       0.000004458472
 67      -0.000005312798
 68      -0.000033036076
 69       0.001480579405
 70       0.000007584522
 71       0.000081405637
 72       0.000041589866
 73       0.994982335308
 74       0.015688072260
 75      -0.003915684990
 76       0.002367477305
 77      -0.001909286698
 78       0.000002291878
 79       0.000009774282
 80       0.000005032097
 81      -0.000007485845
 82      -0.000031317750
 83      -0.000016158048
 84       0.000032751933
 85       0.000137575201
 86       0.000071074334
 87      -0.000116456233
 88      -0.000521715978
 89      -0.000270840875
 90       0.000002652178
 91      -0.000002158472
 92      -0.000009363480
 93       0.000008521405
 94      -0.000004245977
 95      -0.000009842910
 96       0.000007988382
 97       0.000034770492
 98      -0.000031657670
 99       0.000015729914
100       0.000023391444
101      -0.000018861388
102      -0.000083022260
103       0.000075645316
104      -0.000036996496
 Sym=     1a
 Ene= -6.24323852287033E+01
 Spin= Alpha
 Occup= 1.000000
  1      -0.000012781422
  2       0.000190978697
  3      -0.000438655031
  4      -0.000016455276
  5      -0.000036486298
  6      -0.000010830266
  7      -0.000017123746
  8       0.000161273513
  9      -0.000336923540
 10       0.000004102957
 11      -0.000008983238
 12      -0.000003014890
 13      -0.000000114653
 14       0.000012313154
 15      -0.000003767776
 16       0.000024486028
 17       0.000476489810
 18      -0.000000877082
 19      -0.000006864600
 20      -0.000007618897
 21      -0.000033977973
 22       0.000067215470
 23      -0.000235846774
 24       0.000001057098
 25       0.000004202006
 26       0.000002638981
 27       0.000011739940
 28       0.000002387867
 29       0.000013372614
 30      -0.000005224520
 31       0.000004099020
 32      -0.000006476746
 33      -0.000000891432
 34      -0.000004943964
 35       0.000017659544
 36      -0.000002135239
 37      -0.000004743991
 38       0.000007742245
 39       0.000002277529
 40      -0.000015575311
 41       0.000001100741
 42      -0.000000889002
 43       0.000004008958
 44      -0.000010040455
 45       0.000339785735
 46      -0.002151660599
 47       0.000020482932
 48       0.000014226187
 49       0.000008356135
 50      -0.000132707664
 51       0.000812550273
 52       0.000524650727
 53       0.000021342059
 54      -0.000013295133
 55      -0.000074872570
 56       0.000071967990
 57      -0.000008970637
 58       0.000017026141
 59       0.000014314777
 60      -0.000011927337
 61      -0.000004188180
 62       0.000013549286
 63       0.000093217390
 64       0.000098990878
 65       0.000017542609
 66       0.000010395582
 67      -0.000012361598
 68      -0.000096540484
 69       0.003611298447
 70       0.000022715592
 71       0.000218196434
 72       0.000111480826
 73       0.347187943009
 74      -1.046960489177
 75      -0.018571953079
 76       0.006390288794
 77      -0.004819504600
 78      -0.000045905669
 79      -0.000254348650
 80      -0.000127844507
 81      -0.000023500270
 82      -0.000104121992
 83      -0.000053594891
 84       0.000081695782
 85       0.000347030290
 86       0.000179535772
 87      -0.000282982605
 88      -0.001270209723
 89      -0.000659710154
 90       0.000016508731
 91      -0.000010855376
 92      -0.000055833895
 93       0.000052496357
 94      -0.000021324985
 95      -0.000026139011
 96       0.000020506648
 97       0.000090914603
 98      -0.000083309916
 99       0.000039667959
100       0.000055247711
101      -0.000044606462
102      -0.000195037518
103       0.000177765841
104      -0.000086534008
 Sym=     1a
 Ene= -5.62648619811665E+01
 Spin= Alpha
 Occup= 1.000000
  1       0.000012659122
  2      -0.000209747160
  3       0.000523050099
  4       0.000013059778
  5       0.000041015199
  6       0.000008203804
  7      -0.000023768201
  8      -0.000191812261
  9       0.000326352470
 10      -0.000003278115
 11       0.000014235699
 12       0.000003703391
 13       0.000005405623
 14      -0.000009472185
 15       0.000005069127
 16      -0.000038379341
 17      -0.000479840881
 18       0.000002520765
 19       0.000008865074
 20       0.000011435951
 21       0.000031162024
 22      -0.000067128977
 23       0.000232652726
 24      -0.000000630435
 25      -0.000005560302
 26      -0.000003995814
 27      -0.000012335858
 28      -0.000001327909
 29      -0.000018229223
 30       0.000014967220
 31      -0.000002990279
 32       0.000007391976
 33       0.000003381052
 34       0.000007474530
 35      -0.000015948033
 36       0.000000758653
 37       0.000005470027
 38      -0.000008074311
 39      -0.000007046049
 40       0.000017565455
 41       0.000000489790
 42       0.000000195975
 43      -0.000002297096
 44      -0.000006826605
 45      -0.000264183467
 46       0.002174072085
 47      -0.000024707276
 48      -0.000099016066
 49      -0.000048674873
 50       0.000167208258
 51      -0.000885428294
 52      -0.000593829691
 53      -0.000041685186
 54       0.000020032492
 55       0.000149177128
 56      -0.000145450562
 57       0.000010552704
 58       0.000021340226
 59       0.000051188622
 60       0.000025541091
 61       0.000001194928
 62      -0.000026239653
 63      -0.000073568668
 64      -0.000064913274
 65      -0.000024038561
 66      -0.000022101493
 67       0.000022276524
 68       0.000118063112
 69      -0.004219338369
 70      -0.000086790796
 71      -0.000560532462
 72      -0.000288300474
 73       0.000126866296
 74      -0.000376740103
 75       0.000207006138
 76      -0.001063679878
 77       0.002579132887
 78       0.145442881344
 79       0.875043960650
 80       0.441202643755
 81       0.003507937647
 82       0.021058620008
 83       0.010619516448
 84      -0.000950009763
 85      -0.005539386551
 86      -0.002799339793
 87       0.000636769611
 88       0.003347343637
 89       0.001710099582
 90      -0.000012355081
 91       0.000008700483
 92       0.000042276751
 93      -0.000039508531
 94       0.000016962432
 95       0.000022640695
 96      -0.000017834367
 97      -0.000078647929
 98       0.000072140852
 99      -0.000034689812
100      -0.000042564989
101       0.000034510196
102       0.000149803376
103      -0.000136629018
104       0.000067631034
 Sym=     1a
 Ene= -5.62618483974617E+01
 Spin= Alpha
 Occup= 1.000000
  1      -0.000004632877
  2       0.000050321594
  3      -0.000251507940
  4      -0.000011103558
  5      -0.000022033344
  6       0.000003929478
  7       0.000081903159
  8       0.000236309463
  9      -0.000344682021
 10      -0.000003656182
 11       0.000000523509
 12       0.000002508675
 13      -0.000005803654
 14      -0.000009725195
 15      -0.000001842478
 16       0.000018884930
 17       0.000441216565
 18      -0.000009518077
 19       0.000008191480
 20      -0.000008268171
 21       0.000033290237
 22      -0.000005336449
 23      -0.000163041605
 24       0.000002304644
 25       0.000004616726
 26       0.000005104287
 27       0.000004584937
 28      -0.000002255567
 29      -0.000028767090
 30      -0.000098954014
 31       0.000008493278
 32      -0.000016622155
 33       0.000000124308
 34      -0.000019136718
 35      -0.000044513626
 36       0.000001080104
 37       0.000003917495
 38       0.000010549239
 39       0.000003861129
 40      -0.000029662697
 41       0.000002462157
 42       0.000004832319
 43       0.000009232686
 44       0.000003782421
 45      -0.000080739024
 46       0.000316385965
 47       0.000033754231
 48       0.000029217049
 49      -0.000009037743
 50      -0.000299282472
 51      -0.000351659135
 52       0.000120693800
 53      -0.000009552854
 54      -0.000015280520
 55       0.000019822681
 56      -0.000000504862
 57       0.000000750998
 58      -0.000170497862
 59      -0.000004523445
 60       0.000008190092
 61       0.000014000866
 62      -0.000002278152
 63       0.000069588953
 64       0.000047860049
 65       0.000031372038
 66       0.000008852161
 67       0.000009581793
 68      -0.000014916162
 69      -0.000522107316
 70      -0.000009807198
 71      -0.000020023033
 72      -0.000004940476
 73       0.000002346557
 74      -0.000006563858
 75       0.000010582374
 76      -0.000078939021
 77       0.000263867896
 78       0.861554232579
 79       0.098426748858
 80      -0.479231518963
 81       0.020582120377
 82       0.002356163947
 83      -0.011444185403
 84      -0.004992921002
 85      -0.000593221414
 86       0.002757497951
 87       0.001882810670
 88       0.000352850482
 89      -0.000949233603
 90      -0.000011132284
 91       0.000009482338
 92      -0.000008386340
 93      -0.000000374589
 94       0.000023050320
 95       0.000009554832
 96      -0.000009602616
 97      -0.000000862869
 98       0.000006221311
 99      -0.000020279156
100      -0.000015553227
101       0.000015865943
102       0.000013229166
103      -0.000018996482
104       0.000031617343
 Sym=     1a
 Ene= -5.62618385549883E+01
 Spin= Alpha
 Occup= 1.000000
  1       0.000010621048
  2      -0.000105262167
  3       0.000126184204
  4       0.000019540061
  5       0.000032394145
  6       0.000030068056
  7       0.000007992626
  8      -0.000098642078
  9      -0.000157821544
 10       0.000008763520
 11       0.000001839332
 12      -0.000004385436
 13       0.000004216247
 14       0.000006378769
 15      -0.000000239785
 16       0.000021212780
 17      -0.000002704938
 18      -0.000006857348
 19       0.000009757247
 20      -0.000002508876
 21       0.000096972413
 22       0.000031606305
 23       0.000041027933
 24      -0.000005482906
 25       0.000000571499
 26      -0.000006043308
 27      -0.000005773163
 28      -0.000000269481
 29      -0.000028376993
 30      -0.000048966308
 31       0.000003851213
 32       0.000018700568
 33       0.000013785980
 34      -0.000016414881
 35      -0.000054683928
 36       0.000002787994
 37      -0.000000964083
 38      -0.000000021744
 39       0.000012643823
 40       0.000036728002
 41       0.000000877914
 42      -0.000000008041
 43      -0.000004346888
 44       0.000001947658
 45       0.000009312715
 46      -0.000247069174
 47      -0.000023573681
 48       0.000000212673
 49      -0.000044763198
 50       0.000042432933
 51       0.000073802065
 52       0.000342344178
 53      -0.000007757035
 54       0.000003700131
 55       0.000004547804
 56       0.000021931384
 57       0.000001420246
 58      -0.000015047709
 59      -0.000034917394
 60      -0.000023384851
 61       0.000000793739
 62      -0.000033229698
 63       0.000134730990
 64       0.000005236966
 65      -0.000013863107
 66      -0.000008976480
 67      -0.000008319804
 68       0.000022029994
 69       0.000320742102
 70       0.000007953116
 71       0.000017963447
 72       0.000022094332
 73      -0.000001390875
 74       0.000003838732
 75      -0.000007821305
 76       0.000049323301
 77      -0.000157441945
 78      -0.467111203950
 79       0.454039449128
 80      -0.746513246741
 81      -0.011159712348
 82       0.010841289526
 83      -0.017833805494
 84       0.002709221705
 85      -0.002608795529
 86       0.004325995099
 87      -0.001024062356
 88       0.000887747732
 89      -0.001640519633
 90      -0.000015616230
 91      -0.000009781173
 92      -0.000013849212
 93      -0.000012548957
 94      -0.000010249201
 95       0.000010049890
 96       0.000008338021
 97       0.000012640549
 98       0.000006573715
 99       0.000009448397
100      -0.000010905187
101      -0.000012025961
102      -0.000020726993
103      -0.000003670228
104      -0.000014422322
 Sym=     1a
 Ene= -1.02282478519065E+01
 Spin= Alpha
 Occup= 1.000000
  1       0.028078322420
  2      -0.000259070107
  3       0.005261438290
  4       0.001571217565
  5      -0.000476354590
  6       0.001132966804
  7       0.000620058331
  8       0.001442575812
  9      -0.004914973564
 10       0.000015003207
 11      -0.001256808769
 12       0.000233916471
 13      -0.001148684589
 14       0.000172976325
 15       0.004170793120
 16      -0.000122168265
 17       0.005142427508
 18       0.000254982190
 19      -0.000004502567
 20      -0.000064736072
 21      -0.004775070342
 22       0.000302566312
 23      -0.002833733206
 24       0.000166669522
 25       0.000020972219
 26      -0.000123803456
 27       0.000233231449
 28       0.000100345426
 29      -0.000472962757
 30      -0.001306041314
 31      -0.000356931433
 32      -0.000059610031
 33      -0.000175214135
 34       0.000748969436
 35       0.001918982502
 36      -0.000024172785
 37      -0.000011089750
 38      -0.000010912326
 39      -0.000905994560
 40      -0.001801661556
 41      -0.000006662034
 42      -0.000071600193
 43       0.000141150003
 44       0.987341286133
 45       0.053142575908
 46      -0.051484482008
 47      -0.000573166148
 48      -0.000355282202
 49      -0.000526766268
 50      -0.002033184514
 51       0.006723066737
 52       0.002887913127
 53       0.000548271869
 54      -0.000323701216
 55      -0.001206376521
 56       0.000989324914
 57      -0.000023379434
 58      -0.002960971374
 59       0.007432094317
 60      -0.002416390958
 61      -0.000374681504
 62       0.001574041929
 63      -0.002880945275
 64       0.007945576088
 65       0.000230551254
 66       0.001508643501
 67      -0.002551470502
 68       0.000164407648
 69       0.022252382004
 70      -0.000057785692
 71      -0.001803682099
 72      -0.000749895982
 73      -0.000005427541
 74       0.000006655637
 75      -0.000105111215
 76       0.002172641273
 77      -0.009971849906
 78      -0.000000588676
 79      -0.000010758081
 80      -0.000011179739
 81       0.000000580042
 82       0.000032010173
 83       0.000035632443
 84       0.000102297248
 85       0.000265172423
 86       0.000058197687
 87      -0.001239559460
 88      -0.005246713009
 89      -0.002585168588
 90       0.000020774098
 91      -0.000018290577
 92      -0.000055285579
 93       0.000051546245
 94      -0.000037681610
 95      -0.000104322758
 96       0.000091163322
 97       0.000288946244
 98      -0.000268330836
 99       0.000186513477
100       0.000356505535
101      -0.000299482002
102      -0.001082269498
103       0.001000592705
104      -0.000603172152
 Sym=     1a
 Ene= -1.02227729438099E+01
 Spin= Alpha
 Occup= 1.000000
  1      -0.952382753779
  2      -0.045418206051
  3       0.039319451291
  4      -0.000273607887
  5       0.000138130549
  6       0.000948025488
  7      -0.004087926516
  8      -0.002435882597
  9       0.005811386796
 10      -0.000592272108
 11       0.000184607470
 12       0.000781853057
 13      -0.001641463476
 14      -0.000598872192
 15      -0.263094873049
 16      -0.008534631788
 17      -0.010476419180
 18      -0.000141238786
 19       0.000811549112
 20      -0.002538950421
 21       0.002284494175
 22      -0.001378398993
 23       0.005320578981
 24       0.000895342552
 25      -0.000020615867
 26      -0.000492046525
 27      -0.000222846232
 28      -0.000043892881
 29       0.004576017165
 30      -0.005715012858
 31      -0.002440035059
 32      -0.000494567094
 33       0.001118843584
 34       0.000747889115
 35      -0.001542657530
 36      -0.000410009272
 37      -0.000042859090
 38       0.000021706244
 39       0.001233624359
 40      -0.000276585311
 41       0.000402493690
 42       0.000034646933
 43       0.000067574966
 44       0.027541277149
 45       0.002221775600
 46      -0.002220493988
 47       0.001694096861
 48       0.000506506161
 49       0.001425972038
 50      -0.000104776580
 51      -0.003833399174
 52      -0.006308730256
 53      -0.000164542163
 54       0.001095953935
 55      -0.000108754178
 56       0.001125653003
 57       0.000094781887
 58      -0.000153295523
 59       0.001979362464
 60      -0.000436058198
 61       0.000158174321
 62      -0.000041324935
 63      -0.001158903729
 64      -0.000191043848
 65      -0.000344205998
 66       0.000341911999
 67      -0.000120084641
 68       0.000024945646
 69      -0.013640648885
 70      -0.000434108825
 71      -0.000055248574
 72      -0.000201346010
 73       0.000009825684
 74      -0.000017944018
 75       0.000169585092
 76      -0.001831607008
 77       0.006899746945
 78       0.000009191863
 79      -0.000026791270
 80      -0.000001880488
 81      -0.000030439328
 82       0.000093909447
 83       0.000007995472
 84       0.000076274978
 85      -0.000579621205
 86      -0.000138094390
 87       0.000531022758
 88       0.003955292935
 89       0.001812192214
 90      -0.000015276146
 91       0.000001946946
 92       0.000047142491
 93      -0.000048673362
 94       0.000018635518
 95       0.000070873669
 96      -0.000012517870
 97      -0.000222778405
 98       0.000227235082
 99      -0.000089348595
100      -0.000212613740
101       0.000079947829
102       0.000712796328
103      -0.000696776062
104       0.000291817867
 Sym=     1a
 Ene= -1.02217364257588E+01
 Spin= Alpha
 Occup= 1.000000
  1       0.262223617658
  2       0.016624428042
  3      -0.020266718473
  4       0.000450219484
  5      -0.000749630562
  6       0.002375228700
  7       0.001410439623
  8      -0.000270643534
  9       0.001826343762
 10       0.001555063728
 11       0.000009328365
 12      -0.001135241052
 13       0.000750725437
 14       0.000230891143
 15      -0.952414438916
 16      -0.047943705917
 17       0.032658516859
 18       0.000085178714
 19      -0.000065111742
 20       0.000215929675
 21      -0.001509324550
 22       0.000023059190
 23      -0.000907083844
 24      -0.001195114640
 25      -0.000198882783
 26       0.001386704812
 27      -0.002042937755
 28      -0.000475955633
 29      -0.001119925790
 30       0.003092381550
 31       0.000765412070
 32       0.000388396291
 33      -0.001078125592
 34       0.004616992176
 35      -0.006672680894
 36      -0.002673480293
 37       0.000125757590
 38      -0.001437798186
 39       0.004013210476
 40      -0.007614079460
 41       0.002521540580
 42       0.000745248156
 43      -0.001449736752
 44      -0.003164939568
 45      -0.000831285031
 46       0.005629116402
 47      -0.000707400078
 48      -0.000078505452
 49      -0.000271411659
 50       0.003408924715
 51       0.001191400600
 52      -0.001527594460
 53      -0.000154219174
 54      -0.000421481107
 55       0.000082424300
 56      -0.000463020126
 57       0.000052537313
 58       0.000645002521
 59       0.001202258093
 60       0.000149620166
 61      -0.000115194478
 62      -0.000043392617
 63      -0.000584656290
 64      -0.001305313854
 65      -0.000044346208
 66       0.000003896608
 67       0.000138007910
 68       0.000092850951
 69      -0.000000637114
 70       0.000057651721
 71      -0.000083603097
 72       0.000288888969
 73       0.000000821109
 74      -0.000001608300
 75       0.000013805151
 76      -0.000071707738
 77       0.000062186003
 78      -0.000002398431
 79      -0.000001317571
 80      -0.000004044519
 81       0.000008188755
 82       0.000004541288
 83       0.000013806115
 84      -0.000035087607
 85      -0.000022280517
 86      -0.000060385332
 87       0.000054056327
 88       0.000012150104
 89       0.000099766053
 90       0.000000982378
 91       0.000002524153
 92       0.000003950310
 93       0.000001698362
 94       0.000000445705
 95      -0.000003969092
 96      -0.000011131800
 97      -0.000017606578
 98      -0.000006778708
 99      -0.000001895762
100       0.000010845054
101       0.000023932454
102       0.000035991165
103       0.000016696576
104       0.000001002153
 Sym=     1a
 Ene= -8.65049298158766E+00
 Spin= Alpha
 Occup= 1.000000
  1      -0.000028230522
  2       0.000373284778
  3      -0.000629942129
  4      -0.000030380290
  5      -0.000062331321
  6      -0.000019017178
  7      -0.000179183018
  8       0.000326485074
  9      -0.000746302693
 10       0.000011433480
 11      -0.000014260121
 12      -0.000011545159
 13       0.000007425837
 14       0.000023324635
 15      -0.000009699897
 16       0.000057092199
 17       0.000921850152
 18      -0.000004569298
 19      -0.000012878712
 20      -0.000015226751
 21      -0.000004830289
 22       0.000142869463
 23      -0.000465538984
 24       0.000001286656
 25       0.000006466770
 26       0.000003588290
 27       0.000021434323
 28       0.000003941526
 29       0.000031344721
 30      -0.000010728585
 31       0.000011640033
 32      -0.000009084815
 33       0.000005151922
 34      -0.000016173415
 35       0.000019756807
 36      -0.000004359846
 37      -0.000008464588
 38       0.000013101366
 39       0.000015414386
 40      -0.000005614733
 41       0.000002397066
 42      -0.000000730749
 43       0.000006575492
 44      -0.000015334689
 45       0.000707197702
 46      -0.005211417209
 47       0.000045656129
 48       0.000060050152
 49       0.000028569366
 50      -0.000373614518
 51       0.001830442390
 52       0.001120192827
 53       0.000044583116
 54      -0.000026740748
 55      -0.000159254209
 56       0.000153717583
 57      -0.000013366038
 58       0.000019326717
 59       0.000104188928
 60      -0.000013744857
 61      -0.000004893168
 62       0.000027950127
 63       0.000191644900
 64       0.000273281674
 65       0.000042157069
 66       0.000022280558
 67      -0.000013686033
 68      -0.000483215802
 69       0.008748811988
 70       0.000090612849
 71       0.000670858907
 72       0.000343355890
 73       0.136662361067
 74      -0.516883770939
 75       1.093441216291
 76       0.032424922254
 77      -0.014871506570
 78      -0.000186093701
 79      -0.000987368525
 80      -0.000497740186
 81       0.000434042152
 82       0.002316824802
 83       0.001166711937
 84       0.000229669673
 85       0.001031088510
 86       0.000534769617
 87      -0.000675462131
 88      -0.003065253491
 89      -0.001594122511
 90      -0.000235757354
 91       0.000130399932
 92       0.000756597880
 93      -0.000731268209
 94       0.000260812654
 95      -0.000200734080
 96       0.000125052967
 97       0.000643632470
 98      -0.000614069818
 99       0.000239106250
100       0.000110599670
101      -0.000089616539
102      -0.000376719660
103       0.000344216202
104      -0.000165200773
 Sym=     1a
 Ene= -6.48432154868242E+00
 Spin= Alpha
 Occup= 1.000000
  1       0.000013247369
  2      -0.000212524550
  3       0.000477713456
  4       0.000015765257
  5       0.000034741837
  6       0.000008649641
  7      -0.000014126425
  8      -0.000204814944
  9       0.000305750136
 10      -0.000004087465
 11       0.000011022019
 12       0.000008488095
 13      -0.000001153417
 14      -0.000006967453
 15       0.000005788576