[Molden Format]
[Title]
 Molden file created by orca_2mkl for BaseName=radical_024

[Atoms] AU
C    1   6          1.1730550565         0.9100146273         0.3516893719 
C    2   6          1.3228801033         0.0870407857         2.8258019744 
H    3   1          2.9462020955         1.3369434452        -0.6411368341 
H    4   1          3.1327048369        -0.0620642754         3.8068873119 
H    5   1         -0.3855098005        -0.4143243446         3.8818055044 
C    6   6         -1.0752333832         1.2064597454        -0.9935102868 
H    7   1         -2.9030936630         0.8424002263        -0.0912851106 
H    8   1         -1.0994691209         2.0222639660        -2.8903058862 
H    9   1         -1.2827876737        -1.9439159205        -2.5556618441 
Br  10  35         -1.8459959815        -4.3203693661        -3.8562866427 
[GTO]
  1 0
s   5 1.0 
     1238.4016938000         0.8208956682
      186.2900499200         1.4766449896
       42.2511763460         2.1526124058
       11.6765579320         2.1081722461
        3.5930506482         0.8290999933
s   1 1.0 
        0.4024514736         0.3601183351
s   1 1.0 
        0.1309018267         0.1551027052
p   3 1.0 
        9.4680970621         1.3467645142
        2.0103545142         1.0678070931
        0.5477100471         0.5108735714
p   1 1.0 
        0.1526861379         0.1360471976
d   1 1.0 
        0.8000000000         1.9292013661

  2 0
s   5 1.0 
     1238.4016938000         0.8208956682
      186.2900499200         1.4766449896
       42.2511763460         2.1526124058
       11.6765579320         2.1081722461
        3.5930506482         0.8290999933
s   1 1.0 
        0.4024514736         0.3601183351
s   1 1.0 
        0.1309018267         0.1551027052
p   3 1.0 
        9.4680970621         1.3467645142
        2.0103545142         1.0678070931
        0.5477100471         0.5108735714
p   1 1.0 
        0.1526861379         0.1360471976
d   1 1.0 
        0.8000000000         1.9292013661

  3 0
s   3 1.0 
       13.0107010000         0.1634903809
        1.9622572000         0.2773515510
        0.4445379600         0.3157501452
s   1 1.0 
        0.1219496200         0.1470772262
p   1 1.0 
        0.8000000000         1.0784563492

  4 0
s   3 1.0 
       13.0107010000         0.1634903809
        1.9622572000         0.2773515510
        0.4445379600         0.3157501452
s   1 1.0 
        0.1219496200         0.1470772262
p   1 1.0 
        0.8000000000         1.0784563492

  5 0
s   3 1.0 
       13.0107010000         0.1634903809
        1.9622572000         0.2773515510
        0.4445379600         0.3157501452
s   1 1.0 
        0.1219496200         0.1470772262
p   1 1.0 
        0.8000000000         1.0784563492

  6 0
s   5 1.0 
     1238.4016938000         0.8208956682
      186.2900499200         1.4766449896
       42.2511763460         2.1526124058
       11.6765579320         2.1081722461
        3.5930506482         0.8290999933
s   1 1.0 
        0.4024514736         0.3601183351
s   1 1.0 
        0.1309018267         0.1551027052
p   3 1.0 
        9.4680970621         1.3467645142
        2.0103545142         1.0678070931
        0.5477100471         0.5108735714
p   1 1.0 
        0.1526861379         0.1360471976
d   1 1.0 
        0.8000000000         1.9292013661

  7 0
s   3 1.0 
       13.0107010000         0.1634903809
        1.9622572000         0.2773515510
        0.4445379600         0.3157501452
s   1 1.0 
        0.1219496200         0.1470772262
p   1 1.0 
        0.8000000000         1.0784563492

  8 0
s   3 1.0 
       13.0107010000         0.1634903809
        1.9622572000         0.2773515510
        0.4445379600         0.3157501452
s   1 1.0 
        0.1219496200         0.1470772262
p   1 1.0 
        0.8000000000         1.0784563492

  9 0
s   3 1.0 
       13.0107010000         0.1634903809
        1.9622572000         0.2773515510
        0.4445379600         0.3157501452
s   1 1.0 
        0.1219496200         0.1470772262
p   1 1.0 
        0.8000000000         1.0784563492

 10 0
s   6 1.0 
   113286.3877600000         7.5076141183
    17009.6263030000        13.8835270484
     3870.1842567000        22.7307285566
     1093.0357227000        30.8227297499
      356.3972179700        27.2481937511
      123.1253964300         9.6953381145
s   3 1.0 
      236.7408400700        -4.7631125758
       28.4686610700         5.6113863182
       11.8834437220         1.9900291396
s   3 1.0 
       21.2696333120        -1.5429794477
        3.6129226841         1.3310800628
        1.6626648969         0.4300130345
s   1 1.0 
        0.3482379323         0.3230852630
s   1 1.0 
        0.1301903139         0.1544699827
p   5 1.0 
     1560.2801881000       115.0180051576
      368.4785920500       143.9035925417
      117.2297884900       137.5255986684
       42.6489092480        78.9578527439
       16.0872250960        15.8580577654
p   3 1.0 
        8.6352810058         6.8437546680
        3.5613665502         3.7974971038
        1.5292626609         0.5585414278
p   1 1.0 
        0.5306429485         0.6455696201
p   1 1.0 
        0.1570275896         0.1408996918
d   4 1.0 
      104.8551864200       261.4493931636
       30.2811436880       176.6993802449
       10.6513942670        76.9545600188
        3.8699456233        17.5937671387
d   1 1.0 
        1.3240876762         4.6593398042
d   1 1.0 
        0.3890000000         0.5462379705

[5D]
[7F]
[9G]
[MO]
 Sym=     1a
 Ene= -4.82764828403450E+02
 Spin= Alpha
 Occup= 1.000000
  1       0.000005603326
  2      -0.000070380951
  3       0.000084735524
  4       0.000007373997
  5       0.000016460620
  6       0.000006552085
  7       0.000051699748
  8      -0.000064643943
  9       0.000144916009
 10      -0.000001959362
 11       0.000001971575
 12      -0.000001250492
 13      -0.000000510027
 14      -0.000007298297
 15       0.000001165754
 16      -0.000004743960
 17      -0.000178669005
 18      -0.000000864912
 19       0.000002687464
 20       0.000001870815
 21       0.000016378313
 22      -0.000029482991
 23       0.000095956139
 24      -0.000001511264
 25      -0.000000113634
 26      -0.000000436296
 27      -0.000005185648
 28      -0.000001510593
 29      -0.000005638726
 30      -0.000003091926
 31      -0.000002209180
 32       0.000004431991
 33      -0.000001047762
 34       0.000000072197
 35      -0.000011991188
 36       0.000001945672
 37       0.000001672569
 38      -0.000002566341
 39       0.000001039361
 40       0.000005966976
 41      -0.000000830131
 42       0.000001222781
 43      -0.000002912681
 44       0.000007699248
 45      -0.000151311024
 46       0.000659640805
 47      -0.000008477534
 48       0.000019678179
 49       0.000004842637
 50       0.000070827135
 51      -0.000228255236
 52      -0.000115006146
 53      -0.000002838804
 54       0.000002625931
 55       0.000013098599
 56      -0.000010619789
 57       0.000003221049
 58      -0.000024597028
 59      -0.000039842578
 60      -0.000003945552
 61       0.000007053615
 62      -0.000000778411
 63      -0.000042518798
 64      -0.000062054592
 65      -0.000006810563
 66       0.000003338370
 67      -0.000000412535
 68       0.000125234485
 69      -0.001004394562
 70      -0.000025720123
 71      -0.000144373353
 72      -0.000076766205
 73      -0.994981942848
 74      -0.015688948275
 75       0.003923358793
 76      -0.002331707217
 77       0.001732963629
 78      -0.000003232665
 79      -0.000012429409
 80      -0.000006844367
 81       0.000010454318
 82       0.000039700265
 83       0.000021915262
 84      -0.000040272101
 85      -0.000152738209
 86      -0.000084316631
 87       0.000099320731
 88       0.000391550527
 89       0.000215421204
 90      -0.000001596411
 91       0.000001757452
 92       0.000006752327
 93      -0.000005703340
 94       0.000003211363
 95       0.000004896463
 96      -0.000005426020
 97      -0.000020721725
 98       0.000017486551
 99      -0.000009953815
100      -0.000004200211
101       0.000005115857
102       0.000018135268
103      -0.000015048472
104       0.000009525900
 Sym=     1a
 Ene= -6.24479506101995E+01
 Spin= Alpha
 Occup= 1.000000
  1       0.000013337194
  2      -0.000169636613
  3       0.000197756424
  4       0.000017795047
  5       0.000039163162
  6       0.000015862029
  7       0.000127033598
  8      -0.000155942793
  9       0.000345217936
 10      -0.000004726466
 11       0.000004521366
 12      -0.000002521014
 13      -0.000001652944
 14      -0.000017055846
 15       0.000002777072
 16      -0.000011759921
 17      -0.000424589427
 18      -0.000001940642
 19       0.000006490264
 20       0.000004559850
 21       0.000037387047
 22      -0.000070097082
 23       0.000228144620
 24      -0.000003524865
 25      -0.000000328493
 26      -0.000001091554
 27      -0.000012185734
 28      -0.000003456681
 29      -0.000014075878
 30      -0.000008009450
 31      -0.000005254761
 32       0.000010483456
 33      -0.000002451128
 34       0.000000383448
 35      -0.000028208342
 36       0.000004541497
 37       0.000003915165
 38      -0.000005979135
 39       0.000001914338
 40       0.000014080942
 41      -0.000001940269
 42       0.000002812350
 43      -0.000006809003
 44       0.000018199058
 45      -0.000363573069
 46       0.001604186497
 47      -0.000020391611
 48       0.000046021101
 49       0.000011175509
 50       0.000170376906
 51      -0.000552585445
 52      -0.000276962718
 53      -0.000006772199
 54       0.000006321983
 55       0.000031032307
 56      -0.000025127837
 57       0.000007446606
 58      -0.000058149260
 59      -0.000100073937
 60      -0.000009978321
 61       0.000015960222
 62      -0.000002017358
 63      -0.000101234860
 64      -0.000151666502
 65      -0.000016355147
 66       0.000007289665
 67      -0.000001853494
 68       0.000328523329
 69      -0.002475004341
 70      -0.000064915587
 71      -0.000359867035
 72      -0.000191643126
 73      -0.347186528177
 74       1.046957943439
 75       0.018589996256
 76      -0.006308299511
 77       0.004407270657
 78       0.000079722676
 79       0.000357441649
 80       0.000191626051
 81       0.000035057125
 82       0.000138599973
 83       0.000076084933
 84      -0.000102091975
 85      -0.000390932765
 86      -0.000215713006
 87       0.000244027303
 88       0.000964709244
 89       0.000530771016
 90      -0.000011499122
 91       0.000010402977
 92       0.000045977172
 93      -0.000040231155
 94       0.000019518965
 95       0.000013649178
 96      -0.000014498047
 97      -0.000056882336
 98       0.000048431573
 99      -0.000026217661
100      -0.000009232515
101       0.000011514775
102       0.000040075941
103      -0.000033131497
104       0.000020818763
 Sym=     1a
 Ene= -5.62797148213146E+01
 Spin= Alpha
 Occup= 1.000000
  1      -0.000014670761
  2       0.000183110892
  3      -0.000110827103
  4      -0.000020051997
  5      -0.000043984264
  6      -0.000017922532
  7      -0.000172171533
  8       0.000177575030
  9      -0.000410084439
 10       0.000006330598
 11      -0.000003895579
 12       0.000003253115
 13       0.000002568557
 14       0.000020369987
 15      -0.000003314132
 16       0.000017366732
 17       0.000452217582
 18       0.000002646108
 19      -0.000007716489
 20      -0.000005203331
 21      -0.000041134215
 22       0.000079217403
 23      -0.000248700001
 24       0.000003829001
 25      -0.000000738371
 26       0.000001016457
 27       0.000013479931
 28       0.000003947659
 29       0.000013185498
 30      -0.000002661255
 31       0.000006974797
 32      -0.000011169499
 33       0.000003996875
 34       0.000001156440
 35       0.000036562543
 36      -0.000005465421
 37      -0.000004308716
 38       0.000005175193
 39      -0.000000995328
 40      -0.000015496836
 41       0.000001613504
 42      -0.000003461988
 43       0.000007685992
 44      -0.000015766298
 45       0.000393413601
 46      -0.001879970858
 47       0.000028530867
 48      -0.000036448991
 49      -0.000002853979
 50      -0.000253820563
 51       0.000628994426
 52       0.000296349480
 53       0.000010702130
 54      -0.000008595955
 55      -0.000048353671
 56       0.000042643540
 57      -0.000008427903
 58       0.000058686171
 59       0.000101774983
 60       0.000014492877
 61      -0.000024506543
 62       0.000002640242
 63       0.000114110399
 64       0.000178177435
 65       0.000024356312
 66      -0.000015757107
 67       0.000003536676
 68      -0.000604008839
 69       0.002864148868
 70       0.000180894036
 71       0.000854757119
 72       0.000461958383
 73      -0.000179775582
 74       0.000535431322
 75      -0.000272303676
 76       0.001007034424
 77      -0.001979107417
 78      -0.171983536681
 79      -0.863172112367
 80      -0.454790139812
 81      -0.004159920656
 82      -0.020826679978
 83      -0.010977774764
 84       0.001147960615
 85       0.005592363130
 86       0.002960902967
 87      -0.000626817668
 88      -0.002861891111
 89      -0.001532042267
 90       0.000011700887
 91      -0.000010883501
 92      -0.000046693243
 93       0.000040877349
 94      -0.000019954690
 95      -0.000007677920
 96       0.000008899089
 97       0.000031769549
 98      -0.000026702139
 99       0.000015679637
100      -0.000034527255
101       0.000031223255
102       0.000141989879
103      -0.000123940277
104       0.000057509635
 Sym=     1a
 Ene= -5.62775582681342E+01
 Spin= Alpha
 Occup= 1.000000
  1      -0.000000745343
  2       0.000011876104
  3      -0.000134253999
  4      -0.000002805098
  5      -0.000008601315
  6       0.000003392455
  7       0.000066549643
  8       0.000110302949
  9      -0.000116030925
 10      -0.000000640670
 11       0.000000388857
 12       0.000000731057
 13      -0.000004012002
 14      -0.000005169625
 15      -0.000000282927
 16       0.000004794627
 17       0.000187544538
 18      -0.000006587647
 19       0.000009596599
 20      -0.000002080820
 21       0.000024472497
 22      -0.000025208733
 23      -0.000051086788
 24       0.000000637214
 25       0.000002680291
 26       0.000002699066
 27       0.000002644058
 28      -0.000001038201
 29      -0.000010327148
 30      -0.000048253723
 31       0.000001873140
 32      -0.000006735889
 33      -0.000002739489
 34      -0.000012735874
 35      -0.000034199408
 36       0.000001998295
 37       0.000004324810
 38       0.000006061734
 39       0.000002582088
 40      -0.000030864472
 41       0.000000646342
 42       0.000003897729
 43       0.000006640469
 44       0.000003676316
 45      -0.000056827713
 46       0.000182164104
 47       0.000015826406
 48       0.000024486181
 49      -0.000010214473
 50      -0.000074897080
 51      -0.000153369668
 52       0.000057304667
 53      -0.000006077235
 54      -0.000004654152
 55       0.000001736571
 56       0.000001542556
 57       0.000002894960
 58      -0.000115631601
 59       0.000113338086
 60       0.000013518732
 61       0.000004343469
 62      -0.000013928708
 63       0.000056541365
 64      -0.000093129479
 65       0.000011392449
 66       0.000020584464
 67      -0.000006082820
 68       0.000002027482
 69      -0.000213594405
 70       0.000021052871
 71      -0.000005746994
 72      -0.000023035167
 73       0.000001919792
 74      -0.000005506940
 75       0.000006192122
 76      -0.000042049888
 77       0.000137526397
 78       0.673567891649
 79       0.229092411226
 80      -0.689529175247
 81       0.016089865434
 82       0.005475064457
 83      -0.016467342562
 84      -0.003893810025
 85      -0.001336321501
 86       0.003970139562
 87       0.001445568633
 88       0.000555849688
 89      -0.001416013228
 90      -0.000020901066
 91       0.000007250530
 92      -0.000016734814
 93      -0.000003631389
 94       0.000023783649
 95       0.000007680514
 96      -0.000004680162
 97       0.000001276796
 98       0.000005317081
 99      -0.000010181791
100      -0.000003485036
101       0.000005265761
102       0.000009778917
103      -0.000010633066
104       0.000007186612
 Sym=     1a
 Ene= -5.62775363708626E+01
 Spin= Alpha
 Occup= 1.000000
  1       0.000009245106
  2      -0.000102038215
  3       0.000387388429
  4       0.000021283508
  5       0.000031100484
  6       0.000021162470
  7      -0.000203136204
  8      -0.000154814246
  9      -0.000110498858
 10       0.000009070533
 11       0.000006616952
 12      -0.000005310893
 13       0.000011542568
 14       0.000010046912
 15       0.000000598420
 16       0.000007638215
 17      -0.000121307310
 18      -0.000001233673
 19       0.000004729776
 20       0.000003174516
 21       0.000110929912
 22       0.000039789291
 23       0.000048118459
 24      -0.000004420315
 25      -0.000003079011
 26      -0.000007502229
 27      -0.000004895630
 28       0.000002457688
 29      -0.000004511679
 30       0.000020556670
 31       0.000003276899
 32       0.000018865957
 33       0.000018803976
 34      -0.000010375926
 35      -0.000032770037
 36      -0.000000528278
 37      -0.000002151868
 38      -0.000003514747
 39       0.000013639068
 40       0.000070784255
 41       0.000001403603
 42      -0.000001660475
 43      -0.000006575720
 44      -0.000002522030
 45       0.000062255862
 46      -0.000481306489
 47      -0.000024764771
 48      -0.000027335402
 49      -0.000036520266
 50      -0.000008327799
 51       0.000222602219
 52       0.000105794729
 53      -0.000005364536
 54       0.000007601148
 55       0.000000963784
 56       0.000007063365
 57       0.000000194867
 58       0.000061278165
 59      -0.000017149620
 60      -0.000011820779
 61      -0.000012069980
 62      -0.000017858202
 63       0.000100058550
 64      -0.000079769854
 65      -0.000010315066
 66      -0.000006255271
 67      -0.000014828087
 68      -0.000005182801
 69       0.000393024200
 70      -0.000024073730
 71       0.000053859848
 72       0.000001682404
 73      -0.000004405396
 74       0.000012691921
 75      -0.000014093748
 76       0.000079729281
 77      -0.000245633559
 78      -0.705937670600
 79       0.428915452911
 80      -0.547092497742
 81      -0.016865161149
 82       0.010236417316
 83      -0.013072408919
 84       0.004088640324
 85      -0.002444109670
 86       0.003176908668
 87      -0.001532658695
 88       0.000781273322
 89      -0.001228574918
 90      -0.000015213149
 91      -0.000016974894
 92      -0.000012483605
 93      -0.000017083168
 94      -0.000020732697
 95       0.000003471728
 96       0.000008318573
 97       0.000011181351
 98       0.000000733515
 99       0.000010922291
100       0.000002345163
101      -0.000005866829
102      -0.000014280147
103       0.000009038875
104      -0.000008574659
 Sym=     1a
 Ene= -1.02161613768113E+01
 Spin= Alpha
 Occup= 1.000000
  1       0.121445625111
  2       0.003315053114
  3       0.003960201140
  4       0.001879019895
  5      -0.000682279073
  6       0.001159679823
  7       0.000626937177
  8       0.001273071245
  9      -0.004510772463
 10       0.000129091337
 11      -0.001106769506
 12       0.000339380945
 13      -0.001017651116
 14       0.000426635543
 15       0.022637340055
 16       0.000394090534
 17       0.004520129125
 18       0.000264717080
 19      -0.000090063902
 20       0.000149572820
 21      -0.004850812309
 22       0.000517376019
 23      -0.002424510174
 24       0.000064418244
 25       0.000051426741
 26      -0.000083844846
 27       0.000219418177
 28       0.000051255866
 29      -0.000819962097
 30      -0.000681484538
 31      -0.000223550728
 32       0.000025096553
 33      -0.000277518143
 34       0.000702423501
 35       0.001987289169
 36       0.000021545204
 37      -0.000008247355
 38      -0.000053664271
 39      -0.000974175344
 40      -0.001730020880
 41      -0.000022582310
 42      -0.000070092201
 43       0.000110901453
 44       0.980141393239
 45       0.051788481621
 46      -0.044352478826
 47      -0.000687903803
 48      -0.000776945029
 49      -0.000732439459
 50      -0.002038788052
 51       0.005745032617
 52       0.002036592422
 53       0.000805581380
 54      -0.000197104157
 55      -0.001427366030
 56       0.001443415979
 57       0.000138391683
 58      -0.003047445307
 59       0.007492330773
 60      -0.002399691796
 61      -0.000925123351
 62       0.001384657686
 63      -0.003061397199
 64       0.007853525184
 65       0.000271441578
 66       0.000908192685
 67      -0.002845689169
 68       0.000945438198
 69       0.015153603422
 70      -0.000038704299
 71      -0.000039445173
 72       0.000067644558
 73      -0.000010816512
 74       0.000019258010
 75      -0.000188452985
 76       0.002246700035
 77      -0.009253220833
 78       0.000005786940
 79       0.000013127341
 80       0.000003672243
 81      -0.000020716968
 82      -0.000048221543
 83      -0.000014525887
 84       0.000158102961
 85       0.000468918882
 86       0.000211302459
 87      -0.001235547731
 88      -0.004768136607
 89      -0.002543526012
 90       0.000014249830
 91      -0.000017183464
 92      -0.000056031534
 93       0.000046699140
 94      -0.000032732941
 95      -0.000068336311
 96       0.000081996664
 97       0.000272334563
 98      -0.000227025845
 99       0.000155551831
100       0.000229236127
101      -0.000262001866
102      -0.000938503941
103       0.000788868987
104      -0.000491222962
 Sym=     1a
 Ene= -1.02145137663310E+01
 Spin= Alpha
 Occup= 1.000000
  1       0.751301762229
  2       0.034461131706
  3      -0.027741328132
  4      -0.000168348892
  5       0.000354582128
  6      -0.001913054766
  7       0.002854684629
  8       0.002464120404
  9      -0.006100224563
 10      -0.000266597502
 11      -0.000027331597
 12      -0.000298205116
 13       0.001404071703
 14       0.000255514482
 15       0.633533214616
 16       0.027912149556
 17      -0.004559813556
 18       0.000072605533
 19      -0.000738917049
 20       0.002159936786
 21      -0.000749021819
 22       0.001361001903
 23      -0.004293728146
 24      -0.000466786432
 25       0.000095552895
 26      -0.000037316841
 27       0.001039536117
 28       0.000184031029
 29      -0.003686632232
 30       0.003962245383
 31       0.001973036196
 32       0.000235216808
 33      -0.000568910203
 34      -0.002760473668
 35       0.003931313537
 36       0.001500736714
 37      -0.000058524554
 38       0.000607637386
 39      -0.002677578754
 40       0.003765346103
 41      -0.001404959773
 42      -0.000313645101
 43       0.000566136501
 44      -0.107051012880
 45      -0.006982682533
 46       0.007388431852
 47      -0.001331921995
 48      -0.000166412644
 49      -0.001132571152
 50      -0.001551200631
 51       0.000712116504
 52       0.005642324209
 53       0.000058913463
 54      -0.000684362063
 55       0.000336284824
 56      -0.001049590554
 57       0.000033572017
 58       0.000150936042
 59      -0.003377434167
 60       0.000611181164
 61      -0.000019114235
 62      -0.000100369741
 63       0.001754828807
 64       0.000024075422
 65       0.000324766444
 66      -0.000289998051
 67       0.000477223480
 68      -0.000394368618
 69       0.007854894041
 70       0.000183982124
 71      -0.000175005006
 72      -0.000058046314
 73      -0.000008457211
 74       0.000015420548
 75      -0.000146101503
 76       0.001474148633
 77      -0.005243940064
 78      -0.000004136363
 79       0.000023570963
 80       0.000004508857
 81       0.000013308085
 82      -0.000082473166
 83      -0.000016723944
 84      -0.000004667861
 85       0.000506764256
 86       0.000164788866
 87      -0.000536640143
 88      -0.002967781183
 89      -0.001457196057
 90       0.000011376484
 91      -0.000006341069
 92      -0.000041326663
 93       0.000037911192
 94      -0.000018223148
 95      -0.000053437217
 96       0.000032547932
 97       0.000196698848
 98      -0.000178794769
 99       0.000088314366
100       0.000156557818
101      -0.000120252784
102      -0.000603886922
103       0.000535057970
104      -0.000278499336
 Sym=     1a
 Ene= -1.02140884751135E+01
 Spin= Alpha
 Occup= 1.000000
  1      -0.630385892092
  2      -0.033711470002
  3       0.034969240750
  4      -0.000357437399
  5       0.000658560387
  6      -0.001519294414
  7      -0.002783300038
  8      -0.000317726964
  9      -0.000007870112
 10      -0.001571781170
 11      -0.000076935396
 12       0.001544478869
 13      -0.001448615387
 14      -0.000234747634
 15       0.757889580649
 16       0.039968496245
 17      -0.033084416005
 18      -0.000128302976
 19       0.000429569424
 20      -0.001141887552
 21       0.001974525187
 22      -0.000739750662
 23       0.002624953188
 24       0.001371404039
 25       0.000159184098
 26      -0.001542269219
 27       0.001686599680
 28       0.000295639193
 29       0.002741410752
 30      -0.005387072987
 31      -0.001696793126
 32      -0.000535106621
 33       0.001417643690
 34      -0.003809472631
 35       0.005556790225
 36       0.002256130521
 37      -0.000191274576
 38       0.001260721007
 39      -0.003162082163
 40       0.006644230011
 41      -0.002113396234
 42      -0.000625830052
 43       0.001341668298
 44       0.060069920294
 45       0.004676014660
 46      -0.010600782806
 47       0.001453821319
 48       0.000076315720
 49       0.000783724749
 50      -0.003690494786
 51      -0.001507080665
 52      -0.000345982540
 53       0.000088056837
 54       0.000718867144
 55      -0.000371399528
 56       0.001031980763
 57      -0.000086429151
 58      -0.000991703027
 59      -0.000052840496
 60      -0.000538759612
 61       0.000020920737
 62       0.000092290707
 63      -0.000124401789
 64       0.001896584909
 65      -0.000049890394
 66       0.000188735976
 67      -0.000383895563
 68       0.000117286783
 69      -0.003509975113
 70      -0.000170944394
 71       0.000088056669
 72      -0.000200858370
 73       0.000003796558
 74      -0.000006952867
 75       0.000065491879
 76      -0.000644247072
 77       0.002325228742
 78       0.000004687940
 79      -0.000011566119
 80      -0.000000959177
 81      -0.000015569370
 82       0.000040524920
 83       0.000004016305
 84       0.000042783498
 85      -0.000234652022
 86      -0.000060299328
 87       0.000168714559
 88       0.001320785142
 89       0.000632241424
 90      -0.000004563472
 91       0.000001237558
 92       0.000018702074
 93      -0.000018606337
 94       0.000007225640
 95       0.000019987289
 96      -0.000007467172
 97      -0.000087720491
 98       0.000084543440
 99      -0.000034808713
100      -0.000052850030
101       0.000037156224
102       0.000261287036
103      -0.000233055819
104       0.000109899613
 Sym=     1a
 Ene= -8.66592757891100E+00
 Spin= Alpha
 Occup= 1.000000
  1      -0.000033841219
  2       0.000381541279
  3      -0.000443435307
  4      -0.000038874627
  5      -0.000076831934
  6      -0.000035193978
  7      -0.000267051051
  8       0.000352525800
  9      -0.000645498513
 10       0.000009669349
 11      -0.000009028362
 12      -0.000003227204
 13       0.000008477634
 14       0.000027397485
 15      -0.000008030692
 16       0.000032219866
 17       0.000830726883
 18       0.000001149231
 19      -0.000015073049
 20      -0.000011530131
 21      -0.000053204966
 22       0.000132292189
 23      -0.000445125580
 24       0.000005785477
 25       0.000002404844
 26       0.000004035950
 27       0.000022939611
 28       0.000004430321
 29       0.000042102736
 30       0.000030248841
 31       0.000009154824
 32      -0.000021015193
 33       0.000001215113
 34      -0.000004999805
 35       0.000048582428
 36      -0.000007049029
 37      -0.000007124892
 38       0.000011220967
 39       0.000004364270
 40      -0.000027636943
 41       0.000003002702
 42      -0.000003679469
 43       0.000011290963
 44      -0.000040940334
 45       0.000760496579
 46      -0.003596033593
 47       0.000042939068
 48      -0.000075600638
 49      -0.000016062574
 50      -0.000328612993
 51       0.001234689427
 52       0.000614047451
 53       0.000014538467
 54      -0.000013750434
 55      -0.000058398514
 56       0.000047075835
 57      -0.000010664125
 58       0.000099800145
 59       0.000260554229
 60       0.000024331075
 61      -0.000012565509
 62       0.000010805166
 63       0.000188537529
 64       0.000337324205
 65       0.000033239883
 66       0.000005371480
 67       0.000015723348
 68      -0.001009603044
 69       0.006486734597
 70       0.000138022513
 71       0.000755279619
 72       0.000403823040
 73       0.136659661713
 74      -0.516877362063
 75       1.093407903633
 76       0.032305878209
 77      -0.014272710859
 78      -0.000336094056
 79      -0.001464760046
 80      -0.000789710009
 81       0.000789524411
 82       0.003449274294
 83       0.001858578487
 84       0.000299774866
 85       0.001202740715
 86       0.000660314651
 87      -0.000639787599
 88      -0.002574024673
 89      -0.001414734727
 90      -0.000183910547
 91       0.000159900283
 92       0.000715486579
 93      -0.000629873998
 94       0.000298717758
 95      -0.000148332732
 96       0.000141496257
 97       0.000590762730
 98      -0.000512035431
 99       0.000252958023
100       0.000028314408
101      -0.000035600367
102      -0.000123270535
103       0.000101477399
104      -0.000058071036
 Sym=     1a
 Ene= -6.49866696200176E+00
 Spin= Alpha
 Occup= 1.000000
  1       0.000017256660
  2      -0.000223299745
  3       0.000315176490
  4       0.000023503443
  5       0.000043724572
  6       0.000020075989
  7       0.000090847734
  8      -0.000205772631
  9       0.000320126272
 10      -0.000004627499
 11       0.000005758861
 12       0.000002650601
 13      -0.000004012524
 14      -0.000013590083
 15       0.000004598979