[Molden Format]
[Title]
 Molden file created by orca_2mkl for BaseName=radical_018

[Atoms] AU
C    1   6          1.1822429050         0.8388853356         0.3271701753 
C    2   6          1.3130932117         0.0832046417         2.8070955754 
H    3   1          2.9480880422         1.2936800551        -0.6559201616 
H    4   1          3.1169445209        -0.0086927402         3.8091965572 
H    5   1         -0.3944633229        -0.4276601419         3.8568762373 
C    6   6         -1.0813560959         1.0378583797        -1.0594069268 
H    7   1         -2.8998263265         0.7762843780        -0.1131076680 
H    8   1         -1.1105126804         1.9968377009        -2.8859897517 
H    9   1         -1.2693328236        -1.7194088969        -2.4676232829 
Br  10  35         -1.8221249609        -4.2065398227        -3.7802950857 
[GTO]
  1 0
s   5 1.0 
     1238.4016938000         0.8208956682
      186.2900499200         1.4766449896
       42.2511763460         2.1526124058
       11.6765579320         2.1081722461
        3.5930506482         0.8290999933
s   1 1.0 
        0.4024514736         0.3601183351
s   1 1.0 
        0.1309018267         0.1551027052
p   3 1.0 
        9.4680970621         1.3467645142
        2.0103545142         1.0678070931
        0.5477100471         0.5108735714
p   1 1.0 
        0.1526861379         0.1360471976
d   1 1.0 
        0.8000000000         1.9292013661

  2 0
s   5 1.0 
     1238.4016938000         0.8208956682
      186.2900499200         1.4766449896
       42.2511763460         2.1526124058
       11.6765579320         2.1081722461
        3.5930506482         0.8290999933
s   1 1.0 
        0.4024514736         0.3601183351
s   1 1.0 
        0.1309018267         0.1551027052
p   3 1.0 
        9.4680970621         1.3467645142
        2.0103545142         1.0678070931
        0.5477100471         0.5108735714
p   1 1.0 
        0.1526861379         0.1360471976
d   1 1.0 
        0.8000000000         1.9292013661

  3 0
s   3 1.0 
       13.0107010000         0.1634903809
        1.9622572000         0.2773515510
        0.4445379600         0.3157501452
s   1 1.0 
        0.1219496200         0.1470772262
p   1 1.0 
        0.8000000000         1.0784563492

  4 0
s   3 1.0 
       13.0107010000         0.1634903809
        1.9622572000         0.2773515510
        0.4445379600         0.3157501452
s   1 1.0 
        0.1219496200         0.1470772262
p   1 1.0 
        0.8000000000         1.0784563492

  5 0
s   3 1.0 
       13.0107010000         0.1634903809
        1.9622572000         0.2773515510
        0.4445379600         0.3157501452
s   1 1.0 
        0.1219496200         0.1470772262
p   1 1.0 
        0.8000000000         1.0784563492

  6 0
s   5 1.0 
     1238.4016938000         0.8208956682
      186.2900499200         1.4766449896
       42.2511763460         2.1526124058
       11.6765579320         2.1081722461
        3.5930506482         0.8290999933
s   1 1.0 
        0.4024514736         0.3601183351
s   1 1.0 
        0.1309018267         0.1551027052
p   3 1.0 
        9.4680970621         1.3467645142
        2.0103545142         1.0678070931
        0.5477100471         0.5108735714
p   1 1.0 
        0.1526861379         0.1360471976
d   1 1.0 
        0.8000000000         1.9292013661

  7 0
s   3 1.0 
       13.0107010000         0.1634903809
        1.9622572000         0.2773515510
        0.4445379600         0.3157501452
s   1 1.0 
        0.1219496200         0.1470772262
p   1 1.0 
        0.8000000000         1.0784563492

  8 0
s   3 1.0 
       13.0107010000         0.1634903809
        1.9622572000         0.2773515510
        0.4445379600         0.3157501452
s   1 1.0 
        0.1219496200         0.1470772262
p   1 1.0 
        0.8000000000         1.0784563492

  9 0
s   3 1.0 
       13.0107010000         0.1634903809
        1.9622572000         0.2773515510
        0.4445379600         0.3157501452
s   1 1.0 
        0.1219496200         0.1470772262
p   1 1.0 
        0.8000000000         1.0784563492

 10 0
s   6 1.0 
   113286.3877600000         7.5076141183
    17009.6263030000        13.8835270484
     3870.1842567000        22.7307285566
     1093.0357227000        30.8227297499
      356.3972179700        27.2481937511
      123.1253964300         9.6953381145
s   3 1.0 
      236.7408400700        -4.7631125758
       28.4686610700         5.6113863182
       11.8834437220         1.9900291396
s   3 1.0 
       21.2696333120        -1.5429794477
        3.6129226841         1.3310800628
        1.6626648969         0.4300130345
s   1 1.0 
        0.3482379323         0.3230852630
s   1 1.0 
        0.1301903139         0.1544699827
p   5 1.0 
     1560.2801881000       115.0180051576
      368.4785920500       143.9035925417
      117.2297884900       137.5255986684
       42.6489092480        78.9578527439
       16.0872250960        15.8580577654
p   3 1.0 
        8.6352810058         6.8437546680
        3.5613665502         3.7974971038
        1.5292626609         0.5585414278
p   1 1.0 
        0.5306429485         0.6455696201
p   1 1.0 
        0.1570275896         0.1408996918
d   4 1.0 
      104.8551864200       261.4493931636
       30.2811436880       176.6993802449
       10.6513942670        76.9545600188
        3.8699456233        17.5937671387
d   1 1.0 
        1.3240876762         4.6593398042
d   1 1.0 
        0.3890000000         0.5462379705

[5D]
[7F]
[9G]
[MO]
 Sym=     1a
 Ene= -4.82755431993310E+02
 Spin= Alpha
 Occup= 1.000000
  1      -0.000005448226
  2       0.000075550145
  3      -0.000135065597
  4      -0.000006677946
  5      -0.000016035729
  6      -0.000005275036
  7      -0.000028273931
  8       0.000064872659
  9      -0.000143277898
 10       0.000001928441
 11      -0.000003237957
 12      -0.000000045551
 13      -0.000000366355
 14       0.000006361440
 15      -0.000001385418
 16       0.000007402309
 17       0.000189499081
 18       0.000000231573
 19      -0.000002511297
 20      -0.000002431322
 21      -0.000015202458
 22       0.000026481375
 23      -0.000097727651
 24       0.000000981388
 25       0.000001010328
 26       0.000000932000
 27       0.000005194001
 28       0.000001386524
 29       0.000005724366
 30       0.000000463034
 31       0.000001842800
 32      -0.000003553352
 33       0.000000255813
 34      -0.000001248142
 35       0.000009539273
 36      -0.000001350530
 37      -0.000001654325
 38       0.000003015242
 39      -0.000000120114
 40      -0.000006749609
 41       0.000000584085
 42      -0.000000670940
 43       0.000002368243
 44      -0.000005992358
 45       0.000150552899
 46      -0.000753684174
 47       0.000008607058
 48      -0.000006934528
 49      -0.000000949936
 50      -0.000063382580
 51       0.000276889948
 52       0.000165166070
 53       0.000006523821
 54      -0.000004087844
 55      -0.000024419056
 56       0.000022552280
 57      -0.000003294105
 58       0.000014587526
 59       0.000025280540
 60      -0.000000848979
 61      -0.000004604921
 62       0.000003245379
 63       0.000040594374
 64       0.000051780433
 65       0.000007224812
 66       0.000001488937
 67      -0.000002663491
 68      -0.000084194367
 69       0.001248943277
 70       0.000017761607
 71       0.000120912678
 72       0.000063030560
 73       0.994982078169
 74       0.015688658840
 75      -0.003920628751
 76       0.002353268678
 77      -0.001849996453
 78       0.000002844258
 79       0.000011460837
 80       0.000006014401
 81      -0.000009226558
 82      -0.000036593062
 83      -0.000019242490
 84       0.000037234888
 85       0.000147514412
 86       0.000077597904
 87      -0.000112111341
 88      -0.000468050516
 89      -0.000246708829
 90       0.000002134479
 91      -0.000001937295
 92      -0.000007803732
 93       0.000006931966
 94      -0.000003723512
 95      -0.000007257347
 96       0.000006593790
 97       0.000026510839
 98      -0.000023550695
 99       0.000012714922
100       0.000013084185
101      -0.000011977158
102      -0.000047860833
103       0.000042480285
104      -0.000023175337
 Sym=     1a
 Ene= -6.24385795593334E+01
 Spin= Alpha
 Occup= 1.000000
  1       0.000012814336
  2      -0.000179811291
  3       0.000307011947
  4       0.000015910463
  5       0.000037712054
  6       0.000012530326
  7       0.000075273768
  8      -0.000155256230
  9       0.000344558618
 10      -0.000004753686
 11       0.000007398454
 12       0.000000509996
 13       0.000000286925
 14      -0.000014969841
 15       0.000003281930
 16      -0.000018169145
 17      -0.000448873497
 18      -0.000000382273
 19       0.000005956902
 20       0.000005845903
 21       0.000032927670
 22      -0.000063280077
 23       0.000231876437
 24      -0.000002272420
 25      -0.000002327542
 26      -0.000002147134
 27      -0.000012151918
 28      -0.000003194741
 29      -0.000013918083
 30      -0.000000990311
 31      -0.000004576073
 32       0.000008242134
 33      -0.000000946903
 34       0.000003290653
 35      -0.000021977086
 36       0.000003188117
 37       0.000003850825
 38      -0.000006964129
 39      -0.000000426347
 40       0.000015089454
 41      -0.000001375826
 42       0.000001521546
 43      -0.000005515109
 44       0.000013872287
 45      -0.000360096528
 46       0.001839793782
 47      -0.000020807752
 48       0.000014825392
 49       0.000001564613
 50       0.000156464560
 51      -0.000668916181
 52      -0.000396103080
 53      -0.000015516078
 54       0.000009728273
 55       0.000058245244
 56      -0.000053903778
 57       0.000007604740
 58      -0.000034020111
 59      -0.000065798235
 60       0.000001146384
 61       0.000010618009
 62      -0.000007635786
 63      -0.000097165034
 64      -0.000128152278
 65      -0.000017544119
 66      -0.000003573612
 67       0.000005346007
 68       0.000227136798
 69      -0.003054766029
 70      -0.000046623677
 71      -0.000308280786
 72      -0.000160749239
 73      -0.347187010798
 74       1.046958750151
 75       0.018583765920
 76      -0.006357897062
 77       0.004680537177
 78       0.000065224898
 79       0.000320852128
 80       0.000164853614
 81       0.000030245825
 82       0.000126069364
 83       0.000066103605
 84      -0.000093801776
 85      -0.000375844632
 86      -0.000197861318
 87       0.000273282933
 88       0.001143697673
 89       0.000603039308
 90      -0.000013699767
 91       0.000010286764
 92       0.000048545273
 93      -0.000044452659
 94       0.000019946300
 95       0.000019423925
 96      -0.000017076424
 97      -0.000070192055
 98       0.000062741840
 99      -0.000032319792
100      -0.000030166104
101       0.000027770156
102       0.000109951425
103      -0.000097526101
104       0.000052903935
 Sym=     1a
 Ene= -5.62705431507895E+01
 Spin= Alpha
 Occup= 1.000000
  1      -0.000013122852
  2       0.000192205735
  3      -0.000297180306
  4      -0.000014257225
  5      -0.000042338868
  6      -0.000011353298
  7      -0.000080363493
  8       0.000178674825
  9      -0.000379499092
 10       0.000005343113
 11      -0.000009788960
 12       0.000000450705
 13      -0.000003487339
 14       0.000015887067
 15      -0.000004230488
 16       0.000028351790
 17       0.000466247579
 18      -0.000000130042
 19      -0.000007290665
 20      -0.000008143600
 21      -0.000031505385
 22       0.000068123807
 23      -0.000241727193
 24       0.000002337558
 25       0.000002359631
 26       0.000002700083
 27       0.000013046158
 28       0.000003001195
 29       0.000015273816
 30      -0.000010560671
 31       0.000004888928
 32      -0.000008885910
 33       0.000001113594
 34      -0.000003980957
 35       0.000024755777
 36      -0.000003009726
 37      -0.000004358848
 38       0.000006712264
 39       0.000003417353
 40      -0.000015849633
 41       0.000000453480
 42      -0.000001558729
 43       0.000005137470
 44      -0.000004415433
 45       0.000344241297
 46      -0.001976799951
 47       0.000027390919
 48       0.000028589939
 49       0.000020675728
 50      -0.000223460466
 51       0.000732766793
 52       0.000438324978
 53       0.000028437728
 54      -0.000014232892
 55      -0.000106060634
 56       0.000102393405
 57      -0.000008817412
 58       0.000012565723
 59       0.000031490999
 60      -0.000006756920
 61      -0.000016903668
 62       0.000013108488
 63       0.000093783237
 64       0.000127297152
 65       0.000025254009
 66       0.000002266650
 67      -0.000011224182
 68      -0.000402625444
 69       0.003521660905
 70       0.000142809248
 71       0.000751163899
 72       0.000393539381
 73      -0.000159865163
 74       0.000475895587
 75      -0.000246313198
 76       0.001037192957
 77      -0.002321082290
 78      -0.157751797527
 79      -0.870614483547
 80      -0.445688573481
 81      -0.003812167663
 82      -0.020984407565
 83      -0.010744923079
 84       0.001045601752
 85       0.005584389394
 86       0.002866935293
 87      -0.000636079136
 88      -0.003112197049
 89      -0.001612389148
 90       0.000012402090
 91      -0.000009651760
 92      -0.000043935412
 93       0.000040222820
 94      -0.000018403418
 95      -0.000013292914
 96       0.000012056129
 97       0.000046957067
 98      -0.000041929071
 99       0.000022652901
100      -0.000004711367
101       0.000001252003
102       0.000020337998
103      -0.000019498082
104       0.000002105942
 Sym=     1a
 Ene= -5.62681536422454E+01
 Spin= Alpha
 Occup= 1.000000
  1       0.000001090139
  2      -0.000014011846
  3       0.000151622903
  4       0.000004203735
  5       0.000011092578
  6      -0.000007607554
  7      -0.000079493398
  8      -0.000163303160
  9       0.000236763528
 10       0.000001008047
 11      -0.000000894557
 12      -0.000000361374
 13       0.000004510387
 14       0.000007200406
 15       0.000001106956
 16      -0.000015720497
 17      -0.000290438961
 18       0.000009477413
 19      -0.000010791461
 20       0.000005674013
 21      -0.000045009716
 22       0.000018968553
 23       0.000087647303
 24      -0.000000501641
 25      -0.000003735428
 26      -0.000003795360
 27      -0.000002545331
 28       0.000001622178
 29       0.000024242197
 30       0.000082240403
 31      -0.000005231577
 32       0.000009371385
 33       0.000000201031
 34       0.000018608653
 35       0.000048490118
 36      -0.000002267292
 37      -0.000004709061
 38      -0.000007986119
 39      -0.000005806947
 40       0.000028231940
 41      -0.000001158828
 42      -0.000004721598
 43      -0.000007275247
 44      -0.000004575133
 45       0.000077595758
 46      -0.000234603368
 47      -0.000021677387
 48      -0.000029839355
 49       0.000014751002
 50       0.000180609155
 51       0.000258863300
 52      -0.000130973858
 53       0.000011230498
 54       0.000008514736
 55      -0.000010279148
 56      -0.000001564469
 57      -0.000004313192
 58       0.000151638544
 59      -0.000058716346
 60      -0.000008855799
 61      -0.000006892124
 62       0.000014811040
 63      -0.000079051135
 64       0.000022292453
 65      -0.000020067035
 66      -0.000016995636
 67      -0.000002364404
 68       0.000001482515
 69       0.000368512294
 70      -0.000011261351
 71       0.000013474836
 72       0.000015986684
 73      -0.000002619956
 74       0.000007490762
 75      -0.000008909649
 76       0.000063549544
 77      -0.000215487183
 78      -0.702252921786
 79      -0.213443721978
 80       0.665514186200
 81      -0.016776573391
 82      -0.005102952285
 83       0.015893993172
 84       0.004066018511
 85       0.001253548778
 86      -0.003832311062
 87      -0.001526102604
 88      -0.000567447759
 89       0.001352422721
 90       0.000018195850
 91      -0.000007476220
 92       0.000014467022
 93       0.000003678020
 94      -0.000023063598
 95      -0.000009871469
 96       0.000006387013
 97      -0.000000716778
 98      -0.000007287953
 99       0.000014308187
100       0.000010894496
101      -0.000009526843
102      -0.000011272733
103       0.000016779745
104      -0.000017837228
 Sym=     1a
 Ene= -5.62681376579116E+01
 Spin= Alpha
 Occup= 1.000000
  1      -0.000011020020
  2       0.000115514451
  3      -0.000289944394
  4      -0.000023110556
  5      -0.000036168195
  6      -0.000026318933
  7       0.000112546211
  8       0.000167056294
  9       0.000091307170
 10      -0.000009562546
 11      -0.000004503226
 12       0.000005306450
 13      -0.000008865118
 14      -0.000009635392
 15      -0.000000340406
 16      -0.000013515072
 17       0.000124871193
 18       0.000003310172
 19      -0.000006554155
 20      -0.000001190290
 21      -0.000108905956
 22      -0.000038523014
 23      -0.000069039481
 24       0.000005406319
 25       0.000001754303
 26       0.000007639926
 27       0.000006304314
 28      -0.000001485405
 29       0.000011869007
 30      -0.000000431528
 31      -0.000002396350
 32      -0.000021843078
 33      -0.000017127560
 34       0.000012440425
 35       0.000041402494
 36      -0.000001139798
 37       0.000002031938
 38       0.000003196125
 39      -0.000014491225
 40      -0.000061411691
 41      -0.000000833479
 42       0.000001502181
 43       0.000007090895
 44       0.000000392035
 45      -0.000042872328
 46       0.000389439230
 47       0.000028968748
 48       0.000017115391
 49       0.000040389811
 50      -0.000060917768
 51      -0.000191293247
 52      -0.000214064456
 53       0.000006822358
 54      -0.000007492498
 55       0.000001677711
 56      -0.000014799128
 57       0.000000283239
 58      -0.000044596317
 59       0.000025486104
 60       0.000019008031
 61       0.000007222872
 62       0.000026127012
 63      -0.000111254097
 64       0.000048728293
 65       0.000016730243
 66       0.000006340776
 67       0.000012379468
 68      -0.000010228698
 69      -0.000419471673
 70       0.000011242417
 71      -0.000043952464
 72      -0.000009551552
 73       0.000003254965
 74      -0.000009287234
 75       0.000012277802
 76      -0.000072928371
 77       0.000236441121
 78       0.680863829975
 79      -0.421898697575
 80       0.583139659372
 81       0.016266856817
 82      -0.010070688289
 83       0.013933158411
 84      -0.003946590672
 85       0.002410620887
 86      -0.003384424762
 87       0.001486570564
 88      -0.000775319115
 89       0.001306150233
 90       0.000014465626
 91       0.000014772670
 92       0.000012694540
 93       0.000015214323
 94       0.000018760722
 95      -0.000005346919
 96      -0.000009419234
 97      -0.000011337778
 98      -0.000003221264
 99      -0.000012581127
100       0.000001880437
101       0.000010681965
102       0.000016923230
103      -0.000003918844
104       0.000014910347
 Sym=     1a
 Ene= -1.02216940778125E+01
 Spin= Alpha
 Occup= 1.000000
  1      -0.068989991700
  2      -0.001230839256
  3      -0.004745355010
  4      -0.001768464517
  5       0.000595989532
  6      -0.001184844846
  7      -0.000635387894
  8      -0.001363976790
  9       0.004886634216
 10      -0.000070536473
 11       0.001191721383
 12      -0.000306742338
 13       0.001129174894
 14      -0.000306276241
 15      -0.011617338507
 16      -0.000070441245
 17      -0.005057759652
 18      -0.000258602690
 19       0.000036277860
 20      -0.000021359933
 21       0.004853656695
 22      -0.000386109258
 23       0.002741403286
 24      -0.000130163129
 25      -0.000044747858
 26       0.000108939027
 27      -0.000229161758
 28      -0.000074646589
 29       0.000615997111
 30       0.001063878035
 31       0.000317257186
 32       0.000018744361
 33       0.000212692925
 34      -0.000732886965
 35      -0.001951206946
 36       0.000003295408
 37       0.000013810462
 38       0.000028560553
 39       0.000941549539
 40       0.001792827366
 41       0.000008588631
 42       0.000069237037
 43      -0.000126990543
 44      -0.985329166393
 45      -0.052764800897
 46       0.048160102921
 47       0.000624605687
 48       0.000504389955
 49       0.000598444129
 50       0.002092345511
 51      -0.006449345367
 52      -0.002602950762
 53      -0.000725222226
 54       0.000246838462
 55       0.001485478901
 56      -0.001389907911
 57      -0.000070006794
 58       0.003059566500
 59      -0.007514167899
 60       0.002464717983
 61       0.000704834249
 62      -0.001484571743
 63       0.003005018581
 64      -0.007962015228
 65      -0.000244489934
 66      -0.001214987337
 67       0.002772425270
 68      -0.000946525309
 69      -0.018997517679
 70       0.000052508382
 71       0.000881087704
 72       0.000297733706
 73       0.000006446486
 74      -0.000009634636
 75       0.000118657948
 76      -0.002189412783
 77       0.010168864849
 78      -0.000000751683
 79       0.000005076014
 80       0.000008321943
 81       0.000003650506
 82      -0.000014082361
 83      -0.000026565693
 84      -0.000111168842
 85      -0.000288195732
 86      -0.000075125663
 87       0.001311037693
 88       0.005255900263
 89       0.002646519811
 90      -0.000017572892
 91       0.000017467380
 92       0.000051402795
 93      -0.000045843823
 94       0.000035416189
 95       0.000088323755
 96      -0.000087348079
 97      -0.000268368154
 98       0.000238678153
 99      -0.000175633955
100      -0.000319609451
101       0.000302413054
102       0.001059132502
103      -0.000942920983
104       0.000596305410
 Sym=     1a
 Ene= -1.02190320414227E+01
 Spin= Alpha
 Occup= 1.000000
  1       0.814011342184
  2       0.037695639806
  3      -0.030978487134
  4      -0.000008299120
  5       0.000195556656
  6      -0.001704971929
  7       0.003316086541
  8       0.002433913497
  9      -0.006346317260
 10      -0.000039513371
 11      -0.000093548732
 12      -0.000411702270
 13       0.001434614960
 14       0.000411639699
 15       0.557422749605
 16       0.023792727567
 17      -0.000781561757
 18       0.000086562902
 19      -0.000728515524
 20       0.002299455611
 21      -0.001304684926
 22       0.001336119307
 23      -0.004760108380
 24      -0.000544613775
 25       0.000087022055
 26       0.000070120824
 27       0.000865841529
 28       0.000191629386
 29      -0.003997844929
 30       0.004409831123
 31       0.002096859853
 32       0.000340157387
 33      -0.000698416570
 34      -0.002291311400
 35       0.003499043029
 36       0.001262870012
 37      -0.000001935757
 38       0.000474251874
 39      -0.002422455218
 40       0.002922242625
 41      -0.001192980813
 42      -0.000265139159
 43       0.000423308002
 44      -0.062944401683
 45      -0.004343627682
 46       0.004364649957
 47      -0.001424121711
 48      -0.000354808566
 49      -0.001256854685
 50      -0.001233382167
 51       0.002037600677
 52       0.006171856264
 53       0.000129777173
 54      -0.000817660089
 55       0.000240261689
 56      -0.001032505349
 57      -0.000031505377
 58       0.000078139725
 59      -0.002884467536
 60       0.000507834086
 61      -0.000077336449
 62      -0.000033286368
 63       0.001569619459
 64       0.000289998919
 65       0.000346768070
 66      -0.000324749779
 67       0.000288231580
 68      -0.000228413893
 69       0.010618283876
 70       0.000301260181
 71      -0.000005578016
 72       0.000056672584
 73      -0.000009492002
 74       0.000017325605
 75      -0.000163906376
 76       0.001689300701
 77      -0.006307964298
 78      -0.000006159077
 79       0.000026613581
 80       0.000003755347
 81       0.000020082910
 82      -0.000093308883
 83      -0.000014391755
 84      -0.000031370434
 85       0.000565514870
 86       0.000160019589
 87      -0.000575513884
 88      -0.003564548201
 89      -0.001676224921
 90       0.000014046258
 91      -0.000004794100
 92      -0.000045889957
 93       0.000044534970
 94      -0.000019577755
 95      -0.000065127801
 96       0.000025282280
 97       0.000215776490
 98      -0.000207421041
 99       0.000093706321
100       0.000189456087
101      -0.000105368910
102      -0.000661612372
103       0.000617106177
104      -0.000294597049
 Sym=     1a
 Ene= -1.02185305563835E+01
 Spin= Alpha
 Occup= 1.000000
  1       0.556057414985
  2       0.030354024517
  3      -0.031993327953
  4       0.000437189523
  5      -0.000685336634
  6       0.001815470420
  7       0.002505827792
  8       0.000243528915
  9       0.000245016620
 10       0.001647046839
 11       0.000021232494
 12      -0.001390704939
 13       0.001295531796
 14       0.000334970066
 15      -0.815739757764
 16      -0.042556222593
 17       0.033804471384
 18       0.000128581304
 19      -0.000337644341
 20       0.000984302038
 21      -0.002023755799
 22       0.000528629789
 23      -0.002397090617
 24      -0.001391045444
 25      -0.000171844285
 26       0.001452119997
 27      -0.001822584807
 28      -0.000408770862
 29      -0.002454020356
 30       0.004937517125
 31       0.001504277967
 32       0.000530174304
 33      -0.001364841136
 34       0.004083347640
 35      -0.005850658572
 36      -0.002389856500
 37       0.000125443277
 38      -0.001352241372
 39       0.003407055061
 40      -0.007053844521
 41       0.002249725538
 42       0.000670520908
 43      -0.001389351109
 44      -0.028840682787
 45      -0.002668170275
 46       0.007892336347
 47      -0.001279311690
 48      -0.000169356856
 49      -0.000702359399
 50       0.003563356805
 51       0.001951121815
 52       0.000104887341
 53      -0.000098768798
 54      -0.000695413380
 55       0.000228795497
 56      -0.000877434416
 57       0.000050077010
 58       0.000853765939
 59       0.000496407184
 60       0.000390713086
 61      -0.000091981887
 62      -0.000060595633
 63      -0.000106765440
 64      -0.001570982727
 65       0.000039413847
 66      -0.000142075396
 67       0.000255416255
 68      -0.000004409602
 69       0.003612479250
 70       0.000176130320
 71      -0.000046509191
 72       0.000297257878
 73      -0.000002796990
 74       0.000005083242
 75      -0.000048373340
 76       0.000525971845
 77      -0.002099891436
 78      -0.000004915945
 79       0.000009029368
 80      -0.000001607569
 81       0.000016433623
 82      -0.000031683574
 83       0.000004872184
 84      -0.000052094842
 85       0.000184754579
 86       0.000013100372
 87      -0.000125718614
 88      -0.001200651963
 89      -0.000506425545
 90       0.000004832372
 91       0.000000679773
 92      -0.000013592004
 93       0.000016672250
 94      -0.000005712404
 95      -0.000021090650
 96      -0.000001613833
 97       0.000063821052
 98      -0.000075217256
 99       0.000027305393
100       0.000057408460
101      -0.000013180124
102      -0.000202180709
103       0.000211728912
104      -0.000089175535
 Sym=     1a
 Ene= -8.65661125702132E+00
 Spin= Alpha
 Occup= 1.000000
  1       0.000029755646
  2      -0.000367590171
  3       0.000455992172
  4       0.000032253952
  5       0.000066225875
  6       0.000025487564
  7       0.000244376333
  8      -0.000328962511
  9       0.000687707298
 10      -0.000011531113
 11       0.000011442831
 12       0.000009518849
 13      -0.000008397492
 14      -0.000025018120
 15       0.000008603942
 16      -0.000044030979
 17      -0.000840290572
 18       0.000002142433
 19       0.000012317325
 20       0.000012284923
 21       0.000016513900
 22      -0.000121823991
 23       0.000438801320
 24      -0.000002998738
 25      -0.000004295883
 26      -0.000004347952
 27      -0.000022095836
 28      -0.000004450075
 29      -0.000036420857
 30      -0.000008509197
 31      -0.000010706410
 32       0.000014110951
 33      -0.000003679849
 34       0.000012286431
 35      -0.000030062790
 36       0.000005244388
 37       0.000006517512
 38      -0.000011749702
 39      -0.000011443681
 40       0.000015751957
 41      -0.000002249247
 42       0.000001351189
 43      -0.000008801549
 44       0.000028177686
 45      -0.000742905843
 46       0.004311957444
 47      -0.000044671016
 48       0.000014540890
 49      -0.000001261627
 50       0.000361061594
 51      -0.001483357575
 52      -0.000836016555
 53      -0.000027677222
 54       0.000018333634
 55       0.000103365061
 56      -0.000095496140
 57       0.000009459153
 58      -0.000053308214
 59      -0.000214540170
 60      -0.000009919799
 61       0.000007852249
 62      -0.000017303005
 63      -0.000189642690
 64      -0.000312539644
 65      -0.000038808983
 66      -0.000017610357
 67      -0.000006254186
 68       0.000805173330
 69      -0.007599587589
 70      -0.000119444638
 71      -0.000739045462
 72      -0.000386003979
 73      -0.136660446701
 74       0.516879243856
 75      -1.093416702082
 76      -0.032386263123
 77       0.014703944698
 78       0.000271913865
 79       0.001290295279
 80       0.000665820125
 81      -0.000637250000
 82      -0.003034763253
 83      -0.001564946564
 84      -0.000271405571
 85      -0.001148904615
 86      -0.000604728422
 87       0.000675448534
 88       0.002870241060
 89       0.001514513803
 90       0.000205505422
 91      -0.000140892621
 92      -0.000701341703
 93       0.000652017914
 94      -0.000274782850
 95       0.000172389424
 96      -0.000130423797
 97      -0.000590888357
 98       0.000541742147
 99      -0.000242985888
100      -0.000063646736
101       0.000059873460
102       0.000226839100
103      -0.000200372405
104       0.000106140342
 Sym=     1a
 Ene= -6.48950148661021E+00
 Spin= Alpha
 Occup= 1.000000
  1      -0.000014479562
  2       0.000210868399
  3      -0.000357447305
  4      -0.000018068324
  5      -0.000036920396
  6      -0.000012896149
  7      -0.000046166408
  8       0.000198093520
  9      -0.000311675169
 10       0.000004852418
 11      -0.000008302512
 12      -0.000006418379
 13       0.000002526733
 14       0.000010273500
 15      -0.000005077255