
                                 *****************
                                 * O   R   C   A *
                                 *****************

                                            #,                                       
                                            ###                                      
                                            ####                                     
                                            #####                                    
                                            ######                                   
                                           ########,                                 
                                     ,,################,,,,,                         
                               ,,#################################,,                 
                          ,,##########################################,,             
                       ,#########################################, ''#####,          
                    ,#############################################,,   '####,        
                  ,##################################################,,,,####,       
                ,###########''''           ''''###############################       
              ,#####''   ,,,,##########,,,,          '''####'''          '####       
            ,##' ,,,,###########################,,,                        '##       
           ' ,,###''''                  '''############,,,                           
         ,,##''                                '''############,,,,        ,,,,,,###''
      ,#''                                            '''#######################'''  
     '                                                          ''''####''''         
             ,#######,   #######,   ,#######,      ##                                
            ,#'     '#,  ##    ##  ,#'     '#,    #''#        ,####,    ,#,          
            ##       ##  ##   ,#'  ##            #'  '#       #'       ,# #          
            ##       ##  #######   ##           ,######,      #####,      #          
            '#,     ,#'  ##    ##  '#,     ,#' ,#      #,     #,   #      #          
             '#######'   ##     ##  '#######'  #'      '#     '####' #    #          



                #########################################################
                #                        -***-                          #
                #          Department of theory and spectroscopy        #
                #                                                       #
                #                      Frank Neese                      #
                #                                                       #
                #     Directorship, Architecture, Infrastructure        #
                #                    SHARK, DRIVERS                     #
                #        Core code/Algorithms in most modules           #
                #                                                       #
                #        Max Planck Institute fuer Kohlenforschung      #
                #                Kaiser Wilhelm Platz 1                 #
                #                 D-45470 Muelheim/Ruhr                 #
                #                      Germany                          #
                #                                                       #
                #                  All rights reserved                  #
                #                        -***-                          #
                #########################################################


                         Program Version 6.1.0  -  RELEASE   -
                                (GIT: $679e74b$)
                          ($2025-06-10 18:02:51 +0200$)


 With contributions from (in alphabetic order):
[Max-Planck-Institut fuer Kohlenforschung]                               
  Daniel Aravena         : Magnetic Suceptibility                        
  Michael Atanasov       : Ab Initio Ligand Field Theory (pilot matlab implementation)
  Alexander A. Auer      : GIAO ZORA, VPT2 properties, NMR spectrum      
  Ute Becker             : All parallelization in ORCA, NUMFREQ, NUMCALC 
  Giovanni Bistoni       : ED, misc. LED, open-shell LED, HFLD           
  Dmytro Bykov           : pre 5.0 version of the SCF Hessian            
  Marcos Casanova-Páez   : Triplet and SCS-CIS(D). UHF-(DLPNO)-IP/EA/STEOM-CCSD. UHF-CVS-IP/STEOM-CCSD   
  Vijay G. Chilkuri      : MRCI spin determinant printing, contributions to CSF-ICE 
  Pauline Colinet        : FMM embedding                                 
  Dipayan Datta          : RHF DLPNO-CCSD density                        
  Achintya Kumar Dutta   : EOM-CC, STEOM-CC                              
  Nicolas Foglia         : Exact transition moments, OPA infrastructure, MCD improvements    
  Dmitry Ganyushin       : Spin-Orbit,Spin-Spin,Magnetic field MRCI      
  Miquel Garcia-Rates    : C-PCM and meta-GGA Hessian, CCSD/C-PCM, Gaussian charge scheme 
  Tiago L. C. Gouveia    : GS-ROHF, GS-ROCIS                             
  Yang Guo               : DLPNO-NEVPT2, F12-NEVPT2, CIM, IAO-localization        
  Andreas Hansen         : Spin unrestricted coupled pair/coupled cluster methods 
  Ingolf Harden          : AUTO-CI MPn and infrastructure                
  Benjamin Helmich-Paris : MC-RPA, TRAH-(SCF,CASSCF), AVAS, COSX integrals, SCF dyn. polar., MC-PDFT, srDFT 
  Lee Huntington         : MR-EOM, pCC                                   
  Robert Izsak           : Overlap fitted RIJCOSX, COSX-SCS-MP3, EOM     
  Riya Kayal             : Wick's Theorem for AUTO-CI, AUTO-CI UHF-CCSDT 
  Emily Kempfer          : AUTO-CI RHF CISDT and CCSDT, approximate NEVPT4
  Christian Kollmar      : KDIIS, OOCD, Brueckner-CCSD(T), CCSD density, CASPT2, CASPT2-K, improved NEVPT2 
  Axel Koslowski         : Symmetry handling                             
  Simone Kossmann        : meta-GGA functionals, TD-DFT gradient, OOMP2, (MP2 Hessian; deprecated post 5.0) 
  Lucas Lang             : DCDCAS, Hyperfine gauge corrections, ICE-SOC+SSC
  Marvin Lechner         : AUTO-CI (C++ implementation), FIC-MRCC        
  Spencer Leger          : CASSCF response                               
  Dagmar Lenk            : GEPOL surface, SMD, ORCA-2-JSON               
  Dimitrios Liakos       : Extrapolation schemes; Compound Job, Property file
  Dimitrios Manganas     : Further ROCIS development; embedding schemes. LFT, Crystal Embedding 
  Dimitrios Pantazis     : SARC Basis sets                               
  Anastasios Papadopoulos: AUTO-CI, single reference methods and gradients 
  Taras Petrenko         : pre 6.0 DFT Hessian and TD-DFT gradient,  ECA, NRVS 
  Petra Pikulova         : Analytic Raman intensities                    
  Peter Pinski           : DLPNO-MP2, DLPNO-MP2 Gradient                 
  Shashank Vittal Rao    : ES-AILFT, MagRelax                            
  Christoph Reimann      : Effective Core Potentials                     
  Marius Retegan         : Local ZFS, SOC                                
  Christoph Riplinger    : Optimizer, TS searches, QM/MM, DLPNO-CCSD(T), (RO)-DLPNO pert. Triples 
  Michael Roemelt        : Original ROCIS implementation, recursive CI coupling coefficients
  Masaaki Saitow         : Open-shell DLPNO-CCSD energy and density      
  Barbara Sandhoefer     : DKH picture change effects                    
  Yorick L. A. Schmerwitz: GMF and freeze-and-release deltaSCF, NEB S-IDPP initial path                    
  Kantharuban Sivalingam : CASSCF convergence/infrastructure, NEVPT2, NEVPT3, NEVPT4(SD), FIC-MRCI and CEPA variants
  Bernardo de Souza      : ESD, SOC TD-DFT                               
  Georgi L. Stoychev     : AutoAux, RI-MP2 NMR, DLPNO-MP2 response, X2C  
  Van Anh Tran           : RI-MP2 g-tensors                              
  Willem Van den Heuvel  : Paramagnetic NMR                              
  Zikuan Wang            : NOTCH, Electric field optimization            
  Frank Wennmohs         : Technical directorship and infrastructure     
  Hang Xu                : AUTO-CI-Response properties                   
                                                                         
[FACCTs GmbH]                                                            
  Markus Bursch, Nicolas Foglia, Miquel Garcia-Rates, Ingolf Harden, Hagen Neugebauer, Anastasios Papadopoulos, 
  Christoph Riplinger, Bernardo de Souza, Georgi L. Stoychev                                                    
                                                                 
  APM, various basis sets, CI-OPT, improved COSX, DLPNO-Multilevel,           
  DOCKER, DRACO, updates on ESD, Fragmentator, GOAT, IRC, LR-CPCM, L-BFGS, MBIS, meta-GGA TD-DFT gradient, ML-optimized integration grids, 
  MM, NACMEs, nearIR, NEB, NEB-TS, NL-DFT gradient (VV10), 2- and 3-layer-ONIOM, interface openCOSMO-RS, QMMM,   
  Crystal-QMMM, RESP, rigid body optimization, SF, symmetry and pop. for TD-DFT, various functionals, SOLVATOR                                   
                                                                         
[Other institutions]                                                     
  V. Asgeirsson          : NEB                                           
  Christoph Bannwarth    : sTDA-DFT, sTD-DFT, PBEh-3c, B97-3c, D3        
  Giovanni Bistoni       : ETS/NOCV, ADLD/ADEX, COVALED                  
  Martin Brehm           : Molecular dynamics                            
  Ronald Cardenas        : ETS/NOCV                                      
  Martina Colucci        : COVALED                                       
  Sebastian Ehlert       : rSCAN, r2SCAN, r2SCAN-3c, D4, dhf basis sets  
  Marvin Friede          : D4 for Fr, Ra, Ac-Lr                          
  Lars Goerigk           : TD-DFT with DH, B97 family of functionals     
  Stefan Grimme          : VdW corrections, initial TS optimization, DFT functionals, gCP, sTDA/sTD-DF 
  Waldemar Hujo          : DFT-NL                                        
  H. Jonsson             : NEB                                           
  Holger Kruse           : gCP                                           
  Marcel Mueller         : wB97X-3c, vDZP basis set                      
  Hagen Neugebauer       : wr2SCAN, Native XTB                           
  Gianluca Regni         : ADLD/ADEX                                     
  Tobias Risthaus        : pre 6.0 range-separated hybrid DFT and stability analysis
  Lukas Wittmann         : regularized MP2, r2SCAN double-hybrids, wr2SCAN        
                                                                         
We gratefully acknowledge several colleagues who have allowed us to      
interface, adapt or use parts of their codes:                            
  Ed Valeev, F. Pavosevic, A. Kumar             : LibInt (2-el integral package), F12 methods 
  Garnet Chan, S. Sharma, J. Yang, R. Olivares  : DMRG                   
  Ulf Ekstrom                                   : XCFun DFT Library      
  Mihaly Kallay                                 : mrcc  (arbitrary order and MRCC methods)
  Frank Weinhold                                : gennbo (NPA and NBO analysis)           
  Simon Mueller                                 : openCOSMO-RS                            
  Christopher J. Cramer and Donald G. Truhlar   : smd solvation model                     
  S Lehtola, MJT Oliveira, MAL Marques          : LibXC Library                           
  Liviu Ungur et al                             : ANISO software                          


 Your calculation uses the libint2 library for the computation of 2-el integrals
 For citations please refer to: http://libint.valeyev.net

 Your ORCA version has been built with support for libXC version: 7.0.0
 For citations please refer to: https://libxc.gitlab.io

 This ORCA versions uses:
   CBLAS   interface :  Fast vector & matrix operations
   LAPACKE interface :  Fast linear algebra routines
   SCALAPACK package :  Parallel linear algebra routines
   Shared memory     :  Shared parallel matrices
   BLAS/LAPACK       :  OpenBLAS 0.3.29  USE64BITINT DYNAMIC_ARCH NO_AFFINITY Zen SINGLE_THREADED
        Core in use  :  Zen
   Copyright (c) 2011-2014, The OpenBLAS Project


  ***********************************
  * Starting time: Sun Apr  5 14:30:46 2026
  * Host name:     QC1
  * Process ID:    26799
  * Working dir.:  /home/user/QC/radical/allyl/split-ts1_2
  ***********************************

NOTE: MaxCore=1200 MB was set to SCF,MP2,MDCI,CIPSI,MRCI,RASCI and CIS
      => If you want to overwrite this, your respective input block should be placed after the MaxCore statement
Warning: RI is on but no J-basis has been assigned. Assigning Def2/J (nothing to worry about!)
================================================================================

----- Orbital basis set information -----
Your calculation utilizes the basis: def-SVP
   H-Kr: A. Schäfer, H. Horn, R. Ahlrichs; J. Chem. Phys. 97, 2571 (1992)
   Rb-At: K. Eichkorn, F. Weigend, O. Treutler, R. Ahlrichs; Theor. Chem. Acc. 97, 119 (1997)
   Rn: F. Weigend, R. Ahlrichs; Phys. Chem. Chem. Phys. 7, 3297 (2005)
   Fr-Ra: I. S. Lim, P. Schwerdtfeger, B. Metz, H. Stoll, J. Chem. Phys. 122, 104103 (2005)
   Ac-Lr: X. Cao, M. Dolg, J. Molec. Struct. Theochem. 673 (2004)
----- AuxJ basis set information -----
Your calculation utilizes the auxiliary basis: def2/J
   H-Rn: F. Weigend, Phys. Chem. Chem. Phys. 8, 1057 (2006).
   Fr-Lr: K. Eichkorn, F. Weigend, O. Treutler, R. Ahlrichs; Theor. Chem. Acc. 97, 119 (1997).

================================================================================
                                        WARNINGS
                       Please study these warnings very carefully!
================================================================================


WARNING: your system is open-shell and RHF/RKS was chosen
  ===> : WILL SWITCH to UHF/UKS


================================================================================
                                       INPUT FILE
================================================================================
NAME = radical_017.inp
|  1> ! B3LYP def-SVP 
|  2> %maxcore 1200
|  3> %pal nprocs 8 end
|  4> * xyz 0 2
|  5> C    0.62665500   0.44114100   0.17300900
|  6> C    0.69427000   0.04479400   1.48394600
|  7> H    1.55960900   0.68416500  -0.34689000
|  8> H    1.64918400  -0.00363200   2.01563900
|  9> H   -0.20897300  -0.22654700   2.04049800
| 10> C   -0.57355900   0.54446700  -0.56270600
| 11> H   -1.53356800   0.41000400  -0.06070900
| 12> H   -0.58783500   1.05604700  -1.52607100
| 13> H   -0.67055600  -0.90168700  -1.30233800
| 14> Br  -0.96435400  -2.22631900  -2.00010600
| 15> *
| 16> 
| 17>                          ****END OF INPUT****
================================================================================

                       ****************************
                       * Single Point Calculation *
                       ****************************

---------------------------------
CARTESIAN COORDINATES (ANGSTROEM)
---------------------------------
  C      0.626655    0.441141    0.173009
  C      0.694270    0.044794    1.483946
  H      1.559609    0.684165   -0.346890
  H      1.649184   -0.003632    2.015639
  H     -0.208973   -0.226547    2.040498
  C     -0.573559    0.544467   -0.562706
  H     -1.533568    0.410004   -0.060709
  H     -0.587835    1.056047   -1.526071
  H     -0.670556   -0.901687   -1.302338
  Br    -0.964354   -2.226319   -2.000106

----------------------------
CARTESIAN COORDINATES (A.U.)
----------------------------
  NO LB      ZA    FRAG     MASS         X           Y           Z
   0 C     6.0000    0    12.011    1.184206    0.833636    0.326940
   1 C     6.0000    0    12.011    1.311980    0.084648    2.804252
   2 H     1.0000    0     1.008    2.947234    1.292884   -0.655527
   3 H     1.0000    0     1.008    3.116506   -0.006863    3.809006
   4 H     1.0000    0     1.008   -0.394902   -0.428112    3.855982
   5 C     6.0000    0    12.011   -1.083869    1.028894   -1.063360
   6 H     1.0000    0     1.008   -2.898024    0.774795   -0.114723
   7 H     1.0000    0     1.008   -1.110847    1.995640   -2.883856
   8 H     1.0000    0     1.008   -1.267167   -1.703941   -2.461062
   9 Br   35.0000    0    79.900   -1.822365   -4.207133   -3.779653

--------------------------------
INTERNAL COORDINATES (ANGSTROEM)
--------------------------------
 C      0   0   0     0.000000000000     0.00000000     0.00000000
 C      1   0   0     1.371210614969     0.00000000     0.00000000
 H      1   2   0     1.095335017651   118.41901115     0.00000000
 H      2   1   3     1.094030745053   121.36354865     1.71627662
 H      2   1   3     1.095090856520   121.12007578   181.14824730
 C      1   2   3     1.411547544115   124.15179492   179.29171737
 H      6   1   2     1.091649470507   119.93726707     6.83451938
 H      6   1   2     1.090866638871   120.38101714   167.34786035
 H      6   1   2     1.627213970303   102.85827183   266.04264314
 Br     9   6   1     1.525728475861   172.28453608   154.38412350

---------------------------
INTERNAL COORDINATES (A.U.)
---------------------------
 C      0   0   0     0.000000000000     0.00000000     0.00000000
 C      1   0   0     2.591212534217     0.00000000     0.00000000
 H      1   2   0     2.069883208255   118.41901115     0.00000000
 H      2   1   3     2.067418490240   121.36354865     1.71627662
 H      2   1   3     2.069421810584   121.12007578   181.14824730
 C      1   2   3     2.667438283386   124.15179492   179.29171737
 H      6   1   2     2.062918533499   119.93726707     6.83451938
 H      6   1   2     2.061439196097   120.38101714   167.34786035
 H      6   1   2     3.074988765163   102.85827183   266.04264314
 Br     9   6   1     2.883208974102   172.28453608   154.38412350

---------------------
BASIS SET INFORMATION
---------------------
There are 3 groups of distinct atoms

 Group   1 Type C   : 7s4p1d contracted to 3s2p1d pattern {511/31/1}
 Group   2 Type H   : 4s1p contracted to 2s1p pattern {31/1}
 Group   3 Type Br  : 14s10p6d contracted to 5s4p3d pattern {63311/5311/411}

Atom   0C    basis set group =>   1
Atom   1C    basis set group =>   1
Atom   2H    basis set group =>   2
Atom   3H    basis set group =>   2
Atom   4H    basis set group =>   2
Atom   5C    basis set group =>   1
Atom   6H    basis set group =>   2
Atom   7H    basis set group =>   2
Atom   8H    basis set group =>   2
Atom   9Br   basis set group =>   3
---------------------------------
AUXILIARY/J BASIS SET INFORMATION
---------------------------------
There are 3 groups of distinct atoms

 Group   1 Type C   : 12s5p4d2f1g contracted to 6s4p3d1f1g pattern {711111/2111/211/2/1}
 Group   2 Type H   : 5s2p1d contracted to 3s1p1d pattern {311/2/1}
 Group   3 Type Br  : 19s5p5d3f1g contracted to 8s4p3d2f1g pattern {121111111/2111/311/21/1}

Atom   0C    basis set group =>   1
Atom   1C    basis set group =>   1
Atom   2H    basis set group =>   2
Atom   3H    basis set group =>   2
Atom   4H    basis set group =>   2
Atom   5C    basis set group =>   1
Atom   6H    basis set group =>   2
Atom   7H    basis set group =>   2
Atom   8H    basis set group =>   2
Atom   9Br   basis set group =>   3


           ************************************************************
           *        Program running with 8 parallel MPI-processes     *
           *              working on a common directory               *
           ************************************************************
------------------------------------------------------------------------------
                             ORCA STARTUP CALCULATIONS
                           -- RI-GTO INTEGRALS CHOSEN --
------------------------------------------------------------------------------
------------------------------------------------------------------------------
                   ___                                                        
                  /   \      - P O W E R E D   B Y -                         
                 /     \                                                     
                 |  |  |   _    _      __       _____    __    __             
                 |  |  |  | |  | |    /  \     |  _  \  |  |  /  |          
                  \  \/   | |  | |   /    \    | | | |  |  | /  /          
                 / \  \   | |__| |  /  /\  \   | |_| |  |  |/  /          
                |  |  |   |  __  | /  /__\  \  |    /   |      \           
                |  |  |   | |  | | |   __   |  |    \   |  |\   \          
                \     /   | |  | | |  |  |  |  | |\  \  |  | \   \       
                 \___/    |_|  |_| |__|  |__|  |_| \__\ |__|  \__/        
                                                                              
                      - O R C A' S   B I G   F R I E N D -                    
                                      &                                       
                       - I N T E G R A L  F E E D E R -                       
                                                                              
 v1 FN, 2020, v2 2021, v3 2022-2024                                           
------------------------------------------------------------------------------


----------------------
SHARK INTEGRAL PACKAGE
----------------------

Number of atoms                             ...     10
Number of basis functions                   ...    104
Number of shells                            ...     48
Maximum angular momentum                    ...      2
Integral batch strategy                     ... SHARK/LIBINT Hybrid
RI-J (if used) integral strategy            ... SPLIT-RIJ (Revised 2003 algorithm where possible)
Printlevel                                  ...      1
Contraction scheme used                     ... SEGMENTED contraction
Prescreening option                         ... SCHWARTZ
   Thresh                                   ... 1.000e-10
   Tcut                                     ... 1.000e-11
   Tpresel                                  ... 1.000e-11 
Coulomb Range Separation                    ... NOT USED
Exchange Range Separation                   ... NOT USED
Multipole approximations                    ... NOT USED
Finite Nucleus Model                        ... NOT USED
CABS basis                                  ... NOT available
Auxiliary Coulomb fitting basis             ... AVAILABLE
   # of basis functions in Aux-J            ...    271
   # of shells in Aux-J                     ...     93
   Maximum angular momentum in Aux-J        ...      4
Auxiliary J/K fitting basis                 ... NOT available
Auxiliary Correlation fitting basis         ... NOT available
Auxiliary 'external' fitting basis          ... NOT available

Checking pre-screening integrals            ... done (  0.0 sec) Dimension = 48
   => SHARK Basis and OBASIS are compatible. Storing Pre-screening
Shell pair information
Shell pair cut-off parameter TPreSel        ...   1.0e-11
Total number of shell pairs                 ...      1176
Shell pairs after pre-screening             ...      1082
Total number of primitive shell pairs       ...      4753
Primitive shell pairs kept                  ...      3301
          la=0 lb=0:    331 shell pairs
          la=1 lb=0:    383 shell pairs
          la=1 lb=1:    124 shell pairs
          la=2 lb=0:    140 shell pairs
          la=2 lb=1:     86 shell pairs
          la=2 lb=2:     18 shell pairs

Checking whether 4 symmetric matrices of dimension 104 fit in memory
:Max Core in MB      =   1200.00
 MB in use           =      4.72
 MB left             =   1195.28
 MB needed           =      0.17
 Data fit in memory  = YES
Calculating RI/J V-Matrix + Cholesky decomp.... done (  0.0 sec)
Calculating Nuclear repulsion               ... done (  0.0 sec) ENN=    194.569685802973 Eh

Diagonalization of the overlap matrix:
Smallest eigenvalue                        ... 2.653e-03
Time for diagonalization                   ...    0.001 sec
Threshold for overlap eigenvalues          ... 1.000e-07
Number of eigenvalues below threshold      ... 0
Time for construction of square roots      ...    0.000 sec
Total time needed                          ...    0.002 sec

-------------------
DFT GRID GENERATION
-------------------

General Integration Accuracy     IntAcc      ... 4.388
Radial Grid Type                 RadialGrid  ... OptM3 with GC (2021)
Angular Grid (max. ang.)         AngularGrid ... 4 (Lebedev-302)
Angular grid pruning method      GridPruning ... 4 (adaptive)
Weight generation scheme         WeightScheme... mBecke (2022)
Basis function cutoff            BFCut       ... 1.0000e-10
Integration weight cutoff        WCut        ... 1.0000e-14
Partially contracted basis set               ... off
Rotationally invariant grid construction     ... off
Angular grids for H and He will be reduced by one unit
Core-polarized basis detected: some atoms will have their core
                               angular grid increased.

Total number of grid points                  ...    49032
Total number of batches                      ...      771
Average number of points per batch           ...       63
Average number of grid points per atom       ...     4903

--------------------
COSX GRID GENERATION
--------------------

GRIDX 1
-------
General Integration Accuracy     IntAcc      ... 3.816
Radial Grid Type                 RadialGrid  ... OptM3 with GC (2021)
Angular Grid (max. ang.)         AngularGrid ... 1 (Lebedev-50)
Angular grid pruning method      GridPruning ... 4 (adaptive)
Weight generation scheme         WeightScheme... mBecke (2022)
Basis function cutoff            BFCut       ... 1.0000e-10
Integration weight cutoff        WCut        ... 1.0000e-14
Partially contracted basis set               ... on
Rotationally invariant grid construction     ... off
Angular grids for H and He will be reduced by one unit
Core-polarized basis detected: some atoms will have their core
                               angular grid increased.

Total number of grid points                  ...    11060
Total number of batches                      ...       92
Average number of points per batch           ...      120
Average number of grid points per atom       ...     1106
UseSFitting                                  ... on

GRIDX 2
-------
General Integration Accuracy     IntAcc      ... 4.020
Radial Grid Type                 RadialGrid  ... OptM3 with GC (2021)
Angular Grid (max. ang.)         AngularGrid ... 2 (Lebedev-110)
Angular grid pruning method      GridPruning ... 4 (adaptive)
Weight generation scheme         WeightScheme... mBecke (2022)
Basis function cutoff            BFCut       ... 1.0000e-10
Integration weight cutoff        WCut        ... 1.0000e-14
Partially contracted basis set               ... on
Rotationally invariant grid construction     ... off
Angular grids for H and He will be reduced by one unit
Core-polarized basis detected: some atoms will have their core
                               angular grid increased.

Total number of grid points                  ...    16380
Total number of batches                      ...      132
Average number of points per batch           ...      124
Average number of grid points per atom       ...     1638
UseSFitting                                  ... on

GRIDX 3
-------
General Integration Accuracy     IntAcc      ... 4.338
Radial Grid Type                 RadialGrid  ... OptM3 with GC (2021)
Angular Grid (max. ang.)         AngularGrid ... 3 (Lebedev-194)
Angular grid pruning method      GridPruning ... 4 (adaptive)
Weight generation scheme         WeightScheme... mBecke (2022)
Basis function cutoff            BFCut       ... 1.0000e-10
Integration weight cutoff        WCut        ... 1.0000e-14
Partially contracted basis set               ... on
Rotationally invariant grid construction     ... off
Angular grids for H and He will be reduced by one unit
Core-polarized basis detected: some atoms will have their core
                               angular grid increased.

Total number of grid points                  ...    28539
Total number of batches                      ...      229
Average number of points per batch           ...      124
Average number of grid points per atom       ...     2854
UseSFitting                                  ... on
Grids setup in   0.4 sec
Initializing property integral containers    ... done (  0.0 sec)

SHARK setup successfully completed in   0.5 seconds

Maximum memory used throughout the entire STARTUP-calculation: 17.5 MB


           ************************************************************
           *        Program running with 8 parallel MPI-processes     *
           *              working on a common directory               *
           ************************************************************
-------------------------------------------------------------------------------
                                 ORCA GUESS
                   Start orbitals & Density for SCF / CASSCF
-------------------------------------------------------------------------------

------------
SCF SETTINGS
------------
Hamiltonian:
 Density Functional     Method          .... DFT(GTOs)
 Exchange Functional    Exchange        .... B88
   X-Alpha parameter    XAlpha          ....  0.666667
   Becke's b parameter  XBeta           ....  0.004200
 Correlation Functional Correlation     .... LYP
 LDA part of GGA corr.  LDAOpt          .... VWN-5
 Gradients option       PostSCFGGA      .... off
 Hybrid DFT is turned on
   Fraction HF Exchange ScalHFX         ....  0.200000
   Scaling of DF-GGA-X  ScalDFX         ....  0.720000
   Scaling of DF-GGA-C  ScalDFC         ....  0.810000
   Scaling of DF-LDA-C  ScalLDAC        ....  1.000000
   Perturbative correction              ....  0.000000
   NL short-range parameter             ....  4.800000
 RI-approximation to the Coulomb term is turned on
   Number of AuxJ basis functions       .... 271
   RIJ-COSX (HFX calculated with COS-X)).... on


General Settings:
 Integral files         IntName         .... radical_017
 Hartree-Fock type      HFTyp           .... UHF
 Total Charge           Charge          ....    0
 Multiplicity           Mult            ....    2
 Number of Electrons    NEL             ....   59
 Basis Dimension        Dim             ....  104
 Nuclear Repulsion      ENuc            ....    194.5696858030 Eh

Convergence Acceleration:
 AO-DIIS                CNVDIIS         .... on
   Start iteration      DIISMaxIt       ....    12
   Startup error        DIISStart       ....  0.200000
   # of expansion vecs  DIISMaxEq       ....     5
   Bias factor          DIISBfac        ....   1.050
   Max. coefficient     DIISMaxC        ....  10.000
 MO-DIIS                CNVKDIIS        .... off
 Trust-Rad. Augm. Hess. CNVTRAH         .... auto
   Auto Start mean grad. ratio tolernc. ....  1.125000
   Auto Start start iteration           ....    50
   Auto Start num. interpolation iter.  ....    10
   Max. Number of Micro iterations      ....    24
   Max. Number of Macro iterations      .... Maxiter - #DIIS iter
   Number of Davidson start vectors     ....     2
   Converg. threshold    (grad. norm)   ....   5.000e-05
   Grad. Scal. Fac. for Micro threshold ....   0.100
   Minimum threshold for Micro iter.    ....   1.000e-02
   NR start threshold (gradient norm)   ....   1.000e-04
   Initial trust radius                 ....   0.400
   Minimum AH scaling param. (alpha)    ....   1.000
   Maximum AH scaling param. (alpha)    .... 1000.000
   Quad. conv. algorithm                .... NR
   White noise on init. David. guess    .... on
   Maximum white noise                  ....   0.010
   Pseudo random numbers                .... off
   Inactive MOs                         .... canonical
   Orbital update algorithm             .... Taylor
   Preconditioner                       .... Diag
   Full preconditioner red. dimension   ....   250
 SOSCF                 CNVSOSCF           .... on
   Start iteration     SOSCFMaxIt         ....   150
   Startup grad/error  SOSCFStart         ....  0.003300
   Hessian update      SOSCFHessUp        .... L-BFGS
   Autom. constraints  SOSCFAutoConstrain .... off
 Level Shifting         CNVShift        .... on
   Level shift para.    LevelShift      ....    0.2500
   Turn off err/grad.   ShiftErr        ....    0.0010
 Zerner damping         CNVZerner       .... off
 Static damping         CNVDamp         .... on
   Fraction old density DampFac         ....    0.7000
   Max. Damping (<1)    DampMax         ....    0.9800
   Min. Damping (>=0)   DampMin         ....    0.0000
   Turn off err/grad.   DampErr         ....    0.1000

SCF Procedure:
 Maximum # iterations   MaxIter         ....   125
 SCF integral mode      SCFMode         .... Direct
   Integral package                     .... SHARK and LIBINT hybrid scheme
 Reset frequency        DirectResetFreq ....    20
 Integral Threshold     Thresh          ....  1.000e-10 Eh
 Primitive CutOff       TCut            ....  1.000e-11 Eh

Convergence Tolerance:
 Convergence Check Mode ConvCheckMode   .... Total+1el-Energy
 Convergence forced     ConvForced      .... 0
 Energy Change          TolE            ....  1.000e-06 Eh
 1-El. energy change                    ....  1.000e-03 Eh
 Orbital Gradient       TolG            ....  5.000e-05
 Orbital Rotation angle TolX            ....  5.000e-05
 DIIS Error             TolErr          ....  1.000e-06

------------------------------
INITIAL GUESS: MODEL POTENTIAL
------------------------------
Loading Hartree-Fock densities                     ... done
Calculating cut-offs                               ... done
Initializing the effective Hamiltonian             ... done
Setting up the integral package (SHARK)            ... done
Starting the Coulomb interaction                   ... done (   0.0 sec)
Making the grid                                    ... done (   0.1 sec)
Mapping shells                                     ... done
Starting the XC term evaluation                    ... done (   0.0 sec)
  promolecular density results
     # of electrons  =     58.998619020
     EX              =   -106.845753196
     EC              =     -2.449752614
     EX+EC           =   -109.295505810
Transforming the Hamiltonian                       ... done (   0.0 sec)
Diagonalizing the Hamiltonian                      ... done (   0.0 sec)
Back transforming the eigenvectors                 ... done (   0.0 sec)
Now organizing SCF variables                       ... done
                      ------------------
                      INITIAL GUESS DONE (   0.1 sec)
                      ------------------
             **** ENERGY FILE WAS UPDATED (radical_017.en.tmp) ****
Finished Guess after   0.4 sec
Maximum memory used throughout the entire GUESS-calculation: 8.8 MB


           ************************************************************
           *        Program running with 8 parallel MPI-processes     *
           *              working on a common directory               *
           ************************************************************

-------------------------------------------------------------------------------------------
                                      ORCA LEAN-SCF
                              memory conserving SCF solver
-------------------------------------------------------------------------------------------

----------------------------------------D-I-I-S--------------------------------------------
Iteration    Energy (Eh)           Delta-E    RMSDP     MaxDP     DIISErr   Damp  Time(sec)
-------------------------------------------------------------------------------------------
               ***  Starting incremental Fock matrix formation  ***
    1    -2691.3375819863035758     0.00e+00  4.17e-03  3.05e-02  6.95e-02  0.700   0.2
    2    -2691.3745893127338604    -3.70e-02  3.08e-03  2.03e-02  3.83e-02  0.700   0.2
                               ***Turning on AO-DIIS***
    3    -2691.3911116570689046    -1.65e-02  1.43e-03  1.15e-02  1.61e-02  0.700   0.2
    4    -2691.4007119091843379    -9.60e-03  2.92e-03  2.34e-02  1.01e-02  0.000   0.2
    5    -2691.4218291888369095    -2.11e-02  5.88e-04  4.48e-03  3.80e-03  0.000   0.2
                              *** Initializing SOSCF ***
---------------------------------------S-O-S-C-F--------------------------------------
Iteration    Energy (Eh)           Delta-E    RMSDP     MaxDP     MaxGrad    Time(sec)
--------------------------------------------------------------------------------------
    6    -2691.4221118826712882    -2.83e-04  3.90e-04  4.41e-03  2.54e-03     0.2
               *** Restarting incremental Fock matrix formation ***
    7    -2691.4221954173503946    -8.35e-05  3.43e-04  3.48e-03  2.45e-03     0.2
    8    -2691.4222521911060539    -5.68e-05  4.19e-04  5.20e-03  1.80e-03     0.2
    9    -2691.4222667088847629    -1.45e-05  1.58e-04  1.42e-03  1.45e-03     0.2
   10    -2691.4222759895860690    -9.28e-06  6.36e-05  4.43e-04  2.54e-04     0.2
   11    -2691.4222759022381979     8.73e-08  3.74e-05  3.46e-04  2.39e-04     0.2
                 **** Energy Check signals convergence ****

               *****************************************************
               *                     SUCCESS                       *
               *           SCF CONVERGED AFTER  11 CYCLES          *
               *****************************************************

Recomputing exchange energy using gridx3       ... done (    0.243 sec)
Old exchange energy                            :    -21.429075784 Eh
New exchange energy                            :    -21.429067223 Eh
Exchange energy change after final integration :      0.000008560 Eh
Total energy after final integration           :  -2691.422268269 Eh
             **** ENERGY FILE WAS UPDATED (radical_017.en.tmp) ****

----------------
TOTAL SCF ENERGY
----------------

Total Energy       :      -2691.42226826918522 Eh          -73237.32323 eV

Components:
Nuclear Repulsion  :        194.56968580297288 Eh            5294.51032 eV
Electronic Energy  :      -2885.99196263247813 Eh          -78531.83378 eV
One Electron Energy:      -4126.63315260467607 Eh         -112291.39687 eV
Two Electron Energy:       1240.64118997219816 Eh           33759.56308 eV

Virial components:
Potential Energy   :      -5378.52466921871383 Eh         -146357.09690 eV
Kinetic Energy     :       2687.10240094952860 Eh           73119.77367 eV
Virial Ratio       :          2.00160763033003

DFT components:
N(Alpha)           :       29.999987679183 electrons
N(Beta)            :       28.999984171228 electrons
N(Total)           :       58.999971850411 electrons
E(X)               :      -85.244333611192 Eh       
E(C)               :       -2.872830817402 Eh       
E(XC)              :      -88.117164428593 Eh       

---------------
SCF CONVERGENCE
---------------

  Last Energy change         ...   -8.7348e-08  Tolerance :   1.0000e-06
  Last MAX-Density change    ...    3.4603e-04  Tolerance :   1.0000e-05
  Last RMS-Density change    ...    3.7442e-05  Tolerance :   1.0000e-06
  Last DIIS Error            ...    2.5436e-03  Tolerance :   1.0000e-06
  Last Orbital Gradient      ...    2.3890e-04  Tolerance :   5.0000e-05
  Last Orbital Rotation      ...    6.5472e-04  Tolerance :   5.0000e-05


----------------------
UHF SPIN CONTAMINATION
----------------------

Warning: in a DFT calculation there is little theoretical justification to 
         calculate <S**2> as in Hartree-Fock theory. We will do it anyways
         but you should keep in mind that the values have only limited relevance

Expectation value of <S**2>     :     0.776880
Ideal value S*(S+1) for S=0.5   :     0.750000
Deviation                       :     0.026880

----------------
ORBITAL ENERGIES
----------------
                 SPIN UP ORBITALS
  NO   OCC          E(Eh)            E(eV) 
   0   1.0000    -482.754720    -13136.4238 
   1   1.0000     -62.437854     -1699.0204 
   2   1.0000     -56.269853     -1531.1805 
   3   1.0000     -56.267419     -1531.1143 
   4   1.0000     -56.267404     -1531.1139 
   5   1.0000     -10.222278      -278.1623 
   6   1.0000     -10.219369      -278.0832 
   7   1.0000     -10.218861      -278.0694 
   8   1.0000      -8.655876      -235.5384 
   9   1.0000      -6.488816      -176.5697 
  10   1.0000      -6.476848      -176.2440 
  11   1.0000      -6.476785      -176.2423 
  12   1.0000      -2.602958       -70.8301 
  13   1.0000      -2.599639       -70.7398 
  14   1.0000      -2.599590       -70.7385 
  15   1.0000      -2.590240       -70.4840 
  16   1.0000      -2.590235       -70.4839 
  17   1.0000      -0.814095       -22.1527 
  18   1.0000      -0.749258       -20.3883 
  19   1.0000      -0.699018       -19.0212 
  20   1.0000      -0.575585       -15.6625 
  21   1.0000      -0.501039       -13.6340 
  22   1.0000      -0.460818       -12.5395 
  23   1.0000      -0.428491       -11.6598 
  24   1.0000      -0.409420       -11.1409 
  25   1.0000      -0.383410       -10.4331 
  26   1.0000      -0.328921        -8.9504 
  27   1.0000      -0.267983        -7.2922 
  28   1.0000      -0.267690        -7.2842 
  29   1.0000      -0.227137        -6.1807 
  30   0.0000      -0.007514        -0.2045 
  31   0.0000       0.060069         1.6346 
  32   0.0000       0.077771         2.1163 
  33   0.0000       0.095081         2.5873 
  34   0.0000       0.109705         2.9852 
  35   0.0000       0.139636         3.7997 
  36   0.0000       0.142196         3.8694 
  37   0.0000       0.254855         6.9350 
  38   0.0000       0.313236         8.5236 
  39   0.0000       0.337638         9.1876 
  40   0.0000       0.373891        10.1741 

                 SPIN DOWN ORBITALS
  NO   OCC          E(Eh)            E(eV) 
   0   1.0000    -482.754193    -13136.4094 
   1   1.0000     -62.437577     -1699.0129 
   2   1.0000     -56.268761     -1531.1508 
   3   1.0000     -56.267214     -1531.1087 
   4   1.0000     -56.267199     -1531.1083 
   5   1.0000     -10.222284      -278.1625 
   6   1.0000     -10.213599      -277.9262 
   7   1.0000     -10.211139      -277.8592 
   8   1.0000      -8.655093      -235.5170 
   9   1.0000      -6.486705      -176.5122 
  10   1.0000      -6.476490      -176.2343 
  11   1.0000      -6.476426      -176.2325 
  12   1.0000      -2.601483       -70.7900 
  13   1.0000      -2.598461       -70.7077 
  14   1.0000      -2.598413       -70.7064 
  15   1.0000      -2.590035       -70.4784 
  16   1.0000      -2.590030       -70.4783 
  17   1.0000      -0.804429       -21.8896 
  18   1.0000      -0.741595       -20.1798 
  19   1.0000      -0.677810       -18.4441 
  20   1.0000      -0.569652       -15.5010 
  21   1.0000      -0.496505       -13.5106 
  22   1.0000      -0.455337       -12.3904 
  23   1.0000      -0.410532       -11.1711 
  24   1.0000      -0.404054       -10.9949 
  25   1.0000      -0.380939       -10.3659 
  26   1.0000      -0.305556        -8.3146 
  27   1.0000      -0.265394        -7.2217 
  28   1.0000      -0.265068        -7.2129 
  29   0.0000      -0.125402        -3.4124 
  30   0.0000       0.011024         0.3000 
  31   0.0000       0.062460         1.6996 
  32   0.0000       0.080521         2.1911 
  33   0.0000       0.100303         2.7294 
  34   0.0000       0.130287         3.5453 
  35   0.0000       0.142937         3.8895 
  36   0.0000       0.144261         3.9255 
  37   0.0000       0.255705         6.9581 
  38   0.0000       0.317097         8.6286 
  39   0.0000       0.340916         9.2768 
*Only the first 10 virtual orbitals were printed.

                    ********************************
                    * MULLIKEN POPULATION ANALYSIS *
                    ********************************

--------------------------------------------
MULLIKEN ATOMIC CHARGES AND SPIN POPULATIONS
--------------------------------------------
   0 C :   -0.048541   -0.240562
   1 C :   -0.001297    0.588625
   2 H :    0.020911    0.008542
   3 H :    0.042803   -0.027321
   4 H :    0.036464   -0.025479
   5 C :   -0.033114    0.590735
   6 H :    0.050206   -0.021614
   7 H :    0.052632   -0.022130
   8 H :    0.106651   -0.024813
   9 Br:   -0.226715    0.174016
Sum of atomic charges         :   -0.0000000
Sum of atomic spin populations:    1.0000000

-----------------------------------------------------
MULLIKEN REDUCED ORBITAL CHARGES AND SPIN POPULATIONS
-----------------------------------------------------
CHARGE
  0 C s       :     3.143426  s :     3.143426
      pz      :     0.954529  p :     2.868108
      px      :     0.957510
      py      :     0.956069
      dz2     :     0.009094  d :     0.037007
      dxz     :     0.012762
      dyz     :     0.006345
      dx2y2   :     0.004729
      dxy     :     0.004076

  1 C s       :     3.133127  s :     3.133127
      pz      :     0.962683  p :     2.843015
      px      :     0.938658
      py      :     0.941673
      dz2     :     0.006689  d :     0.025155
      dxz     :     0.010062
      dyz     :     0.004466
      dx2y2   :     0.002863
      dxy     :     0.001075

  2 H s       :     0.956585  s :     0.956585
      pz      :     0.006060  p :     0.022504
      px      :     0.011849
      py      :     0.004595

  3 H s       :     0.933824  s :     0.933824
      pz      :     0.006481  p :     0.023373
      px      :     0.012302
      py      :     0.004590

  4 H s       :     0.940248  s :     0.940248
      pz      :     0.006837  p :     0.023288
      px      :     0.011346
      py      :     0.005105

  5 C s       :     3.095416  s :     3.095416
      pz      :     0.966126  p :     2.912107
      px      :     0.971690
      py      :     0.974291
      dz2     :     0.005240  d :     0.025591
      dxz     :     0.007725
      dyz     :     0.003783
      dx2y2   :     0.005695
      dxy     :     0.003149

  6 H s       :     0.926193  s :     0.926193
      pz      :     0.006410  p :     0.023601
      px      :     0.012465
      py      :     0.004726

  7 H s       :     0.923421  s :     0.923421
      pz      :     0.012510  p :     0.023947
      px      :     0.003753
      py      :     0.007684

  8 H s       :     0.852826  s :     0.852826
      pz      :     0.011016  p :     0.040523
      px      :     0.007041
      py      :     0.022466

  9 Brs       :     7.947434  s :     7.947434
      pz      :     5.846602  p :    17.261219
      px      :     5.961258
      py      :     5.453358
      dz2     :     2.001006  d :    10.018061
      dxz     :     2.000554
      dyz     :     2.007962
      dx2y2   :     2.006596
      dxy     :     2.001943


SPIN
  0 C s       :    -0.032608  s :    -0.032608
      pz      :    -0.044031  p :    -0.215797
      px      :    -0.021591
      py      :    -0.150175
      dz2     :     0.001654  d :     0.007843
      dxz     :     0.000104
      dyz     :     0.003901
      dx2y2   :     0.000424
      dxy     :     0.001759

  1 C s       :     0.058951  s :     0.058951
      pz      :     0.052132  p :     0.531685
      px      :     0.031068
      py      :     0.448486
      dz2     :    -0.000416  d :    -0.002012
      dxz     :    -0.000029
      dyz     :    -0.000731
      dx2y2   :    -0.000790
      dxy     :    -0.000046

  2 H s       :     0.009414  s :     0.009414
      pz      :    -0.000108  p :    -0.000872
      px      :    -0.000053
      py      :    -0.000710

  3 H s       :    -0.030077  s :    -0.030077
      pz      :     0.000176  p :     0.002756
      px      :     0.000161
      py      :     0.002419

  4 H s       :    -0.027932  s :    -0.027932
      pz      :     0.000139  p :     0.002453
      px      :     0.000138
      py      :     0.002177

  5 C s       :     0.051973  s :     0.051973
      pz      :     0.090783  p :     0.540622
      px      :     0.022085
      py      :     0.427754
      dz2     :    -0.000056  d :    -0.001860
      dxz     :    -0.000181
      dyz     :    -0.000608
      dx2y2   :    -0.000562
      dxy     :    -0.000453

  6 H s       :    -0.024054  s :    -0.024054
      pz      :     0.000231  p :     0.002440
      px      :     0.000110
      py      :     0.002099

  7 H s       :    -0.024936  s :    -0.024936
      pz      :     0.000828  p :     0.002806
      px      :    -0.000072
      py      :     0.002049

  8 H s       :    -0.033793  s :    -0.033793
      pz      :     0.001808  p :     0.008980
      px      :     0.000106
      py      :     0.007067

  9 Brs       :     0.000384  s :     0.000384
      pz      :     0.033063  p :     0.174511
      px      :     0.003442
      py      :     0.138006
      dz2     :    -0.000014  d :    -0.000878
      dxz     :    -0.000017
      dyz     :    -0.000436
      dx2y2   :    -0.000369
      dxy     :    -0.000043



                     *******************************
                     * LOEWDIN POPULATION ANALYSIS *
                     *******************************

-------------------------------------------
LOEWDIN ATOMIC CHARGES AND SPIN POPULATIONS
-------------------------------------------
   0 C :   -0.033810   -0.138634
   1 C :    0.003492    0.487665
   2 H :    0.036259    0.000479
   3 H :    0.030873   -0.001784
   4 H :    0.028988   -0.001988
   5 C :   -0.033343    0.476442
   6 H :    0.032848    0.000502
   7 H :    0.035752    0.001140
   8 H :    0.031971    0.020293
   9 Br:   -0.133029    0.155885

----------------------------------------------------
LOEWDIN REDUCED ORBITAL CHARGES AND SPIN POPULATIONS
----------------------------------------------------
CHARGE
  0 C s       :     2.872658  s :     2.872658
      pz      :     1.064036  p :     3.065389
      px      :     1.057009
      py      :     0.944345
      dz2     :     0.025051  d :     0.095763
      dxz     :     0.034673
      dyz     :     0.014649
      dx2y2   :     0.011977
      dxy     :     0.009413

  1 C s       :     2.900820  s :     2.900820
      pz      :     1.050172  p :     3.031238
      px      :     1.048296
      py      :     0.932770
      dz2     :     0.018007  d :     0.064450
      dxz     :     0.026888
      dyz     :     0.009798
      dx2y2   :     0.006987
      dxy     :     0.002770

  2 H s       :     0.898464  s :     0.898464
      pz      :     0.017398  p :     0.065277
      px      :     0.033876
      py      :     0.014004

  3 H s       :     0.900388  s :     0.900388
      pz      :     0.017836  p :     0.068739
      px      :     0.036213
      py      :     0.014690

  4 H s       :     0.902518  s :     0.902518
      pz      :     0.018785  p :     0.068494
      px      :     0.033542
      py      :     0.016167

  5 C s       :     2.903390  s :     2.903390
      pz      :     1.039818  p :     3.065164
      px      :     1.060615
      py      :     0.964730
      dz2     :     0.012605  d :     0.064789
      dxz     :     0.021343
      dyz     :     0.009473
      dx2y2   :     0.014912
      dxy     :     0.006456

  6 H s       :     0.895812  s :     0.895812
      pz      :     0.019101  p :     0.071340
      px      :     0.036507
      py      :     0.015732

  7 H s       :     0.892305  s :     0.892305
      pz      :     0.037278  p :     0.071943
      px      :     0.010689
      py      :     0.023975

  8 H s       :     0.846428  s :     0.846428
      pz      :     0.030878  p :     0.121602
      px      :     0.016477
      py      :     0.074246

  9 Brs       :     7.852240  s :     7.852240
      pz      :     5.841319  p :    17.251959
      px      :     5.957609
      py      :     5.453032
      dz2     :     2.001264  d :    10.028830
      dxz     :     2.000758
      dyz     :     2.013230
      dx2y2   :     2.010874
      dxy     :     2.002704


SPIN
  0 C s       :    -0.008534  s :    -0.008534
      pz      :    -0.019796  p :    -0.149334
      px      :    -0.008461
      py      :    -0.121078
      dz2     :     0.004221  d :     0.019234
      dxz     :     0.000850
      dyz     :     0.008803
      dx2y2   :     0.000907
      dxy     :     0.004453

  1 C s       :     0.016027  s :     0.016027
      pz      :     0.043816  p :     0.475889
      px      :     0.015636
      py      :     0.416437
      dz2     :    -0.001025  d :    -0.004251
      dxz     :    -0.000615
      dyz     :    -0.001604
      dx2y2   :    -0.000926
      dxy     :    -0.000082

  2 H s       :     0.004298  s :     0.004298
      pz      :    -0.000515  p :    -0.003818
      px      :    -0.000523
      py      :    -0.002781

  3 H s       :    -0.013491  s :    -0.013491
      pz      :     0.001241  p :     0.011707
      px      :     0.001494
      py      :     0.008972

  4 H s       :    -0.012978  s :    -0.012978
      pz      :     0.001257  p :     0.010990
      px      :     0.001297
      py      :     0.008435

  5 C s       :     0.018322  s :     0.018322
      pz      :     0.072121  p :     0.462227
      px      :     0.011267
      py      :     0.378839
      dz2     :    -0.000367  d :    -0.004107
      dxz     :    -0.000765
      dyz     :    -0.001011
      dx2y2   :    -0.000840
      dxy     :    -0.001123

  6 H s       :    -0.011917  s :    -0.011917
      pz      :     0.001889  p :     0.012418
      px      :     0.001412
      py      :     0.009117

  7 H s       :    -0.012160  s :    -0.012160
      pz      :     0.003285  p :     0.013299
      px      :     0.000205
      py      :     0.009809

  8 H s       :    -0.014274  s :    -0.014274
      pz      :     0.007172  p :     0.034567
      px      :     0.000577
      py      :     0.026818

  9 Brs       :     0.000320  s :     0.000320
      pz      :     0.029368  p :     0.155603
      px      :     0.002912
      py      :     0.123323
      dz2     :     0.000018  d :    -0.000038
      dxz     :    -0.000022
      dyz     :    -0.000020
      dx2y2   :     0.000015
      dxy     :    -0.000030



                      *****************************
                      * MAYER POPULATION ANALYSIS *
                      *****************************

  NA   - Mulliken gross atomic population
  ZA   - Total nuclear charge
  QA   - Mulliken gross atomic charge
  VA   - Mayer's total valence
  BVA  - Mayer's bonded valence
  FA   - Mayer's free valence

  ATOM       NA         ZA         QA         VA         BVA        FA
  0 C      6.0485     6.0000    -0.0485     4.1200     4.0916     0.0283
  1 C      6.0013     6.0000    -0.0013     3.9244     3.6788     0.2456
  2 H      0.9791     1.0000     0.0209     0.9797     0.9796     0.0001
  3 H      0.9572     1.0000     0.0428     0.9762     0.9753     0.0009
  4 H      0.9635     1.0000     0.0365     0.9850     0.9842     0.0008
  5 C      6.0331     6.0000    -0.0331     3.8974     3.6400     0.2573
  6 H      0.9498     1.0000     0.0502     0.9897     0.9890     0.0006
  7 H      0.9474     1.0000     0.0526     0.9814     0.9807     0.0007
  8 H      0.8933     1.0000     0.1067     1.0463     1.0447     0.0016
  9 Br    35.2267    35.0000    -0.2267     0.9485     0.9177     0.0308

  Mayer bond orders larger than 0.100000
B(  0-C ,  1-C ) :   1.6319 B(  0-C ,  2-H ) :   0.9630 B(  0-C ,  5-C ) :   1.3809 
B(  1-C ,  3-H ) :   0.9551 B(  1-C ,  4-H ) :   0.9583 B(  5-C ,  6-H ) :   0.9532 
B(  5-C ,  7-H ) :   0.9424 B(  5-C ,  8-H ) :   0.2368 B(  8-H ,  9-Br) :   0.7760 


-------
TIMINGS
-------

Total SCF time: 0 days 0 hours 0 min 2 sec 

Total time                  ....       2.883 sec
Sum of individual times     ....       2.687 sec  ( 93.2%)

SCF preparation             ....       0.306 sec  ( 10.6%)
Fock matrix formation       ....       2.218 sec  ( 77.0%)
  Startup                   ....       0.004 sec  (  0.2% of F)
  Split-RI-J                ....       0.130 sec  (  5.9% of F)
  Chain of spheres X        ....       1.703 sec  ( 76.8% of F)
  XC integration            ....       0.481 sec  ( 21.7% of F)
    XC Preparation          ....       0.000 sec  (  0.0% of XC)
    Basis function eval.    ....       0.108 sec  ( 22.4% of XC)
    Density eval.           ....       0.099 sec  ( 20.5% of XC)
    XC-Functional eval.     ....       0.036 sec  (  7.4% of XC)
    XC-Potential eval.      ....       0.132 sec  ( 27.3% of XC)
Diagonalization             ....       0.000 sec  (  0.0%)
Density matrix formation    ....       0.025 sec  (  0.9%)
Total Energy calculation    ....       0.012 sec  (  0.4%)
Population analysis         ....       0.009 sec  (  0.3%)
Orbital Transformation      ....       0.014 sec  (  0.5%)
Orbital Orthonormalization  ....       0.000 sec  (  0.0%)
DIIS solution               ....       0.062 sec  (  2.2%)
SOSCF solution              ....       0.040 sec  (  1.4%)
Finished LeanSCF after   2.9 sec

Maximum memory used throughout the entire LEANSCF-calculation: 9.1 MB

-------------------------   --------------------
FINAL SINGLE POINT ENERGY     -2691.422268269185
-------------------------   --------------------



           ************************************************************
           *        Program running with 8 parallel MPI-processes     *
           *              working on a common directory               *
           ************************************************************

------------------------------------------------------------------------------
                              ORCA PROPERTY CALCULATIONS
------------------------------------------------------------------------------

GBWName                                 ... radical_017.gbw
Number of atoms                         ...     10
Number of basis functions               ...    104
Max core memory                         ...   1200 MB

Electric properties:
Dipole moment                           ... YES
Quadrupole moment                       ...  NO
Static polarizability (Dipole/Dipole)   ...  NO
Static polarizability (Dipole/Quad.)    ...  NO
Static polarizability (Quad./Quad.)     ...  NO
Static polarizability (Velocity)        ...  NO
Static hyperpolarizability              ...  NO

Atomic electric properties:
Dipole moment                           ...  NO
Quadrupole moment                       ...  NO
Static polarizability                   ...  NO

Choice of electric origin               ... Center of mass
Position of electric origin             ...    -1.051374    -2.548123    -2.259330

General magnetic properties:
Magnetizability                         ...  NO

EPR properties:
g-Tensor (aka g-matrix)                 ...  NO
Zero-Field splitting spin-orbit         ...  NO
Zero-field splitting spin-spin          ...  NO
Hyperfine couplings                     ...  NO (   0 nuclei)
Quadrupole couplings                    ...  NO (   0 nuclei)
Contact density                         ...  NO (   0 nuclei)

NMR properties:
Chemical shifts                         ...  NO (   0 nuclei)
Spin-rotation constants                 ...  NO (   0 nuclei)
Spin-spin couplings                     ...  NO (   0 nuclei,    0 pairs)

Choice of magnetic origin               ... GIAO
Position of magnetic origin             ...     0.000000     0.000000     0.000000

Properties with geometric perturbations:
SCF Hessian                             ...  NO
IR spectrum                             ...  NO
VCD spectrum                            ...  NO
X-ray spectroscopy properties:
SCF XES/XAS/RIXS spectra                ...  NO

SCF SOC stabilization energy            ...  NO
Diagonal Born-Oppenheimer correction    ...  NO

-------------
DIPOLE MOMENT
-------------

Method             : SCF
Type of density    : Electron Density
Multiplicity       :   2
Irrep              :   0
Energy             : -2691.4222682691852242 Eh
Basis              : AO
                                X                 Y                 Z
Electronic contribution:     -6.752225459     -15.748989761     -14.230311608
Nuclear contribution   :      7.115007413      16.697064662      14.969421592
                        -----------------------------------------
Total Dipole Moment    :      0.362781954       0.948074901       0.739109984
                        -----------------------------------------
Magnitude (a.u.)       :      1.255683213
Magnitude (Debye)      :      3.191693080



--------------------
Rotational spectrum 
--------------------
 
Rotational constants in cm-1:             0.399373             0.042406             0.040004 
Rotational constants in MHz :         11972.893833          1271.308725          1199.287288 

Dipole components along the rotational axes: 
x,y,z [a.u.] :    -1.241554    -0.187576    -0.009958 
x,y,z [Debye]:    -3.155780    -0.476779    -0.025311 

 

Dipole moment calculation done in   0.0 sec 

Maximum memory used throughout the entire PROP-calculation: 5.2 MB

--------------------------------
SUGGESTED CITATIONS FOR THIS RUN
--------------------------------

Below you find a list of papers that are relevant to this ORCA run
We neither can nor want to force you to cite these papers, but we appreciate if you do
You receive ORCA, which is the product of decades of hard work by many enthusiastic individuals, for free
The only thing we kindly ask in return is that you cite our papers,
We deeply appreciate it, if you show your appreciation for ORCA by not just citing the generic ORCA reference.

Please note that relegating all ORCA citations to the supporting information does *not* help us.
SI sections are not indexed - citations you put there will not count into any citation statistics
But we need these citations in order to attract the funding resources that allow us to do what we are doing

Therefore, if you are a happy ORCA user, please consider citing a few of the papers listed below in the main body of your paper

In addition to the list printed below, the program has created the file radical_017.bibtex that contains the list in bibtex format
You can import this file easily into all common literature databanks and citation aid programs


List of essential papers. We consider these as the minimum necessary citations

  1. Neese, F.
     Software update: the ORCA program system, version 6.0
     WIRES Comput. Molec. Sci. 2025 15(1), e70019
     doi.org/10.1002/wcms.7019

List of papers to cite with high priority. The work reported in these papers was absolutely
necessary for this run to complete.
Our perspective: the developers of density functionals and basis sets usually get cited in chemistry papers
Good! But without the algorithms to do something with them, the functionals or basis sets would not do anything.
Hence, in our opinion, the algorithm design and method developments papers are equally worthy of getting cited

  1. Neese, F.
     An improvement of the resolution of the identity approximation for the formation of the Coulomb matrix
     J. Comp. Chem. 2003 24(14), 1740-1747
     doi.org/10.1002/jcc.10318
  2. Neese, F.; Wennmohs, F.; Hansen, A.; Becker, U.
     Efficient, approximate and parallel Hartree-Fock and hybrid DFT calculations. A 'chain-of-spheres' algorithm for the Hartree-Fock exchange
     Chem. Phys. 2009 356(1-3), 98-109
     doi.org/10.1016/j.chemphys.2008.10.036
  3. Helmich-Paris, B.; de Souza, B.; Neese, F.; Izsák, R.
     An improved chain of spheres for exchange algorithm
     J. Chem. Phys. 2021 155(10), 104109
     doi.org/10.1063/5.0058766
  4. Neese, F.
     The SHARK Integral Generation and Digestion System
     J. Comp. Chem. 2022 44(3), 381
     doi.org/10.1002/jcc.26942

List of suggested additional citations. These are papers that are important in the 'surrounding' of 
of this run, or papers that preceded the highly important papers. If you like your results we are grateful for a citation.

  1. Izsak, R.; Neese, F.
     An overlap fitted chain of spheres exchange method
     J. Chem. Phys. 2011 135 , 144105
     doi.org/10.1063/1.3646921
  2. Izsak, R.; Hansen, A.; Neese, F.
     The resolution of identity and chain of spheres approximations for the LPNO-CCSD singles Fock term
     Molec. Phys. 2012 110 , 2413-2417
     doi.org/10.1080/00268976.2012.687466
  3. Neese, F.
     The ORCA program system
     WIRES Comput. Molec. Sci. 2012 2(1), 73-78
     doi.org/10.1002/wcms.81
  4. Izsak, R.; Neese, F.; Klopper, W.
     Robust fitting techniques in the chain of spheres approximation to the Fock exchange: The role of the complementary space
     J. Chem. Phys. 2013 139 , 
     doi.org/10.1063/1.4819264
  5. Neese, F.
     Software update: the ORCA program system, version 4.0
     WIRES Comput. Molec. Sci. 2018 8(1), 1-6
     doi.org/10.1002/wcms.1327
  6. Neese, F.; Wennmohs, F.; Becker, U.; Riplinger, C.
     The ORCA quantum chemistry program package
     J. Chem. Phys. 2020 152(22), 224108
     doi.org/10.1063/5.0004608
  7. Neese, F.
     Software update: The ORCA program system—Version 5.0
     WIRES Comput. Molec. Sci. 2022 12(1), e1606
     doi.org/10.1002/wcms.1606

List of optional additional citations

  1. Neese, F.
     Approximate second-order SCF convergence for spin unrestricted wavefunctions
     Chem. Phys. Lett. 2000 325(1-3), 93-98
     doi.org/10.1016/s0009-2614(00)00662-x

Timings for individual modules:

Sum of individual times          ...        4.924 sec (=   0.082 min)
Startup calculation              ...        0.887 sec (=   0.015 min)  18.0 %
SCF iterations                   ...        3.519 sec (=   0.059 min)  71.5 %
Property calculations            ...        0.518 sec (=   0.009 min)  10.5 %
                             ****ORCA TERMINATED NORMALLY****
TOTAL RUN TIME: 0 days 0 hours 0 minutes 5 seconds 424 msec
