[Molden Format]
[Title]
 Molden file created by orca_2mkl for BaseName=radical_025

[Atoms] AU
C    1   6          1.1735690620         0.9124901686         0.3515873267 
C    2   6          1.3228423088         0.0872958988         2.8270680909 
H    3   1          2.9454802201         1.3392394625        -0.6396704066 
H    4   1          3.1333511232        -0.0643432851         3.8064148803 
H    5   1         -0.3848654039        -0.4134777473         3.8827276908 
C    6   6         -1.0758928976         1.2108873737        -0.9918605559 
H    7   1         -2.9026741438         0.8461758991        -0.0905764633 
H    8   1         -1.0989003133         2.0238759024        -2.8893629129 
H    9   1         -1.2827120846        -1.9506112202        -2.5579276257 
Br  10  35         -1.8474454014        -4.3270873425        -3.8604043560 
[GTO]
  1 0
s   5 1.0 
     1238.4016938000         0.8208956682
      186.2900499200         1.4766449896
       42.2511763460         2.1526124058
       11.6765579320         2.1081722461
        3.5930506482         0.8290999933
s   1 1.0 
        0.4024514736         0.3601183351
s   1 1.0 
        0.1309018267         0.1551027052
p   3 1.0 
        9.4680970621         1.3467645142
        2.0103545142         1.0678070931
        0.5477100471         0.5108735714
p   1 1.0 
        0.1526861379         0.1360471976
d   1 1.0 
        0.8000000000         1.9292013661

  2 0
s   5 1.0 
     1238.4016938000         0.8208956682
      186.2900499200         1.4766449896
       42.2511763460         2.1526124058
       11.6765579320         2.1081722461
        3.5930506482         0.8290999933
s   1 1.0 
        0.4024514736         0.3601183351
s   1 1.0 
        0.1309018267         0.1551027052
p   3 1.0 
        9.4680970621         1.3467645142
        2.0103545142         1.0678070931
        0.5477100471         0.5108735714
p   1 1.0 
        0.1526861379         0.1360471976
d   1 1.0 
        0.8000000000         1.9292013661

  3 0
s   3 1.0 
       13.0107010000         0.1634903809
        1.9622572000         0.2773515510
        0.4445379600         0.3157501452
s   1 1.0 
        0.1219496200         0.1470772262
p   1 1.0 
        0.8000000000         1.0784563492

  4 0
s   3 1.0 
       13.0107010000         0.1634903809
        1.9622572000         0.2773515510
        0.4445379600         0.3157501452
s   1 1.0 
        0.1219496200         0.1470772262
p   1 1.0 
        0.8000000000         1.0784563492

  5 0
s   3 1.0 
       13.0107010000         0.1634903809
        1.9622572000         0.2773515510
        0.4445379600         0.3157501452
s   1 1.0 
        0.1219496200         0.1470772262
p   1 1.0 
        0.8000000000         1.0784563492

  6 0
s   5 1.0 
     1238.4016938000         0.8208956682
      186.2900499200         1.4766449896
       42.2511763460         2.1526124058
       11.6765579320         2.1081722461
        3.5930506482         0.8290999933
s   1 1.0 
        0.4024514736         0.3601183351
s   1 1.0 
        0.1309018267         0.1551027052
p   3 1.0 
        9.4680970621         1.3467645142
        2.0103545142         1.0678070931
        0.5477100471         0.5108735714
p   1 1.0 
        0.1526861379         0.1360471976
d   1 1.0 
        0.8000000000         1.9292013661

  7 0
s   3 1.0 
       13.0107010000         0.1634903809
        1.9622572000         0.2773515510
        0.4445379600         0.3157501452
s   1 1.0 
        0.1219496200         0.1470772262
p   1 1.0 
        0.8000000000         1.0784563492

  8 0
s   3 1.0 
       13.0107010000         0.1634903809
        1.9622572000         0.2773515510
        0.4445379600         0.3157501452
s   1 1.0 
        0.1219496200         0.1470772262
p   1 1.0 
        0.8000000000         1.0784563492

  9 0
s   3 1.0 
       13.0107010000         0.1634903809
        1.9622572000         0.2773515510
        0.4445379600         0.3157501452
s   1 1.0 
        0.1219496200         0.1470772262
p   1 1.0 
        0.8000000000         1.0784563492

 10 0
s   6 1.0 
   113286.3877600000         7.5076141183
    17009.6263030000        13.8835270484
     3870.1842567000        22.7307285566
     1093.0357227000        30.8227297499
      356.3972179700        27.2481937511
      123.1253964300         9.6953381145
s   3 1.0 
      236.7408400700        -4.7631125758
       28.4686610700         5.6113863182
       11.8834437220         1.9900291396
s   3 1.0 
       21.2696333120        -1.5429794477
        3.6129226841         1.3310800628
        1.6626648969         0.4300130345
s   1 1.0 
        0.3482379323         0.3230852630
s   1 1.0 
        0.1301903139         0.1544699827
p   5 1.0 
     1560.2801881000       115.0180051576
      368.4785920500       143.9035925417
      117.2297884900       137.5255986684
       42.6489092480        78.9578527439
       16.0872250960        15.8580577654
p   3 1.0 
        8.6352810058         6.8437546680
        3.5613665502         3.7974971038
        1.5292626609         0.5585414278
p   1 1.0 
        0.5306429485         0.6455696201
p   1 1.0 
        0.1570275896         0.1408996918
d   4 1.0 
      104.8551864200       261.4493931636
       30.2811436880       176.6993802449
       10.6513942670        76.9545600188
        3.8699456233        17.5937671387
d   1 1.0 
        1.3240876762         4.6593398042
d   1 1.0 
        0.3890000000         0.5462379705

[5D]
[7F]
[9G]
[MO]
 Sym=     1a
 Ene= -4.82765001058579E+02
 Spin= Alpha
 Occup= 1.000000
  1       0.000005620526
  2      -0.000070390114
  3       0.000084075211
  4       0.000007416612
  5       0.000016495153
  6       0.000006616078
  7       0.000051770857
  8      -0.000064790293
  9       0.000144604884
 10      -0.000001957288
 11       0.000001934656
 12      -0.000001268248
 13      -0.000000507561
 14      -0.000007302193
 15       0.000001160432
 16      -0.000004653691
 17      -0.000178197018
 18      -0.000000870428
 19       0.000002696027
 20       0.000001861753
 21       0.000016455853
 22      -0.000029483341
 23       0.000095867642
 24      -0.000001533072
 25      -0.000000113236
 26      -0.000000433898
 27      -0.000005187477
 28      -0.000001505251
 29      -0.000005598970
 30      -0.000003097279
 31      -0.000002242462
 32       0.000004482210
 33      -0.000001045695
 34       0.000000052767
 35      -0.000012073946
 36       0.000001953217
 37       0.000001667378
 38      -0.000002560384
 39       0.000001076076
 40       0.000005960797
 41      -0.000000840967
 42       0.000001235435
 43      -0.000002934043
 44       0.000007746089
 45      -0.000151187644
 46       0.000656074817
 47      -0.000008480626
 48       0.000019964308
 49       0.000004923765
 50       0.000071040493
 51      -0.000226700760
 52      -0.000113953289
 53      -0.000002748765
 54       0.000002588055
 55       0.000012810829
 56      -0.000010302454
 57       0.000003221245
 58      -0.000024721694
 59      -0.000039865606
 60      -0.000003969929
 61       0.000007147654
 62      -0.000000739053
 63      -0.000042541000
 64      -0.000062198143
 65      -0.000006805060
 66       0.000003444712
 67      -0.000000422717
 68       0.000125185415
 69      -0.000996640189
 70      -0.000025679580
 71      -0.000143843818
 72      -0.000076531552
 73      -0.994981957631
 74      -0.015688915515
 75       0.003923145332
 76      -0.002330401575
 77       0.001728275978
 78      -0.000003231736
 79      -0.000012392510
 80      -0.000006836179
 81       0.000010445902
 82       0.000039561784
 83       0.000021878049
 84      -0.000040214410
 85      -0.000152118527
 86      -0.000084124435
 87       0.000098953455
 88       0.000389092272
 89       0.000214416866
 90      -0.000001577910
 91       0.000001750484
 92       0.000006711187
 93      -0.000005657985
 94       0.000003193230
 95       0.000004835976
 96      -0.000005400082
 97      -0.000020581263
 98       0.000017335794
 99      -0.000009889626
100      -0.000004127863
101       0.000005068259
102       0.000017942564
103      -0.000014860709
104       0.000009421791
 Sym=     1a
 Ene= -6.24481156558284E+01
 Spin= Alpha
 Occup= 1.000000
  1      -0.000013382654
  2       0.000169713560
  3      -0.000196392141
  4      -0.000017917809
  5      -0.000039265045
  6      -0.000016015436
  7      -0.000127183402
  8       0.000156328882
  9      -0.000344536276
 10       0.000004720844
 11      -0.000004428470
 12       0.000002569895
 13       0.000001637162
 14       0.000017068081
 15      -0.000002765475
 16       0.000011542973
 17       0.000423612986
 18       0.000001956773
 19      -0.000006513847
 20      -0.000004538222
 21      -0.000037618553
 22       0.000070117140
 23      -0.000228013915
 24       0.000003577767
 25       0.000000327959
 26       0.000001087262
 27       0.000012193998
 28       0.000003446054
 29       0.000014007825
 30       0.000008036620
 31       0.000005321673
 32      -0.000010611091
 33       0.000002447729
 34      -0.000000333203
 35       0.000028426450
 36      -0.000004560381
 37      -0.000003904409
 38       0.000005967728
 39      -0.000002009001
 40      -0.000014082745
 41       0.000001966012
 42      -0.000002844296
 43       0.000006863376
 44      -0.000018316777
 45       0.000363389389
 46      -0.001595767365
 47       0.000020403392
 48      -0.000046733904
 49      -0.000011370402
 50      -0.000170877113
 51       0.000548948638
 52       0.000274501501
 53       0.000006563332
 54      -0.000006242035
 55      -0.000030345910
 56       0.000024384833
 57      -0.000007460724
 58       0.000058482033
 59       0.000100143790
 60       0.000010030941
 61      -0.000016205672
 62       0.000001914620
 63       0.000101322898
 64       0.000152057789
 65       0.000016331363
 66      -0.000007554453
 67       0.000001881592
 68      -0.000328368082
 69       0.002456389507
 70       0.000064839197
 71       0.000358659546
 72       0.000191126442
 73       0.347186558692
 74      -1.046958024773
 75      -0.018589444659
 76       0.006305142418
 77      -0.004395993455
 78      -0.000080138583
 79      -0.000358073541
 80      -0.000192281481
 81      -0.000035078019
 82      -0.000138309846
 83      -0.000076056383
 84       0.000101975633
 85       0.000389457549
 86       0.000215279203
 87      -0.000243164779
 88      -0.000958802050
 89      -0.000528377828
 90       0.000011444178
 91      -0.000010432426
 92      -0.000045965013
 93       0.000040149000
 94      -0.000019542988
 95      -0.000013506846
 96       0.000014453708
 97       0.000056581415
 98      -0.000048089971
 99       0.000026091354
100       0.000009066337
101      -0.000011404810
102      -0.000039624933
103       0.000032696033
104      -0.000020577070
 Sym=     1a
 Ene= -5.62798816551667E+01
 Spin= Alpha
 Occup= 1.000000
  1       0.000014773346
  2      -0.000183658111
  3       0.000109042126
  4       0.000020322092
  5       0.000044177749
  6       0.000018195562
  7       0.000173070539
  8      -0.000178361105
  9       0.000410660227
 10      -0.000006345941
 11       0.000003759015
 12      -0.000003291231
 13      -0.000002634392
 14      -0.000020448171
 15       0.000003295425
 16      -0.000017008511
 17      -0.000452630205
 18      -0.000002694056
 19       0.000007746609
 20       0.000005149923
 21       0.000041707616
 22      -0.000079469523
 23       0.000249414176
 24      -0.000003901959
 25       0.000000753106
 26      -0.000001002274
 27      -0.000013523693
 28      -0.000003961211
 29      -0.000013061920
 30       0.000002597514
 31      -0.000007084665
 32       0.000011340208
 33      -0.000004015283
 34      -0.000001268884
 35      -0.000036980583
 36       0.000005519691
 37       0.000004299807
 38      -0.000005177242
 39       0.000001183447
 40       0.000015570487
 41      -0.000001663963
 42       0.000003511706
 43      -0.000007790565
 44       0.000016087223
 45      -0.000394929111
 46       0.001876584664
 47      -0.000028581210
 48       0.000037975440
 49       0.000003371522
 50       0.000254906757
 51      -0.000626520655
 52      -0.000294092260
 53      -0.000010295905
 54       0.000008473330
 55       0.000047038822
 56      -0.000041229305
 57       0.000008444086
 58      -0.000059573669
 59      -0.000102631704
 60      -0.000014722851
 61       0.000024777234
 62      -0.000002495357
 63      -0.000114750519
 64      -0.000179414757
 65      -0.000024366896
 66       0.000016107806
 67      -0.000003693001
 68       0.000602517290
 69      -0.002846449250
 70      -0.000180794937
 71      -0.000852490191
 72      -0.000461211202
 73       0.000180033270
 74      -0.000536262376
 75       0.000271588389
 76      -0.001003579956
 77       0.001968748581
 78       0.172740468585
 79       0.862792103330
 80       0.455224427828
 81       0.004178023275
 82       0.020817078796
 83       0.010988049502
 84      -0.001152211036
 85      -0.005587956585
 86      -0.002962756681
 87       0.000627793317
 88       0.002855799026
 89       0.001530985425
 90      -0.000011639890
 91       0.000010909126
 92       0.000046664803
 93      -0.000040778893
 94       0.000019971629
 95       0.000007560074
 96      -0.000008840785
 97      -0.000031470943
 98       0.000026396652
 99      -0.000015544202
100       0.000034367386
101      -0.000031314687
102      -0.000141880133
103       0.000123624903
104      -0.000057602937
 Sym=     1a
 Ene= -5.62777215476390E+01
 Spin= Alpha
 Occup= 1.000000
  1       0.000000765364
  2      -0.000012109383
  3       0.000134052781
  4       0.000002805479
  5       0.000008603607
  6      -0.000003231827
  7      -0.000066442216
  8      -0.000108982554
  9       0.000112500753
 10       0.000000663472
 11      -0.000000326375
 12      -0.000000745911
 13       0.000004004457
 14       0.000005118067
 15       0.000000263697
 16      -0.000004486485
 17      -0.000184596642
 18       0.000006495543
 19      -0.000009504321
 20       0.000002007644
 21      -0.000023861147
 22       0.000025310552
 23       0.000050166410
 24      -0.000000650506
 25      -0.000002656104
 26      -0.000002674502
 27      -0.000002650594
 28       0.000001037530
 29       0.000010018329
 30       0.000047344154
 31      -0.000001793232
 32       0.000006702768
 33       0.000002823799
 34       0.000012567341
 35       0.000033751452
 36      -0.000001994404
 37      -0.000004293372
 38      -0.000006006328
 39      -0.000002490365
 40       0.000030835354
 41      -0.000000629538
 42      -0.000003871960
 43      -0.000006602164
 44      -0.000003647071
 45       0.000056291694
 46      -0.000181974309
 47      -0.000015681232
 48      -0.000024327633
 49       0.000009940694
 50       0.000072238630
 51       0.000150986364
 52      -0.000054929579
 53       0.000005893333
 54       0.000004602100
 55      -0.000001556462
 56      -0.000001588388
 57      -0.000002823324
 58       0.000114489627
 59      -0.000113849719
 60      -0.000013607808
 61      -0.000004442654
 62       0.000013732226
 63      -0.000055573392
 64       0.000094344080
 65      -0.000011168845
 66      -0.000020543564
 67       0.000006247131
 68      -0.000002005095
 69       0.000209920428
 70      -0.000020639467
 71       0.000005779098
 72       0.000022419952
 73      -0.000001886122
 74       0.000005409026
 75      -0.000006106829
 76       0.000041470668
 77      -0.000135340633
 78      -0.674578851963
 79      -0.228354596120
 80       0.688785265828
 81      -0.016113927179
 82      -0.005457370947
 83       0.016449530519
 84       0.003899452061
 85       0.001331819699
 86      -0.003965832554
 87      -0.001447289697
 88      -0.000553130016
 89       0.001414885514
 90       0.000020933615
 91      -0.000007277421
 92       0.000016758875
 93       0.000003572388
 94      -0.000023839070
 95      -0.000007689706
 96       0.000004666145
 97      -0.000001347696
 98      -0.000005247918
 99       0.000010182283
100       0.000003502602
101      -0.000005221436
102      -0.000009603932
103       0.000010507725
104      -0.000007168702
 Sym=     1a
 Ene= -5.62776996970280E+01
 Spin= Alpha
 Occup= 1.000000
  1      -0.000009146027
  2       0.000101035919
  3      -0.000386632933
  4      -0.000021077088
  5      -0.000030750707
  6      -0.000020925067
  7       0.000204371133
  8       0.000153020515
  9       0.000111336528
 10      -0.000009044324
 11      -0.000006664616
 12       0.000005263274
 13      -0.000011516651
 14      -0.000009987277
 15      -0.000000598781
 16      -0.000007467357
 17       0.000119224504
 18       0.000001193864
 19      -0.000004679155
 20      -0.000003204365
 21      -0.000110481265
 22      -0.000039624530
 23      -0.000046686191
 24       0.000004372190
 25       0.000003092013
 26       0.000007449994
 27       0.000004814100
 28      -0.000002473383
 29       0.000004222609
 30      -0.000020921794
 31      -0.000003253701
 32      -0.000018638133
 33      -0.000018805383
 34       0.000010309760
 35       0.000032486669
 36       0.000000570100
 37       0.000002135198
 38       0.000003465357
 39      -0.000013562847
 40      -0.000070700755
 41      -0.000001415207
 42       0.000001642412
 43       0.000006506160
 44       0.000002578445
 45      -0.000062623651
 46       0.000481821071
 47       0.000024500927
 48       0.000027515584
 49       0.000036343292
 50       0.000010643864
 51      -0.000222172959
 52      -0.000103368190
 53       0.000005323629
 54      -0.000007525161
 55      -0.000001095839
 56      -0.000006806761
 57      -0.000000224140
 58      -0.000061114666
 59       0.000016754477
 60       0.000011619710
 61       0.000012238747
 62       0.000017644860
 63      -0.000099720395
 64       0.000080186367
 65       0.000010095406
 66       0.000006294619
 67       0.000014896188
 68       0.000005397517
 69      -0.000390451942
 70       0.000023616168
 71      -0.000053176497
 72      -0.000001823873
 73       0.000004392449
 74      -0.000012655798
 75       0.000014027471
 76      -0.000079486377
 77       0.000244480527
 78       0.704786629842
 79      -0.430072292549
 80       0.547668118746
 81       0.016837577907
 82      -0.010264049628
 83       0.013086085065
 84      -0.004081801251
 85       0.002450848708
 86      -0.003180082473
 87       0.001529949871
 88      -0.000784124248
 89       0.001229521256
 90       0.000015285029
 91       0.000017011886
 92       0.000012483622
 93       0.000017158431
 94       0.000020700197
 95      -0.000003512694
 96      -0.000008331866
 97      -0.000011199406
 98      -0.000000767577
 99      -0.000010912696
100      -0.000002305205
101       0.000005904521
102       0.000014408193
103      -0.000009064454
104       0.000008631037
 Sym=     1a
 Ene= -1.02160437170174E+01
 Spin= Alpha
 Occup= 1.000000
  1      -0.128133000476
  2      -0.003632013342
  3      -0.003711834366
  4      -0.001878742819
  5       0.000683046768
  6      -0.001150423663
  7      -0.000651896354
  8      -0.001291298465
  9       0.004536701932
 10      -0.000132852917
 11       0.001105487267
 12      -0.000333906876
 13       0.001004409470
 14      -0.000430982834
 15      -0.024422301778
 16      -0.000453423320
 17      -0.004566636006
 18      -0.000264927248
 19       0.000096353172
 20      -0.000166930453
 21       0.004854592055
 22      -0.000528870408
 23       0.002445703562
 24      -0.000056224303
 25      -0.000051514101
 26       0.000078936753
 27      -0.000220989959
 28      -0.000051175671
 29       0.000854117101
 30       0.000647426913
 31       0.000205817601
 32      -0.000027973099
 33       0.000283628490
 34      -0.000694873933
 35      -0.001993333475
 36      -0.000024482171
 37       0.000007695967
 38       0.000053341113
 39       0.000981702069
 40       0.001726012787
 41       0.000024889055
 42       0.000070320045
 43      -0.000110863099
 44      -0.979253779074
 45      -0.051714371351
 46       0.044188086371
 47       0.000704764235
 48       0.000780379816
 49       0.000743119027
 50       0.002042092052
 51      -0.005712830396
 52      -0.002053801101
 53      -0.000805532476
 54       0.000208305357
 55       0.001421173534
 56      -0.001435151358
 57      -0.000140982337
 58       0.003059310390
 59      -0.007481158766
 60       0.002394375360
 61       0.000927786203
 62      -0.001382457198
 63       0.003056107740
 64      -0.007854671229
 65      -0.000274370549
 66      -0.000900006445
 67       0.002841829908
 68      -0.000932515655
 69      -0.015072499853
 70       0.000037729214
 71       0.000022706283
 72      -0.000074375644
 73       0.000011013997
 74      -0.000019662716
 75       0.000191712622
 76      -0.002257049675
 77       0.009229533783
 78      -0.000005964044
 79      -0.000013856321
 80      -0.000004120075
 81       0.000021327085
 82       0.000050741612
 83       0.000016074517
 84      -0.000160361431
 85      -0.000478507949
 86      -0.000217458709
 87       0.001235624075
 88       0.004761254000
 89       0.002544416137
 90      -0.000014239440
 91       0.000017257218
 92       0.000056507879
 93      -0.000047015865
 94       0.000032842547
 95       0.000068174531
 96      -0.000082224126
 97      -0.000274028663
 98       0.000228056276
 99      -0.000155842005
100      -0.000227603076
101       0.000261676339
102       0.000938272391
103      -0.000787331809
104       0.000490123991
 Sym=     1a
 Ene= -1.02144891170620E+01
 Spin= Alpha
 Occup= 1.000000
  1      -0.750006854881
  2      -0.034419375867
  3       0.027721069749
  4       0.000175371808
  5      -0.000362983283
  6       0.001921822460
  7      -0.002857694607
  8      -0.002450144917
  9       0.006046438243
 10       0.000276496268
 11       0.000024727769
 12       0.000297531954
 13      -0.001412306194
 14      -0.000252929374
 15      -0.633982004773
 16      -0.027949758302
 17       0.004663554997
 18      -0.000069637934
 19       0.000740154951
 20      -0.002156811038
 21       0.000715544428
 22      -0.001355713368
 23       0.004259796992
 24       0.000472795844
 25      -0.000092123934
 26       0.000035736104
 27      -0.001041819416
 28      -0.000182859606
 29       0.003690504581
 30      -0.003969400149
 31      -0.001972076417
 32      -0.000234996138
 33       0.000566584046
 34       0.002768873965
 35      -0.003925616213
 36      -0.001502995174
 37       0.000061107918
 38      -0.000608893647
 39       0.002679743908
 40      -0.003785757798
 41       0.001406458344
 42       0.000313866884
 43      -0.000568243783
 44       0.113266189200
 45       0.007317855362
 46      -0.007726647851
 47       0.001325285906
 48       0.000157937715
 49       0.001124580612
 50       0.001534484660
 51      -0.000651585360
 52      -0.005619829475
 53      -0.000052835259
 54       0.000681501160
 55      -0.000346267971
 56       0.001058767579
 57      -0.000034490069
 58      -0.000169218188
 59       0.003431678001
 60      -0.000625924393
 61       0.000013358371
 62       0.000110338678
 63      -0.001773860634
 64       0.000025635637
 65      -0.000321856000
 66       0.000294637933
 67      -0.000496277013
 68       0.000404737950
 69      -0.007695824858
 70      -0.000181577576
 71       0.000179629710
 72       0.000061165070
 73       0.000008381395
 74      -0.000015291622
 75       0.000144758532
 76      -0.001455805708
 77       0.005152984691
 78       0.000004081858
 79      -0.000023425788
 80      -0.000004549489
 81      -0.000013131588
 82       0.000081941999
 83       0.000016842370
 84       0.000004418616
 85      -0.000502447736
 86      -0.000164205985
 87       0.000528539704
 88       0.002920727810
 89       0.001435810722
 90      -0.000011192236
 91       0.000006314627
 92       0.000040859687
 93      -0.000037411734
 94       0.000018012599
 95       0.000052588036
 96      -0.000032400509
 97      -0.000194518415
 98       0.000176479356
 99      -0.000087325007
100      -0.000153996851
101       0.000119377167
102       0.000596696985
103      -0.000527747260
104       0.000275266994
 Sym=     1a
 Ene= -1.02140694636191E+01
 Spin= Alpha
 Occup= 1.000000
  1       0.630605933141
  2       0.033716889683
  3      -0.034985171147
  4       0.000356394473
  5      -0.000652454713
  6       0.001505485236
  7       0.002772096373
  8       0.000316813312
  9       0.000003357321
 10       0.001566830745
 11       0.000077204607
 12      -0.001547670759
 13       0.001453007131
 14       0.000232833976
 15      -0.757459856808
 16      -0.039935591573
 17       0.033065299006
 18       0.000128136593
 19      -0.000425658727
 20       0.001133331267
 21      -0.001955154483
 22       0.000741627980
 23      -0.002621179472
 24      -0.001367228556
 25      -0.000155264294
 26       0.001543980894
 27      -0.001685544210
 28      -0.000292912808
 29      -0.002750348174
 30       0.005403411484
 31       0.001699144195
 32       0.000535224053
 33      -0.001414822320
 34       0.003802543888
 35      -0.005561490578
 36      -0.002254457305
 37       0.000194530718
 38      -0.001257008986
 39       0.003167450274
 40      -0.006641441570
 41       0.002112174901
 42       0.000624956476
 43      -0.001340162307
 44      -0.063089063917
 45      -0.004838750704
 46       0.010736079007
 47      -0.001451258422
 48      -0.000071952950
 49      -0.000780138728
 50       0.003687562033
 51       0.001477779414
 52       0.000337994182
 53      -0.000089395300
 54      -0.000716727831
 55       0.000377747578
 56      -0.001038049049
 57       0.000086949946
 58       0.001001777359
 59       0.000024935821
 60       0.000546541505
 61      -0.000017605201
 62      -0.000096907814
 63       0.000136681923
 64      -0.001917699613
 65       0.000050050590
 66      -0.000191737240
 67       0.000393501129
 68      -0.000121975854
 69       0.003449054328
 70       0.000170411046
 71      -0.000089288217
 72       0.000197492730
 73      -0.000003782652
 74       0.000006933216
 75      -0.000065232095
 76       0.000638659460
 77      -0.002291823117
 78      -0.000004651281
 79       0.000011545764
 80       0.000001038033
 81       0.000015446095
 82      -0.000040441429
 83      -0.000004278066
 84      -0.000042396860
 85       0.000233563206
 86       0.000061002756
 87      -0.000166256129
 88      -0.001303551464
 89      -0.000625563105
 90       0.000004478878
 91      -0.000001261549
 92      -0.000018581584
 93       0.000018409267
 94      -0.000007173032
 95      -0.000019614960
 96       0.000007564002
 97       0.000087134769
 98      -0.000083642332
 99       0.000034554891
100       0.000051838691
101      -0.000037165670
102      -0.000259017348
103       0.000230277416
104      -0.000108923673
 Sym=     1a
 Ene= -8.66608416668582E+00
 Spin= Alpha
 Occup= 1.000000
  1       0.000034065696
  2      -0.000382688217
  3       0.000444683290
  4       0.000039059119
  5       0.000077388573
  6       0.000035594579
  7       0.000266259502
  8      -0.000354102671
  9       0.000645290989
 10      -0.000009620637
 11       0.000009002086
 12       0.000003032526
 13      -0.000008339237
 14      -0.000027512263
 15       0.000008015388
 16      -0.000031757541
 17      -0.000831462792
 18      -0.000001217427
 19       0.000015161757
 20       0.000011543071
 21       0.000054667955
 22      -0.000132636430
 23       0.000446187266
 24      -0.000005924340
 25      -0.000002417203
 26      -0.000004045332
 27      -0.000022988401
 28      -0.000004428552
 29      -0.000041784272
 30      -0.000030363719
 31      -0.000009343431
 32       0.000021332918
 33      -0.000001089355
 34       0.000004782769
 35      -0.000049386014
 36       0.000007114257
 37       0.000007128221
 38      -0.000011225026
 39      -0.000004043458
 40       0.000028023541
 41      -0.000003063502
 42       0.000003765195
 43      -0.000011434224
 44       0.000041361329
 45      -0.000761761189
 46       0.003577931531
 47      -0.000043041135
 48       0.000077172071
 49       0.000016490536
 50       0.000329599718
 51      -0.001227945399
 52      -0.000609847690
 53      -0.000014322927
 54       0.000013615127
 55       0.000057705655
 56      -0.000046160301
 57       0.000010815558
 58      -0.000100766802
 59      -0.000260354112
 60      -0.000024252009
 61       0.000013173085
 62      -0.000010698730
 63      -0.000188916024
 64      -0.000338412935
 65      -0.000033230491
 66      -0.000004819109
 67      -0.000015432584
 68       0.001009268678
 69      -0.006446077763
 70      -0.000138155626
 71      -0.000754029609
 72      -0.000403458737
 73      -0.136659749478
 74       0.516877559385
 75      -1.093409459150
 76      -0.032298089009
 77       0.014247327206
 78       0.000337509683
 79       0.001466292899
 80       0.000791828912
 81      -0.000792943375
 82      -0.003453219003
 83      -0.001863747949
 84      -0.000299776605
 85      -0.001199435173
 86      -0.000659611521
 87       0.000638145391
 88       0.002560640995
 89       0.001409622310
 90       0.000183404925
 91      -0.000160818643
 92      -0.000717099900
 93       0.000630036245
 94      -0.000299959283
 95       0.000147577750
 96      -0.000141931368
 97      -0.000590831699
 98       0.000511097596
 99      -0.000253324181
100      -0.000027912473
101       0.000035425760
102       0.000122335716
103      -0.000100501476
104       0.000057615607
 Sym=     1a
 Ene= -6.49882919928488E+00
 Spin= Alpha
 Occup= 1.000000
  1      -0.000017416132
  2       0.000224357356
  3      -0.000315571635
  4      -0.000023558765
  5      -0.000044149905
  6      -0.000020344759
  7      -0.000091233421
  8       0.000206933604
  9      -0.000321649504
 10       0.000004612653
 11      -0.000005789917
 12      -0.000002534161
 13       0.000003979646
 14       0.000013731186
 15      -0.000004583349