[Molden Format]
[Title]
 Molden file created by orca_2mkl for BaseName=radical_019

[Atoms] AU
C    1   6          1.1795594939         0.8538274002         0.3298025638 
C    2   6          1.3153495447         0.0808368148         2.8123414551 
H    3   1          2.9489157423         1.2970985697        -0.6557954397 
H    4   1          3.1196902930        -0.0155883509         3.8104910196 
H    5   1         -0.3933105900        -0.4264280405         3.8606821457 
C    6   6         -1.0784515868         1.0732113763        -1.0452982315 
H    7   1         -2.9017954211         0.7820688297        -0.1097930884 
H    8   1         -1.1090745988         1.9990297832        -2.8904287184 
H    9   1         -1.2748659417        -1.7663799297        -2.4870307703 
Br  10  35         -1.8232625761        -4.2132256738        -3.7869771573 
[GTO]
  1 0
s   5 1.0 
     1238.4016938000         0.8208956682
      186.2900499200         1.4766449896
       42.2511763460         2.1526124058
       11.6765579320         2.1081722461
        3.5930506482         0.8290999933
s   1 1.0 
        0.4024514736         0.3601183351
s   1 1.0 
        0.1309018267         0.1551027052
p   3 1.0 
        9.4680970621         1.3467645142
        2.0103545142         1.0678070931
        0.5477100471         0.5108735714
p   1 1.0 
        0.1526861379         0.1360471976
d   1 1.0 
        0.8000000000         1.9292013661

  2 0
s   5 1.0 
     1238.4016938000         0.8208956682
      186.2900499200         1.4766449896
       42.2511763460         2.1526124058
       11.6765579320         2.1081722461
        3.5930506482         0.8290999933
s   1 1.0 
        0.4024514736         0.3601183351
s   1 1.0 
        0.1309018267         0.1551027052
p   3 1.0 
        9.4680970621         1.3467645142
        2.0103545142         1.0678070931
        0.5477100471         0.5108735714
p   1 1.0 
        0.1526861379         0.1360471976
d   1 1.0 
        0.8000000000         1.9292013661

  3 0
s   3 1.0 
       13.0107010000         0.1634903809
        1.9622572000         0.2773515510
        0.4445379600         0.3157501452
s   1 1.0 
        0.1219496200         0.1470772262
p   1 1.0 
        0.8000000000         1.0784563492

  4 0
s   3 1.0 
       13.0107010000         0.1634903809
        1.9622572000         0.2773515510
        0.4445379600         0.3157501452
s   1 1.0 
        0.1219496200         0.1470772262
p   1 1.0 
        0.8000000000         1.0784563492

  5 0
s   3 1.0 
       13.0107010000         0.1634903809
        1.9622572000         0.2773515510
        0.4445379600         0.3157501452
s   1 1.0 
        0.1219496200         0.1470772262
p   1 1.0 
        0.8000000000         1.0784563492

  6 0
s   5 1.0 
     1238.4016938000         0.8208956682
      186.2900499200         1.4766449896
       42.2511763460         2.1526124058
       11.6765579320         2.1081722461
        3.5930506482         0.8290999933
s   1 1.0 
        0.4024514736         0.3601183351
s   1 1.0 
        0.1309018267         0.1551027052
p   3 1.0 
        9.4680970621         1.3467645142
        2.0103545142         1.0678070931
        0.5477100471         0.5108735714
p   1 1.0 
        0.1526861379         0.1360471976
d   1 1.0 
        0.8000000000         1.9292013661

  7 0
s   3 1.0 
       13.0107010000         0.1634903809
        1.9622572000         0.2773515510
        0.4445379600         0.3157501452
s   1 1.0 
        0.1219496200         0.1470772262
p   1 1.0 
        0.8000000000         1.0784563492

  8 0
s   3 1.0 
       13.0107010000         0.1634903809
        1.9622572000         0.2773515510
        0.4445379600         0.3157501452
s   1 1.0 
        0.1219496200         0.1470772262
p   1 1.0 
        0.8000000000         1.0784563492

  9 0
s   3 1.0 
       13.0107010000         0.1634903809
        1.9622572000         0.2773515510
        0.4445379600         0.3157501452
s   1 1.0 
        0.1219496200         0.1470772262
p   1 1.0 
        0.8000000000         1.0784563492

 10 0
s   6 1.0 
   113286.3877600000         7.5076141183
    17009.6263030000        13.8835270484
     3870.1842567000        22.7307285566
     1093.0357227000        30.8227297499
      356.3972179700        27.2481937511
      123.1253964300         9.6953381145
s   3 1.0 
      236.7408400700        -4.7631125758
       28.4686610700         5.6113863182
       11.8834437220         1.9900291396
s   3 1.0 
       21.2696333120        -1.5429794477
        3.6129226841         1.3310800628
        1.6626648969         0.4300130345
s   1 1.0 
        0.3482379323         0.3230852630
s   1 1.0 
        0.1301903139         0.1544699827
p   5 1.0 
     1560.2801881000       115.0180051576
      368.4785920500       143.9035925417
      117.2297884900       137.5255986684
       42.6489092480        78.9578527439
       16.0872250960        15.8580577654
p   3 1.0 
        8.6352810058         6.8437546680
        3.5613665502         3.7974971038
        1.5292626609         0.5585414278
p   1 1.0 
        0.5306429485         0.6455696201
p   1 1.0 
        0.1570275896         0.1408996918
d   4 1.0 
      104.8551864200       261.4493931636
       30.2811436880       176.6993802449
       10.6513942670        76.9545600188
        3.8699456233        17.5937671387
d   1 1.0 
        1.3240876762         4.6593398042
d   1 1.0 
        0.3890000000         0.5462379705

[5D]
[7F]
[9G]
[MO]
 Sym=     1a
 Ene= -4.82757709298327E+02
 Spin= Alpha
 Occup= 1.000000
  1       0.000005427269
  2      -0.000073894208
  3       0.000118448230
  4       0.000006669513
  5       0.000015999722
  6       0.000005450611
  7       0.000035205788
  8      -0.000063527082
  9       0.000143290823
 10      -0.000002017594
 11       0.000003002604
 12      -0.000000235694
 13       0.000000168633
 14      -0.000006662710
 15       0.000001331181
 16      -0.000006770976
 17      -0.000184441559
 18      -0.000000396970
 19       0.000002525768
 20       0.000002280548
 21       0.000015136311
 22      -0.000027221925
 23       0.000096312562
 24      -0.000001107391
 25      -0.000000779476
 26      -0.000000744462
 27      -0.000005203233
 28      -0.000001431951
 29      -0.000005816401
 30      -0.000001158608
 31      -0.000001929812
 32       0.000003642482
 33      -0.000000548156
 34       0.000001019509
 35      -0.000010142245
 36       0.000001462214
 37       0.000001679869
 38      -0.000002860952
 39       0.000000298748
 40       0.000006431319
 41      -0.000000603362
 42       0.000000809396
 43      -0.000002457424
 44       0.000006335007
 45      -0.000151569712
 46       0.000736444816
 47      -0.000008595751
 48       0.000009724535
 49       0.000001776074
 50       0.000064880184
 51      -0.000267174743
 52      -0.000152983928
 53      -0.000005871635
 54       0.000003718498
 55       0.000022275116
 56      -0.000020289277
 57       0.000003319153
 58      -0.000017216532
 59      -0.000029889355
 60      -0.000000482911
 61       0.000005124184
 62      -0.000002637058
 63      -0.000040942590
 64      -0.000054556299
 65      -0.000007125131
 66      -0.000000317227
 67       0.000001892275
 68       0.000097762578
 69      -0.001203845441
 70      -0.000020627278
 71      -0.000131486182
 72      -0.000068772503
 73      -0.994981970770
 74      -0.015688897538
 75       0.003922439293
 76      -0.002351702763
 77       0.001834653161
 78      -0.000002972010
 79      -0.000011948602
 80      -0.000006330072
 81       0.000009650838
 82       0.000038232223
 83       0.000020298217
 84      -0.000038359360
 85      -0.000151691759
 86      -0.000080554936
 87       0.000109572996
 88       0.000454459936
 89       0.000241474413
 90      -0.000002020462
 91       0.000001896261
 92       0.000007592931
 93      -0.000006681464
 94       0.000003607103
 95       0.000006668333
 96      -0.000006276106
 97      -0.000025033004
 98       0.000022022855
 99      -0.000011982163
100      -0.000010334860
101       0.000009924654
102       0.000038810890
103      -0.000034044839
104       0.000019070969
 Sym=     1a
 Ene= -6.24408825924424E+01
 Spin= Alpha
 Occup= 1.000000
  1       0.000012789354
  2      -0.000176229143
  3       0.000269496155
  4       0.000015944412
  5       0.000037663213
  6       0.000013013530
  7       0.000090789320
  8      -0.000152216606
  9       0.000343217952
 10      -0.000004940503
 11       0.000006849776
 12      -0.000000111841
 13      -0.000000189622
 14      -0.000015622320
 15       0.000003153516
 16      -0.000016641763
 17      -0.000436469867
 18      -0.000000782259
 19       0.000006014145
 20       0.000005489955
 21       0.000033062394
 22      -0.000064849769
 23       0.000228237898
 24      -0.000002557739
 25      -0.000001811129
 26      -0.000001734198
 27      -0.000012174124
 28      -0.000003284737
 29      -0.000014222799
 30      -0.000002857227
 31      -0.000004736577
 32       0.000008475974
 33      -0.000001542377
 34       0.000002730320
 35      -0.000023452029
 36       0.000003430517
 37       0.000003909579
 38      -0.000006609160
 39       0.000000016146
 40       0.000014518004
 41      -0.000001412655
 42       0.000001839252
 43      -0.000005717940
 44       0.000014750997
 45      -0.000362502899
 46       0.001794903449
 47      -0.000020738559
 48       0.000021729924
 49       0.000003647395
 50       0.000158800602
 51      -0.000645210760
 52      -0.000366810531
 53      -0.000013900159
 54       0.000008834259
 55       0.000052816680
 56      -0.000048178689
 57       0.000007633983
 58      -0.000040328437
 59      -0.000076775140
 60      -0.000002027101
 61       0.000011643216
 62      -0.000006226611
 63      -0.000097776743
 64      -0.000134363552
 65      -0.000017233934
 66      -0.000000981222
 67       0.000003436422
 68       0.000261087721
 69      -0.002948215414
 70      -0.000053173633
 71      -0.000331939756
 72      -0.000173728568
 73      -0.347186714377
 74       1.046958120904
 75       0.018588187354
 76      -0.006354910555
 77       0.004645862913
 78       0.000068223160
 79       0.000331070934
 80       0.000171403351
 81       0.000031714226
 82       0.000131649880
 83       0.000069641362
 84      -0.000096755489
 85      -0.000386795230
 86      -0.000205485283
 87       0.000267513015
 88       0.001112373042
 89       0.000591193265
 90      -0.000013117930
 91       0.000010152149
 92       0.000047562142
 93      -0.000043201525
 94       0.000019587440
 95       0.000017942889
 96      -0.000016304783
 97      -0.000066638632
 98       0.000059018828
 99      -0.000030587383
100      -0.000023625004
101       0.000022861869
102       0.000088506612
103      -0.000077552601
104       0.000043166598
 Sym=     1a
 Ene= -5.62727600349633E+01
 Spin= Alpha
 Occup= 1.000000
  1      -0.000013155497
  2       0.000186397452
  3      -0.000233803922
  4      -0.000014810053
  5      -0.000041913313
  6      -0.000012318798
  7      -0.000106577182
  8       0.000172903881
  9      -0.000382792693
 10       0.000005796734
 11      -0.000008431110
 12       0.000001119663
 13      -0.000002113129
 14       0.000017108234
 15      -0.000003987823
 16       0.000025805664
 17       0.000450476640
 18       0.000000527881
 19      -0.000007256450
 20      -0.000007359877
 21      -0.000031605020
 22       0.000070214989
 23      -0.000237877050
 24       0.000002653443
 25       0.000001531664
 26       0.000002079192
 27       0.000013039367
 28       0.000003216668
 29       0.000015028154
 30      -0.000008792599
 31       0.000005405442
 32      -0.000008956252
 33       0.000002192838
 34      -0.000002979959
 35       0.000027229397
 36      -0.000003478290
 37      -0.000004367328
 38       0.000006107372
 39       0.000002696139
 40      -0.000014948775
 41       0.000000595210
 42      -0.000002015677
 43       0.000005552489
 44      -0.000006743753
 45       0.000354558747
 46      -0.001953323803
 47       0.000027772044
 48       0.000013742172
 49       0.000015258544
 50      -0.000229614171
 51       0.000706342937
 52       0.000399529561
 53       0.000024826129
 54      -0.000012712487
 55      -0.000093365754
 56       0.000089572239
 57      -0.000008893561
 58       0.000023660602
 59       0.000050872162
 60      -0.000001016364
 61      -0.000018975115
 62       0.000010168015
 63       0.000097331797
 64       0.000139191250
 65       0.000024945047
 66      -0.000002630824
 67      -0.000007553303
 68      -0.000476670349
 69       0.003378521062
 70       0.000156404466
 71       0.000798870559
 72       0.000421037369
 73      -0.000165726907
 74       0.000493210875
 75      -0.000258123038
 76       0.001039967482
 77      -0.002255068561
 78      -0.158927641784
 79      -0.869659002675
 80      -0.447126908050
 81      -0.003842686306
 82      -0.020970720848
 83      -0.010784962458
 84       0.001059027730
 85       0.005604335623
 86       0.002891293025
 87      -0.000627754079
 88      -0.003054520306
 89      -0.001591216304
 90       0.000012368284
 91      -0.000009891813
 92      -0.000044803797
 93       0.000040705489
 94      -0.000018715243
 95      -0.000011580226
 96       0.000010993080
 97       0.000042026958
 98      -0.000037093093
 99       0.000020367512
100      -0.000016152216
101       0.000011021256
102       0.000063048222
103      -0.000057697232
104       0.000020733507
 Sym=     1a
 Ene= -5.62704776231266E+01
 Spin= Alpha
 Occup= 1.000000
  1       0.000000889370
  2      -0.000012303733
  3       0.000145350185
  4       0.000003658392
  5       0.000010296752
  6      -0.000007173071
  7      -0.000077153218
  8      -0.000152567042
  9       0.000216184910
 10       0.000000721775
 11      -0.000000885674
 12      -0.000000375748
 13       0.000004362780
 14       0.000006684852
 15       0.000000939012
 16      -0.000013713556
 17      -0.000270765234
 18       0.000009039107
 19      -0.000010931253
 20       0.000004950488
 21      -0.000042103762
 22       0.000019942217
 23       0.000080251350
 24      -0.000000490048
 25      -0.000003519171
 26      -0.000003514208
 27      -0.000002541297
 28       0.000001410138
 29       0.000021731795
 30       0.000076783318
 31      -0.000004641937
 32       0.000008684270
 33       0.000000550517
 34       0.000017696415
 35       0.000046371227
 36      -0.000002211866
 37      -0.000004707276
 38      -0.000007651485
 39      -0.000005308880
 40       0.000028902464
 41      -0.000001079110
 42      -0.000004553604
 43      -0.000007268388
 44      -0.000004365782
 45       0.000072478461
 46      -0.000214411535
 47      -0.000020345589
 48      -0.000028772835
 49       0.000014815455
 50       0.000159522900
 51       0.000235021298
 52      -0.000122861127
 53       0.000010726626
 54       0.000007477618
 55      -0.000008107219
 56      -0.000001545336
 57      -0.000004377069
 58       0.000145502758
 59      -0.000072184047
 60      -0.000009590796
 61      -0.000005527150
 62       0.000015692933
 63      -0.000077474985
 64       0.000038221811
 65      -0.000018274546
 66      -0.000018362206
 67      -0.000000462432
 68      -0.000000052485
 69       0.000330624779
 70      -0.000016662934
 71       0.000010795585
 72       0.000021156131
 73      -0.000002527911
 74       0.000007240795
 75      -0.000008359067
 76       0.000058647461
 77      -0.000198800921
 78      -0.685312986334
 79      -0.224123906472
 80       0.679515350263
 81      -0.016371821186
 82      -0.005357819411
 83       0.016228546815
 84       0.003966796342
 85       0.001313727574
 86      -0.003912971747
 87      -0.001485287826
 88      -0.000579945122
 89       0.001384620587
 90       0.000019056034
 91      -0.000007270589
 92       0.000015200766
 93       0.000003994319
 94      -0.000023040453
 95      -0.000009166222
 96       0.000005838858
 97      -0.000000670756
 98      -0.000006958112
 99       0.000012859963
100       0.000008458720
101      -0.000008218569
102      -0.000011299992
103       0.000015216103
104      -0.000014255587
 Sym=     1a
 Ene= -5.62704594870733E+01
 Spin= Alpha
 Occup= 1.000000
  1      -0.000010907520
  2       0.000115793259
  3      -0.000319301644
  4      -0.000023287643
  5      -0.000036096045
  6      -0.000025664994
  7       0.000133838682
  8       0.000171176176
  9       0.000093434042
 10      -0.000009606432
 11      -0.000004992477
 12       0.000005386966
 13      -0.000009784003
 14      -0.000010013075
 15      -0.000000439581
 16      -0.000012116057
 17       0.000131411413
 18       0.000002764744
 19      -0.000006149658
 20      -0.000001782453
 21      -0.000109765557
 22      -0.000039537077
 23      -0.000067512908
 24       0.000005324230
 25       0.000002137723
 26       0.000007832430
 27       0.000006219818
 28      -0.000001777337
 29       0.000010667200
 30      -0.000005088897
 31      -0.000002691124
 32      -0.000021952163
 33      -0.000017774558
 34       0.000011827068
 35       0.000039105736
 36      -0.000000734755
 37       0.000002104702
 38       0.000003522799
 39      -0.000014395726
 40      -0.000064586261
 41      -0.000000950269
 42       0.000001652919
 43       0.000007185805
 44       0.000000858341
 45      -0.000048256274
 46       0.000416133910
 47       0.000028849700
 48       0.000019832236
 49       0.000039839088
 50      -0.000051037744
 51      -0.000204185960
 52      -0.000192106391
 53       0.000006636824
 54      -0.000007857054
 55       0.000001596256
 56      -0.000013377481
 57       0.000000496119
 58      -0.000051404516
 59       0.000025022720
 60       0.000017750249
 61       0.000008198901
 62       0.000024501842
 63      -0.000109125819
 64       0.000055862053
 65       0.000016005305
 66       0.000006258424
 67       0.000012809222
 68      -0.000006243975
 69      -0.000426555569
 70       0.000017639667
 71      -0.000050558270
 72      -0.000006054451
 73       0.000003680870
 74      -0.000010533983
 75       0.000013238172
 76      -0.000076796473
 77       0.000247296243
 78       0.697644686780
 79      -0.418310532879
 80       0.565627074157
 81       0.016667922051
 82      -0.009984328787
 83       0.013515290259
 84      -0.004043546565
 85       0.002387175200
 86      -0.003284178677
 87       0.001521550947
 88      -0.000761681036
 89       0.001270517642
 90       0.000014389957
 91       0.000015410370
 92       0.000012592588
 93       0.000015526222
 94       0.000019705788
 95      -0.000004509045
 96      -0.000009072259
 97      -0.000011183539
 98      -0.000002249651
 99      -0.000012210829
100       0.000000259793
101       0.000009129868
102       0.000015579801
103      -0.000005524834
104       0.000012879682
 Sym=     1a
 Ene= -1.02200152000326E+01
 Spin= Alpha
 Occup= 1.000000
  1      -0.089720337770
  2      -0.002118078002
  3      -0.004228315798
  4      -0.001807042521
  5       0.000619454933
  6      -0.001181353817
  7      -0.000654222225
  8      -0.001354917097
  9       0.004896111865
 10      -0.000090356849
 11       0.001171410254
 12      -0.000308915534
 13       0.001090107463
 14      -0.000338671501
 15      -0.015599725473
 16      -0.000177766410
 17      -0.005080620107
 18      -0.000261808377
 19       0.000055318875
 20      -0.000072426650
 21       0.004883090286
 22      -0.000438917186
 23       0.002740697145
 24      -0.000105505989
 25      -0.000049197098
 26       0.000098692591
 27      -0.000227698645
 28      -0.000067865791
 29       0.000699846869
 30       0.000926406214
 31       0.000275944795
 32       0.000004413645
 33       0.000236941803
 34      -0.000723291430
 35      -0.001976143078
 36      -0.000004209006
 37       0.000014791318
 38       0.000035307934
 39       0.000957736446
 40       0.001782690145
 41       0.000012142484
 42       0.000068680925
 43      -0.000120727201
 44      -0.983627708315
 45      -0.052543462930
 46       0.047360017319
 47       0.000644916796
 48       0.000575299373
 49       0.000639869760
 50       0.002090650898
 51      -0.006408113305
 52      -0.002562433306
 53      -0.000749630449
 54       0.000231112701
 55       0.001491063822
 56      -0.001412748762
 57      -0.000087264579
 58       0.003023879221
 59      -0.007468286138
 60       0.002448730249
 61       0.000768155358
 62      -0.001461789148
 63       0.002991257138
 64      -0.007931573613
 65      -0.000251724390
 66      -0.001139485932
 67       0.002796378456
 68      -0.001015869899
 69      -0.018459060343
 70       0.000043662257
 71       0.000679961210
 72       0.000205174215
 73       0.000007180992
 74      -0.000011336659
 75       0.000130077179
 76      -0.002214073402
 77       0.010230020839
 78      -0.000001252908
 79       0.000001951002
 80       0.000006439756
 81       0.000005297399
 82      -0.000003575838
 83      -0.000020205520
 84      -0.000113144426
 85      -0.000315125730
 86      -0.000094776561
 87       0.001307972621
 88       0.005260402500
 89       0.002678502514
 90      -0.000016662035
 91       0.000017106342
 92       0.000051774010
 93      -0.000045511920
 94       0.000034394001
 95       0.000083277164
 96      -0.000085166981
 97      -0.000267499672
 98       0.000234619374
 99      -0.000169827162
100      -0.000302282568
101       0.000295700252
102       0.001047402986
103      -0.000921287136
104       0.000578018819
 Sym=     1a
 Ene= -1.02178800612711E+01
 Spin= Alpha
 Occup= 1.000000
  1       0.819581934226
  2       0.038072571165
  3      -0.031432487072
  4      -0.000051290637
  5       0.000203449459
  6      -0.001708109673
  7       0.003298786398
  8       0.002452873106
  9      -0.006248571088
 10      -0.000047042408
 11      -0.000063669890
 12      -0.000430475520
 13       0.001496183893
 14       0.000379271557
 15       0.546540040920
 16       0.023285649762
 17      -0.000553140643
 18       0.000084513132
 19      -0.000738265617
 20       0.002299801938
 21      -0.001198469630
 22       0.001360596746
 23      -0.004719907266
 24      -0.000589517674
 25       0.000084704429
 26       0.000111070783
 27       0.000847755914
 28       0.000183062714
 29      -0.004010222382
 30       0.004489849218
 31       0.002129561653
 32       0.000327169585
 33      -0.000719927026
 34      -0.002273131081
 35       0.003386421842
 36       0.001234421034
 37      -0.000004029600
 38       0.000464832074
 39      -0.002360335136
 40       0.002901218364
 41      -0.001163293902
 42      -0.000252214180
 43       0.000408721018
 44      -0.082761827025
 45      -0.005521885576
 46       0.005791102324
 47      -0.001453401919
 48      -0.000318073910
 49      -0.001255824785
 50      -0.001163853803
 51       0.001746728267
 52       0.006050812029
 53       0.000101559407
 54      -0.000809288427
 55       0.000288630108
 56      -0.001079814051
 57      -0.000016001147
 58       0.000155391421
 59      -0.003058431926
 60       0.000569523267
 61      -0.000057229609
 62      -0.000061904102
 63       0.001646464881
 64       0.000101735774
 65       0.000343171040
 66      -0.000333752499
 67       0.000370070625
 68      -0.000271507931
 69       0.010060212007
 70       0.000282569264
 71      -0.000034493686
 72       0.000042824465
 73      -0.000009331690
 74       0.000017002700
 75      -0.000161253818
 76       0.001655762542
 77      -0.006177649345
 78      -0.000006151868
 79       0.000026441896
 80       0.000003846254
 81       0.000020066296
 82      -0.000092706002
 83      -0.000014698439
 84      -0.000031192539
 85       0.000561714513
 86       0.000161256428
 87      -0.000564356020
 88      -0.003483828691
 89      -0.001647697100
 90       0.000013701434
 91      -0.000004899720
 92      -0.000045592749
 93       0.000044016368
 94      -0.000019261793
 95      -0.000063550727
 96       0.000025860019
 97       0.000214525713
 98      -0.000205044396
 99       0.000092454913
100       0.000183852837
101      -0.000106442476
102      -0.000654120887
103       0.000606100514
104      -0.000290830611
 Sym=     1a
 Ene= -1.02173981207327E+01
 Spin= Alpha
 Occup= 1.000000
  1       0.544808242479
  2       0.029789797731
  3      -0.031603694474
  4       0.000409279984
  5      -0.000690633473
  6       0.001784332236
  7       0.002447859127
  8       0.000178502597
  9       0.000424986557
 10       0.001633943957
 11       0.000044850922
 12      -0.001412070670
 13       0.001285134305
 14       0.000296292823
 15      -0.823003272786
 16      -0.042832162584
 17       0.033683496831
 18       0.000126281027
 19      -0.000339335630
 20       0.000920911498
 21      -0.001958535084
 22       0.000539886552
 23      -0.002279027005
 24      -0.001359203932
 25      -0.000174695994
 26       0.001461509725
 27      -0.001825838937
 28      -0.000398059574
 29      -0.002372052741
 30       0.004888659346
 31       0.001475272164
 32       0.000514421884
 33      -0.001349601746
 34       0.004108479728
 35      -0.005922341122
 36      -0.002404050205
 37       0.000128465339
 38      -0.001351239471
 39       0.003446237700
 40      -0.007075072509
 41       0.002262559859
 42       0.000667024786
 43      -0.001392581416
 44      -0.036180208090
 45      -0.003101209501
 46       0.008448023886
 47      -0.001272196772
 48      -0.000142747893
 49      -0.000678853058
 50       0.003647519453
 51       0.001795957561
 52      -0.000058118334
 53      -0.000102123837
 54      -0.000669981914
 55       0.000256213815
 56      -0.000881362301
 57       0.000054264586
 58       0.000895071601
 59       0.000485675037
 60       0.000416430239
 61      -0.000070352389
 62      -0.000070383837
 63      -0.000100589599
 64      -0.001677563658
 65       0.000029560537
 66      -0.000147809379
 67       0.000280671831
 68      -0.000018761185
 69       0.003231212920
 70       0.000168083370
 71      -0.000044042576
 72       0.000280196813
 73      -0.000002693310
 74       0.000004902125
 75      -0.000046562188
 76       0.000491795355
 77      -0.001944787283
 78      -0.000004828969
 79       0.000008821563
 80      -0.000001214774
 81       0.000016145875
 82      -0.000030960534
 83       0.000003542317
 84      -0.000051781617
 85       0.000177659496
 86       0.000017127398
 87      -0.000109502390
 88      -0.001108562059
 89      -0.000476038554
 90       0.000004331193
 91       0.000000639552
 92      -0.000013172486
 93       0.000015777844
 94      -0.000005201565
 95      -0.000018630113
 96      -0.000001482777
 97       0.000061574302
 98      -0.000070745450
 99       0.000024872115
100       0.000048779863
101      -0.000012208640
102      -0.000190246388
103       0.000194024137
104      -0.000080707196
 Sym=     1a
 Ene= -8.65892889297515E+00
 Spin= Alpha
 Occup= 1.000000
  1       0.000030115961
  2      -0.000366696960
  3       0.000425207003
  4       0.000032928735
  5       0.000066892779
  6       0.000027079181
  7       0.000255012526
  8      -0.000326762136
  9       0.000665369707
 10      -0.000011408694
 11       0.000010953348
 12       0.000008813494
 13      -0.000008987702
 14      -0.000025336151
 15       0.000008370778
 16      -0.000041151335
 17      -0.000814665465
 18       0.000001408045
 19       0.000012773810
 20       0.000011912700
 21       0.000021772776
 22      -0.000122415221
 23       0.000429246490
 24      -0.000003466136
 25      -0.000003804042
 26      -0.000004024277
 27      -0.000022176719
 28      -0.000004368314
 29      -0.000038330553
 30      -0.000014627186
 31      -0.000010313658
 32       0.000014968291
 33      -0.000003369285
 34       0.000010990303
 35      -0.000033464645
 36       0.000005389742
 37       0.000006649040
 38      -0.000011309800
 39      -0.000010293170
 40       0.000017614903
 41      -0.000002177620
 42       0.000001808859
 43      -0.000009028714
 44       0.000030816883
 45      -0.000744138695
 46       0.004146884081
 47      -0.000043843920
 48       0.000028542964
 49       0.000002870886
 50       0.000346749311
 51      -0.001426394820
 52      -0.000776663072
 53      -0.000024565525
 54       0.000016813945
 55       0.000091418855
 56      -0.000082979631
 57       0.000009442497
 58      -0.000064345096
 59      -0.000231653938
 60      -0.000014984666
 61       0.000007160264
 62      -0.000015775311
 63      -0.000186625248
 64      -0.000316391472
 65      -0.000037181957
 66      -0.000015818636
 67      -0.000010070694
 68       0.000877740940
 69      -0.007409904484
 70      -0.000125611378
 71      -0.000752826917
 72      -0.000394985960
 73      -0.136659782294
 74       0.516877703539
 75      -1.093406828398
 76      -0.032393033975
 77       0.014681448078
 78       0.000287003688
 79       0.001344913502
 80       0.000699724557
 81      -0.000672788895
 82      -0.003163147200
 83      -0.001644635782
 84      -0.000280410622
 85      -0.001182021579
 86      -0.000626926040
 87       0.000670261148
 88       0.002832725468
 89       0.001505945053
 90       0.000199477233
 91      -0.000142740357
 92      -0.000697131694
 93       0.000641630638
 94      -0.000276191086
 95       0.000166762899
 96      -0.000131678585
 97      -0.000588582404
 98       0.000533771961
 99      -0.000243380827
100      -0.000052732189
101       0.000052212675
102       0.000194650265
103      -0.000169624594
104       0.000091112867
 Sym=     1a
 Ene= -6.49171233397469E+00
 Spin= Alpha
 Occup= 1.000000
  1      -0.000014703385
  2       0.000209871741
  3      -0.000329347728
  4      -0.000018644131
  5      -0.000037137137
  6      -0.000014002050
  7      -0.000059335933
  8       0.000194315945
  9      -0.000304535707
 10       0.000004959322
 11      -0.000007694772
 12      -0.000005992654
 13       0.000003204630
 14       0.000010829041
 15      -0.000004921022