[Molden Format]
[Title]
 Molden file created by orca_2mkl for BaseName=radical_010

[Atoms] AU
C    1   6          1.2056263762         0.8190110859         0.3528761199 
C    2   6          1.3146220001         0.1065975615         2.7958214692 
H    3   1          2.9656927309         1.2867277527        -0.6369057373 
H    4   1          3.1098070253         0.0151858392         3.8133652930 
H    5   1         -0.3907065474        -0.4297388407         3.8396041404 
C    6   6         -1.1175500205         0.8420336194        -1.1645437300 
H    7   1         -2.8881062450         0.9022251762        -0.0797313250 
H    8   1         -1.1272159697         2.1484938923        -2.7797134437 
H    9   1         -1.2303080892        -1.1425322000        -2.1929704866 
Br  10  35         -1.8246137303        -4.2124546655        -3.7857979682 
[GTO]
  1 0
s   5 1.0 
     1238.4016938000         0.8208956682
      186.2900499200         1.4766449896
       42.2511763460         2.1526124058
       11.6765579320         2.1081722461
        3.5930506482         0.8290999933
s   1 1.0 
        0.4024514736         0.3601183351
s   1 1.0 
        0.1309018267         0.1551027052
p   3 1.0 
        9.4680970621         1.3467645142
        2.0103545142         1.0678070931
        0.5477100471         0.5108735714
p   1 1.0 
        0.1526861379         0.1360471976
d   1 1.0 
        0.8000000000         1.9292013661

  2 0
s   5 1.0 
     1238.4016938000         0.8208956682
      186.2900499200         1.4766449896
       42.2511763460         2.1526124058
       11.6765579320         2.1081722461
        3.5930506482         0.8290999933
s   1 1.0 
        0.4024514736         0.3601183351
s   1 1.0 
        0.1309018267         0.1551027052
p   3 1.0 
        9.4680970621         1.3467645142
        2.0103545142         1.0678070931
        0.5477100471         0.5108735714
p   1 1.0 
        0.1526861379         0.1360471976
d   1 1.0 
        0.8000000000         1.9292013661

  3 0
s   3 1.0 
       13.0107010000         0.1634903809
        1.9622572000         0.2773515510
        0.4445379600         0.3157501452
s   1 1.0 
        0.1219496200         0.1470772262
p   1 1.0 
        0.8000000000         1.0784563492

  4 0
s   3 1.0 
       13.0107010000         0.1634903809
        1.9622572000         0.2773515510
        0.4445379600         0.3157501452
s   1 1.0 
        0.1219496200         0.1470772262
p   1 1.0 
        0.8000000000         1.0784563492

  5 0
s   3 1.0 
       13.0107010000         0.1634903809
        1.9622572000         0.2773515510
        0.4445379600         0.3157501452
s   1 1.0 
        0.1219496200         0.1470772262
p   1 1.0 
        0.8000000000         1.0784563492

  6 0
s   5 1.0 
     1238.4016938000         0.8208956682
      186.2900499200         1.4766449896
       42.2511763460         2.1526124058
       11.6765579320         2.1081722461
        3.5930506482         0.8290999933
s   1 1.0 
        0.4024514736         0.3601183351
s   1 1.0 
        0.1309018267         0.1551027052
p   3 1.0 
        9.4680970621         1.3467645142
        2.0103545142         1.0678070931
        0.5477100471         0.5108735714
p   1 1.0 
        0.1526861379         0.1360471976
d   1 1.0 
        0.8000000000         1.9292013661

  7 0
s   3 1.0 
       13.0107010000         0.1634903809
        1.9622572000         0.2773515510
        0.4445379600         0.3157501452
s   1 1.0 
        0.1219496200         0.1470772262
p   1 1.0 
        0.8000000000         1.0784563492

  8 0
s   3 1.0 
       13.0107010000         0.1634903809
        1.9622572000         0.2773515510
        0.4445379600         0.3157501452
s   1 1.0 
        0.1219496200         0.1470772262
p   1 1.0 
        0.8000000000         1.0784563492

  9 0
s   3 1.0 
       13.0107010000         0.1634903809
        1.9622572000         0.2773515510
        0.4445379600         0.3157501452
s   1 1.0 
        0.1219496200         0.1470772262
p   1 1.0 
        0.8000000000         1.0784563492

 10 0
s   6 1.0 
   113286.3877600000         7.5076141183
    17009.6263030000        13.8835270484
     3870.1842567000        22.7307285566
     1093.0357227000        30.8227297499
      356.3972179700        27.2481937511
      123.1253964300         9.6953381145
s   3 1.0 
      236.7408400700        -4.7631125758
       28.4686610700         5.6113863182
       11.8834437220         1.9900291396
s   3 1.0 
       21.2696333120        -1.5429794477
        3.6129226841         1.3310800628
        1.6626648969         0.4300130345
s   1 1.0 
        0.3482379323         0.3230852630
s   1 1.0 
        0.1301903139         0.1544699827
p   5 1.0 
     1560.2801881000       115.0180051576
      368.4785920500       143.9035925417
      117.2297884900       137.5255986684
       42.6489092480        78.9578527439
       16.0872250960        15.8580577654
p   3 1.0 
        8.6352810058         6.8437546680
        3.5613665502         3.7974971038
        1.5292626609         0.5585414278
p   1 1.0 
        0.5306429485         0.6455696201
p   1 1.0 
        0.1570275896         0.1408996918
d   4 1.0 
      104.8551864200       261.4493931636
       30.2811436880       176.6993802449
       10.6513942670        76.9545600188
        3.8699456233        17.5937671387
d   1 1.0 
        1.3240876762         4.6593398042
d   1 1.0 
        0.3890000000         0.5462379705

[5D]
[7F]
[9G]
[MO]
 Sym=     1a
 Ene= -4.82760765145623E+02
 Spin= Alpha
 Occup= 1.000000
  1       0.000005872543
  2      -0.000083641202
  3       0.000219570822
  4       0.000008866528
  5       0.000015499477
  6       0.000005834873
  7      -0.000008768569
  8      -0.000070665477
  9       0.000132901501
 10      -0.000001735572
 11       0.000002546077
 12       0.000001912366
 13      -0.000001566625
 14      -0.000005029577
 15       0.000001556872
 16      -0.000010375408
 17      -0.000206124189
 18       0.000000383996
 19       0.000003545960
 20       0.000003104374
 21       0.000017474056
 22      -0.000028448327
 23       0.000099335988
 24       0.000000064645
 25      -0.000002235026
 26      -0.000001483262
 27      -0.000004767675
 28      -0.000000607860
 29      -0.000005072655
 30       0.000003783168
 31      -0.000001828900
 32       0.000002429553
 33       0.000001223755
 34       0.000001823503
 35      -0.000007793289
 36       0.000000762320
 37       0.000002262265
 38      -0.000003254491
 39      -0.000001025446
 40       0.000008163160
 41      -0.000000497161
 42       0.000000193356
 43      -0.000001475275
 44       0.000006659182
 45      -0.000147616289
 46       0.001114787232
 47      -0.000009573912
 48       0.000004179466
 49       0.000001451449
 50       0.000045959285
 51      -0.000405872226
 52      -0.000262241881
 53      -0.000005736723
 54       0.000005435644
 55       0.000018839716
 56      -0.000018881150
 57       0.000004524797
 58      -0.000008855285
 59       0.000006648109
 60       0.000005178016
 61       0.000001175206
 62      -0.000005428115
 63      -0.000041207858
 64      -0.000031902583
 65      -0.000006951501
 66      -0.000002283034
 67       0.000005640589
 68      -0.000002581120
 69      -0.001630144079
 70       0.000005606158
 71      -0.000013948843
 72      -0.000005828774
 73      -0.994982575623
 74      -0.015687512065
 75       0.003910440484
 76      -0.002361619548
 77       0.001808101455
 78      -0.000001804385
 79      -0.000007892502
 80      -0.000004049755
 81       0.000006102477
 82       0.000026239338
 83       0.000013509266
 84      -0.000029612023
 85      -0.000129344643
 86      -0.000066766697
 87       0.000106259931
 88       0.000497991758
 89       0.000258090879
 90      -0.000003255646
 91       0.000002537418
 92       0.000011617556
 93      -0.000010633698
 94       0.000005013864
 95       0.000012625170
 96      -0.000009783645
 97      -0.000045044077
 98       0.000041265209
 99      -0.000019309429
100      -0.000031113997
101       0.000023874602
102       0.000111284812
103      -0.000102076000
104       0.000046831856
 Sym=     1a
 Ene= -6.24438265258796E+01
 Spin= Alpha
 Occup= 1.000000
  1       0.000013899348
  2      -0.000200539619
  3       0.000515416096
  4       0.000021099443
  5       0.000036899959
  6       0.000013945277
  7      -0.000013778178
  8      -0.000169367478
  9       0.000323189435
 10      -0.000004367683
 11       0.000005948090
 12       0.000004694821
 13      -0.000003944661
 14      -0.000012058329
 15       0.000003726899
 16      -0.000025473127
 17      -0.000493320658
 18       0.000001125370
 19       0.000008477072
 20       0.000007511541
 21       0.000038469516
 22      -0.000069086504
 23       0.000238365262
 24       0.000000139239
 25      -0.000005260630
 26      -0.000003443182
 27      -0.000011251970
 28      -0.000001432241
 29      -0.000012754269
 30       0.000009438615
 31      -0.000004510677
 32       0.000005571176
 33       0.000002553632
 34       0.000004706149
 35      -0.000017995111
 36       0.000001849301
 37       0.000005368926
 38      -0.000007629869
 39      -0.000003185571
 40       0.000018066383
 41      -0.000001184368
 42       0.000000414742
 43      -0.000003396754
 44       0.000014765180
 45      -0.000350118737
 46       0.002733852823
 47      -0.000023456361
 48       0.000002545545
 49      -0.000000061227
 50       0.000117533650
 51      -0.000991257460
 52      -0.000636137163
 53      -0.000014936724
 54       0.000013289942
 55       0.000049870739
 56      -0.000049592643
 57       0.000010591409
 58      -0.000020022572
 59       0.000014576299
 60       0.000012326612
 61       0.000002779878
 62      -0.000013444645
 63      -0.000098736745
 64      -0.000078930557
 65      -0.000017231092
 66      -0.000005709518
 67       0.000013614117
 68      -0.000005483082
 69      -0.003998351196
 70       0.000010364886
 71      -0.000052873985
 72      -0.000023967421
 73      -0.347189106638
 74       1.046962585429
 75       0.018559191854
 76      -0.006379322496
 77       0.004586104639
 78       0.000016783204
 79       0.000117241521
 80       0.000056187817
 81       0.000016823035
 82       0.000075835232
 83       0.000038754624
 84      -0.000072987610
 85      -0.000320688177
 86      -0.000165497760
 87       0.000260055824
 88       0.001220294555
 89       0.000632442287
 90      -0.000021335238
 91       0.000012005801
 92       0.000069821508
 93      -0.000067353434
 94       0.000024167649
 95       0.000034508514
 96      -0.000025127114
 97      -0.000120435351
 98       0.000111599531
 99      -0.000049649226
100      -0.000076083480
101       0.000057900592
102       0.000270705300
103      -0.000248752131
104       0.000113465732
 Sym=     1a
 Ene= -5.62771894077636E+01
 Spin= Alpha
 Occup= 1.000000
  1      -0.000015077512
  2       0.000235916741
  3      -0.000643731479
  4      -0.000022025604
  5      -0.000042063511
  6      -0.000014523681
  7       0.000074824982
  8       0.000217631895
  9      -0.000279558531
 10       0.000003661912
 11      -0.000009597626
 12      -0.000009750485
 13       0.000003349679
 14       0.000006965821
 15      -0.000005093919
 16       0.000040507604
 17       0.000486216208
 18      -0.000003468651
 19      -0.000011886710
 20      -0.000011617482
 21      -0.000035821837
 22       0.000063414398
 23      -0.000225826176
 24      -0.000001606881
 25       0.000007876221
 26       0.000006165376
 27       0.000011967312
 28      -0.000000760665
 29       0.000020209556
 30      -0.000018577162
 31       0.000003618416
 32      -0.000007530584
 33      -0.000008064993
 34      -0.000008524440
 35       0.000014554768
 36       0.000000377441
 37      -0.000006141567
 38       0.000008089842
 39       0.000009709561
 40      -0.000023533906
 41      -0.000000827591
 42       0.000001006122
 43       0.000000878909
 44      -0.000001767199
 45       0.000253527288
 46      -0.002867150264
 47       0.000028729751
 48       0.000072061162
 49       0.000035588146
 50      -0.000126621855
 51       0.001097776937
 52       0.000734055662
 53       0.000026734755
 54      -0.000017922592
 55      -0.000093336793
 56       0.000093040594
 57      -0.000010199577
 58      -0.000011025936
 59      -0.000082634121
 60      -0.000018551264
 61       0.000012411944
 62       0.000026515139
 63       0.000086139147
 64       0.000033853435
 65       0.000022781677
 66       0.000024983556
 67      -0.000011776978
 68       0.000126222572
 69       0.004825067931
 70      -0.000001207435
 71       0.000149728979
 72       0.000071906545
 73      -0.000065288154
 74       0.000189744265
 75      -0.000168861295
 76       0.001089039921
 77      -0.002477681750
 78      -0.127197847917
 79      -0.881523725278
 80      -0.433903003592
 81      -0.003063752747
 82      -0.021184791453
 83      -0.010429439246
 84       0.000831329760
 85       0.005538223350
 86       0.002736155890
 87      -0.000598183587
 88      -0.003443271798
 89      -0.001735308109
 90       0.000012888194
 91      -0.000008846591
 92      -0.000044506759
 93       0.000041693802
 94      -0.000017614016
 95      -0.000040050989
 96       0.000029598337
 97       0.000142270085
 98      -0.000131340615
 99       0.000058635718
100       0.000097144468
101      -0.000072358013
102      -0.000347809412
103       0.000320364981
104      -0.000142305096
 Sym=     1a
 Ene= -5.62731241525035E+01
 Spin= Alpha
 Occup= 1.000000
  1       0.000006219043
  2      -0.000060700536
  3       0.000242333749
  4       0.000013278846
  5       0.000025159363
  6       0.000000831037
  7      -0.000027863964
  8      -0.000228942831
  9       0.000341727341
 10       0.000005846026
 11      -0.000001739947
 12      -0.000003386287
 13       0.000004072380
 14       0.000010959825
 15       0.000001717016
 16      -0.000013755664
 17      -0.000450155340
 18       0.000007063407
 19      -0.000004391489
 20       0.000007216997
 21      -0.000025956280
 22      -0.000004735576
 23       0.000184779280
 24      -0.000003492544
 25      -0.000003954138
 26      -0.000004689258
 27      -0.000005236281
 28       0.000001817740
 29       0.000021271958
 30       0.000077178448
 31      -0.000009277635
 32       0.000018965798
 33      -0.000001496875
 34       0.000015662255
 35       0.000031949495
 36       0.000000521262
 37      -0.000002751436
 38      -0.000009854370
 39      -0.000002764702
 40       0.000020298500
 41      -0.000003093040
 42      -0.000003989881
 43      -0.000008840627
 44      -0.000003307744
 45       0.000076978272
 46      -0.000424905302
 47      -0.000042031329
 48      -0.000024731279
 49      -0.000000307353
 50       0.000330761822
 51       0.000375915937
 52      -0.000008122847
 53       0.000003441673
 54       0.000023368982
 55      -0.000022345538
 56       0.000003188135
 57       0.000013003831
 58       0.000147861845
 59       0.000030508740
 60      -0.000010041953
 61      -0.000017904965
 62      -0.000012012591
 63      -0.000038079453
 64      -0.000055632632
 65      -0.000034129633
 66      -0.000004616342
 67      -0.000011332292
 68       0.000029265749
 69       0.000656811480
 70       0.000044746754
 71       0.000007996062
 72      -0.000004567125
 73      -0.000001381568
 74       0.000003522399
 75      -0.000011927127
 76       0.000091544501
 77      -0.000259411851
 78      -0.953772239876
 79       0.005627731714
 80       0.268171367525
 81      -0.022781405238
 82       0.000129093107
 83       0.006401764082
 84       0.005527037175
 85      -0.000004017486
 86      -0.001535563327
 87      -0.002082155695
 88      -0.000138982008
 89       0.000495813283
 90       0.000003986934
 91      -0.000006594340
 92       0.000000990445
 93       0.000000328664
 94      -0.000014348265
 95      -0.000006976578
 96       0.000010141721
 97       0.000006368922
 98      -0.000007242892
 99       0.000020532193
100       0.000014803962
101      -0.000019000323
102      -0.000022860334
103       0.000023303338
104      -0.000037498838
 Sym=     1a
 Ene= -5.62731131914519E+01
 Spin= Alpha
 Occup= 1.000000
  1      -0.000007730209
  2       0.000067582130
  3       0.000044742320
  4      -0.000012295276
  5      -0.000021753795
  6      -0.000027862067
  7      -0.000091845277
  8       0.000013164937
  9       0.000218100283
 10      -0.000007162497
 11       0.000001185985
 12       0.000002681881
 13       0.000000430655
 14      -0.000003126967
 15       0.000001027730
 16      -0.000026503011
 17      -0.000136507127
 18       0.000008641691
 19      -0.000009186774
 20       0.000005941531
 21      -0.000072113317
 22      -0.000029227456
 23       0.000008838674
 24       0.000004674237
 25      -0.000002726568
 26       0.000003556936
 27       0.000003572293
 28       0.000002008415
 29       0.000036677243
 30       0.000081573342
 31      -0.000005401440
 32      -0.000011641390
 33      -0.000009459398
 34       0.000017590051
 35       0.000056102753
 36      -0.000003520255
 37       0.000000707182
 38      -0.000003163220
 39      -0.000009329682
 40      -0.000014692946
 41      -0.000001182585
 42      -0.000001055239
 43       0.000001673098
 44      -0.000002357530
 45       0.000007573468
 46       0.000165640037
 47       0.000014619378
 48      -0.000012273909
 49       0.000047427263
 50       0.000011082882
 51       0.000017912201
 52      -0.000401374308
 53      -0.000001959357
 54      -0.000000093127
 55      -0.000020464767
 56      -0.000029612111
 57      -0.000003008188
 58       0.000059712260
 59       0.000051399907
 60       0.000023525521
 61      -0.000010148955
 62       0.000029935360
 63      -0.000138948050
 64      -0.000059886554
 65       0.000006757789
 66       0.000015724713
 67       0.000003611874
 68      -0.000023698766
 69      -0.000257508034
 70      -0.000013815606
 71       0.000015165329
 72      -0.000044105503
 73       0.000000173473
 74      -0.000000199360
 75       0.000005930504
 76      -0.000040891449
 77       0.000106377687
 78       0.236147364868
 79      -0.452151166990
 80       0.849366605827
 81       0.005641027529
 82      -0.010795902069
 83       0.020286753568
 84      -0.001370524572
 85       0.002600717547
 86      -0.004919346824
 87       0.000521018245
 88      -0.000905426340
 89       0.001851313353
 90       0.000009296613
 91       0.000003702448
 92       0.000009555190
 93       0.000005582314
 94       0.000002714800
 95      -0.000009760401
 96      -0.000005219135
 97      -0.000013841037
 98      -0.000003539431
 99      -0.000004405292
100       0.000013598920
101       0.000009128241
102       0.000026240815
103       0.000000636871
104       0.000008738074
 Sym=     1a
 Ene= -1.02212381600310E+01
 Spin= Alpha
 Occup= 1.000000
  1      -0.039920880924
  2      -0.000815581299
  3      -0.003906087580
  4      -0.001321640124
  5       0.000374644232
  6      -0.000971516866
  7      -0.000512992343
  8      -0.001602961057
  9       0.005060820595
 10      -0.000017652790
 11       0.001305247147
 12      -0.000120178815
 13       0.001037937929
 14      -0.000113614602
 15      -0.004216589648
 16       0.000212131218
 17      -0.005687768572
 18      -0.000262519183
 19       0.000018033260
 20      -0.000008344503
 21       0.004644736030
 22      -0.000270945143
 23       0.003073165860
 24      -0.000135949435
 25       0.000029653818
 26       0.000103829713
 27      -0.000231471020
 28      -0.000125726798
 29       0.000591125835
 30       0.001138097803
 31       0.000231939454
 32       0.000063703966
 33       0.000192450563
 34      -0.000744181856
 35      -0.001875933316
 36       0.000048805983
 37       0.000002680709
 38       0.000011900350
 39       0.000890063734
 40       0.001780660628
 41       0.000012727769
 42       0.000071242045
 43      -0.000143911457
 44      -0.986883615250
 45      -0.053701351192
 46       0.055556489753
 47       0.000678080908
 48       0.000814857919
 49       0.000837661006
 50       0.001992909590
 51      -0.006942799635
 52      -0.003117664862
 53      -0.000290845145
 54       0.000467299024
 55       0.000555460547
 56      -0.000167835270
 57       0.000083896601
 58       0.002800549725
 59      -0.007421234735
 60       0.002259208691
 61       0.000110265788
 62      -0.001617791079
 63       0.002703609883
 64      -0.007976379458
 65      -0.000244692575
 66      -0.001681760992
 67       0.002265696647
 68       0.002020899348
 69      -0.024997247518
 70      -0.000012907451
 71       0.002378495776
 72       0.001030485329
 73       0.000009780553
 74      -0.000016738997
 75       0.000172895062
 76      -0.002078764557
 77       0.007866686031
 78      -0.000003750502
 79      -0.000008724740
 80       0.000000378686
 81       0.000014027479
 82       0.000034309498
 83       0.000001068274
 84      -0.000127811766
 85      -0.000413588485
 86      -0.000141482479
 87       0.000978670413
 88       0.004307912722
 89       0.002096776992
 90      -0.000019497173
 91       0.000015273516
 92       0.000049784747
 93      -0.000048028981
 94       0.000032444471
 95       0.000092143988
 96      -0.000071965972
 97      -0.000239957236
 98       0.000230916253
 99      -0.000152283336
100      -0.000278033441
101       0.000212624893
102       0.000784950069
103      -0.000748475073
104       0.000442309959
 Sym=     1a
 Ene= -1.02186556292759E+01
 Spin= Alpha
 Occup= 1.000000
  1      -0.985443115745
  2      -0.047725984526
  3       0.042354961676
  4      -0.000479972746
  5       0.000320822125
  6       0.000375112519
  7      -0.004410476244
  8      -0.002305766437
  9       0.004804061357
 10      -0.000999943376
 11       0.000305456085
 12       0.000953336436
 13      -0.001617815229
 14      -0.000706771215
 15      -0.063285010301
 16       0.001656619155
 17      -0.016837680518
 18      -0.000157907855
 19       0.000816458939
 20      -0.002603309258
 21       0.002716279662
 22      -0.001218697740
 23       0.005227143512
 24       0.001040605710
 25       0.000043378865
 26      -0.000718822808
 27       0.000230580462
 28       0.000065174700
 29       0.004699675329
 30      -0.006224120521
 31      -0.002543400082
 32      -0.000567523684
 33       0.001336215239
 34      -0.000289029192
 35      -0.000190986012
 36       0.000157482314
 37      -0.000079884967
 38       0.000359904355
 39       0.000389335477
 40       0.001414595854
 41      -0.000111806007
 42      -0.000128201281
 43       0.000393966618
 44       0.039468211048
 45       0.002444139620
 46      -0.000749381798
 47       0.001642950407
 48       0.000440162587
 49       0.001312074085
 50      -0.001045543463
 51      -0.004940279720
 52      -0.006119290719
 53      -0.000186227564
 54       0.001220399844
 55       0.000071590526
 56       0.001040285228
 57       0.000117530982
 58      -0.000194687955
 59       0.001448599518
 60      -0.000397566637
 61       0.000199858635
 62      -0.000066310460
 63      -0.000800109826
 64       0.000035419132
 65      -0.000320443146
 66       0.000342034126
 67      -0.000048871975
 68      -0.000255194861
 69      -0.014398894245
 70      -0.000513745865
 71      -0.000247621222
 72      -0.000372794724
 73       0.000009128807
 74      -0.000016748672
 75       0.000157295448
 76      -0.001668902358
 77       0.005484920341
 78       0.000008810617
 79      -0.000024366320
 80      -0.000001528595
 81      -0.000029385579
 82       0.000085161647
 83       0.000006473343
 84       0.000082869033
 85      -0.000528882223
 86      -0.000120910647
 87       0.000367695191
 88       0.003338893305
 89       0.001495015049
 90      -0.000013816373
 91      -0.000000486820
 92       0.000040727996
 93      -0.000044454486
 94       0.000014099462
 95       0.000064915207
 96      -0.000001072398
 97      -0.000194877099
 98       0.000209829134
 99      -0.000068230777
100      -0.000198994993
101       0.000048030506
102       0.000642346667
103      -0.000654730972
104       0.000233671068
 Sym=     1a
 Ene= -1.02137476009877E+01
 Spin= Alpha
 Occup= 1.000000
  1       0.062485568807
  2       0.007243240412
  3      -0.012044347651
  4       0.000403709492
  5      -0.000727610828
  6       0.002637700236
  7       0.000640504025
  8      -0.000453604727
  9       0.002251578437
 10       0.001345156465
 11       0.000005079962
 12      -0.000903424990
 13       0.000412489840
 14       0.000131927588
 15      -0.986097228996
 16      -0.048536308004
 17       0.030382379802
 18       0.000042221988
 19       0.000130670126
 20      -0.000280321879
 21      -0.000949110882
 22      -0.000250493242
 23      -0.000067830513
 24      -0.001086874838
 25      -0.000204891724
 26       0.001326881986
 27      -0.002104436550
 28      -0.000514030602
 29      -0.000280404604
 30       0.001703984027
 31       0.000287002545
 32       0.000276030280
 33      -0.000839731458
 34       0.004652879757
 35      -0.006859409017
 36      -0.002702689607
 37       0.000121288685
 38      -0.001401634908
 39       0.004192464955
 40      -0.007439181534
 41       0.002562261648
 42       0.000769071234
 43      -0.001398961288
 44       0.001790064969
 45      -0.000357272456
 46       0.005220642190
 47      -0.000305275920
 48       0.000008854146
 49      -0.000006772599
 50       0.002814320669
 51       0.000147112261
 52      -0.002341358950
 53      -0.000191819778
 54      -0.000206427588
 55       0.000074307847
 56      -0.000195353135
 57       0.000069715903
 58       0.000465283021
 59       0.001221262102
 60       0.000015452393
 61      -0.000102653235
 62      -0.000049568690
 63      -0.000687318530
 64      -0.001042412621
 65      -0.000073607099
 66       0.000100478069
 67       0.000142025322
 68       0.000066219733
 69      -0.002863769778
 70      -0.000052382459
 71      -0.000161258411
 72       0.000228686500
 73       0.000002753770
 74      -0.000005251719
 75       0.000046755077
 76      -0.000401091151
 77       0.001142878970
 78      -0.000000256853
 79      -0.000006555685
 80      -0.000004759951
 81       0.000001011543
 82       0.000022750060
 83       0.000016551351
 84      -0.000012064838
 85      -0.000126343509
 86      -0.000092156549
 87       0.000112146865
 88       0.000658838646
 89       0.000413768257
 90      -0.000000116949
 91       0.000002416083
 92       0.000012910527
 93      -0.000006049231
 94       0.000002606403
 95       0.000000801301
 96      -0.000011298563
 97      -0.000059928958
 98       0.000029001097
 99      -0.000012331953
100      -0.000007338968
101       0.000033048732
102       0.000170633372
103      -0.000095789073
104       0.000039114788
 Sym=     1a
 Ene= -8.66211729970819E+00
 Spin= Alpha
 Occup= 1.000000
  1       0.000032905857
  2      -0.000418345577
  3       0.000905132680
  4       0.000041342404
  5       0.000070865158
  6       0.000027579641
  7       0.000096056645
  8      -0.000353644957
  9       0.000757331260
 10      -0.000012148349
 11       0.000010364226
 12       0.000011994907
 13      -0.000011646965
 14      -0.000025572564
 15       0.000010306992
 16      -0.000061190611
 17      -0.001030370934
 18       0.000005001524
 19       0.000016869514
 20       0.000015954543
 21       0.000025236841
 22      -0.000159403182
 23       0.000508201878
 24       0.000000330315
 25      -0.000009023895
 26      -0.000005260046
 27      -0.000021756084
 28      -0.000002886644
 29      -0.000033319959
 30       0.000018364328
 31      -0.000011678317
 32       0.000007896407
 33      -0.000001481379
 34       0.000015170955
 35      -0.000025095197
 36       0.000004319501
 37       0.000010557805
 38      -0.000014154426
 39      -0.000016007009
 40       0.000012111698
 41      -0.000002770344
 42       0.000000183119
 43      -0.000005948762
 44       0.000020954064
 45      -0.000698205113
 46       0.006775148342
 47      -0.000055574454
 48      -0.000093015166
 49      -0.000046486987
 50       0.000358341329
 51      -0.002368956882
 52      -0.001451633643
 53      -0.000046242112
 54       0.000030450525
 55       0.000163537230
 56      -0.000159385569
 57       0.000018245497
 58      -0.000025161396
 59      -0.000008874273
 60       0.000023179060
 61       0.000005637121
 62      -0.000032831894
 63      -0.000208268921
 64      -0.000217107054
 65      -0.000043851273
 66      -0.000014645029
 67       0.000027385646
 68       0.000050410293
 69      -0.009905379376
 70      -0.000023474935
 71      -0.000393813982
 72      -0.000195956742
 73      -0.136665243145
 74       0.516891060444
 75      -1.093476014192
 76      -0.032416108174
 77       0.014396888489
 78       0.000067712125
 79       0.000435596396
 80       0.000209887106
 81      -0.000151877015
 82      -0.001001112789
 83      -0.000480513247
 84      -0.000192467323
 85      -0.000875749318
 86      -0.000451059759
 87       0.000635011552
 88       0.003000277840
 89       0.001554836107
 90       0.000308755699
 91      -0.000129074975
 92      -0.000936971167
 93       0.000944064100
 94      -0.000266419928
 95       0.000266611800
 96      -0.000132543967
 97      -0.000827966041
 98       0.000818176084
 99      -0.000266877481
100      -0.000173572303
101       0.000127311677
102       0.000600685359
103      -0.000556837439
104       0.000247647166
 Sym=     1a
 Ene= -6.49852242893446E+00
 Spin= Alpha
 Occup= 1.000000
  1       0.000016316789
  2      -0.000245451502
  3       0.000608948221
  4       0.000023304928
  5       0.000041428608
  6       0.000015918191
  7      -0.000050659609
  8      -0.000233162963
  9       0.000296099164
 10      -0.000004742622
 11       0.000008231933
 12       0.000010475242
 13      -0.000005074576
 14      -0.000007015347
 15       0.000006063674