[Molden Format]
[Title]
 Molden file created by orca_2mkl for BaseName=radical_031

[Atoms] AU
C    1   6          1.1731400942         0.9309792491         0.3586492332 
C    2   6          1.3245430623         0.0905707941         2.8329791542 
H    3   1          2.9435678173         1.3593461485        -0.6299874499 
H    4   1          3.1383929125        -0.0827945711         3.8019400088 
H    5   1         -0.3810254804        -0.4064782017         3.8912749221 
C    6   6         -1.0764258004         1.2438215208        -0.9796264689 
H    7   1         -2.9034281445         0.8779081803        -0.0821860793 
H    8   1         -1.0944235521         2.0407624952        -2.8838052283 
H    9   1         -1.2840783566        -2.0146842745        -2.5809539386 
Br  10  35         -1.8575063033        -4.3749805617        -3.8902847056 
[GTO]
  1 0
s   5 1.0 
     1238.4016938000         0.8208956682
      186.2900499200         1.4766449896
       42.2511763460         2.1526124058
       11.6765579320         2.1081722461
        3.5930506482         0.8290999933
s   1 1.0 
        0.4024514736         0.3601183351
s   1 1.0 
        0.1309018267         0.1551027052
p   3 1.0 
        9.4680970621         1.3467645142
        2.0103545142         1.0678070931
        0.5477100471         0.5108735714
p   1 1.0 
        0.1526861379         0.1360471976
d   1 1.0 
        0.8000000000         1.9292013661

  2 0
s   5 1.0 
     1238.4016938000         0.8208956682
      186.2900499200         1.4766449896
       42.2511763460         2.1526124058
       11.6765579320         2.1081722461
        3.5930506482         0.8290999933
s   1 1.0 
        0.4024514736         0.3601183351
s   1 1.0 
        0.1309018267         0.1551027052
p   3 1.0 
        9.4680970621         1.3467645142
        2.0103545142         1.0678070931
        0.5477100471         0.5108735714
p   1 1.0 
        0.1526861379         0.1360471976
d   1 1.0 
        0.8000000000         1.9292013661

  3 0
s   3 1.0 
       13.0107010000         0.1634903809
        1.9622572000         0.2773515510
        0.4445379600         0.3157501452
s   1 1.0 
        0.1219496200         0.1470772262
p   1 1.0 
        0.8000000000         1.0784563492

  4 0
s   3 1.0 
       13.0107010000         0.1634903809
        1.9622572000         0.2773515510
        0.4445379600         0.3157501452
s   1 1.0 
        0.1219496200         0.1470772262
p   1 1.0 
        0.8000000000         1.0784563492

  5 0
s   3 1.0 
       13.0107010000         0.1634903809
        1.9622572000         0.2773515510
        0.4445379600         0.3157501452
s   1 1.0 
        0.1219496200         0.1470772262
p   1 1.0 
        0.8000000000         1.0784563492

  6 0
s   5 1.0 
     1238.4016938000         0.8208956682
      186.2900499200         1.4766449896
       42.2511763460         2.1526124058
       11.6765579320         2.1081722461
        3.5930506482         0.8290999933
s   1 1.0 
        0.4024514736         0.3601183351
s   1 1.0 
        0.1309018267         0.1551027052
p   3 1.0 
        9.4680970621         1.3467645142
        2.0103545142         1.0678070931
        0.5477100471         0.5108735714
p   1 1.0 
        0.1526861379         0.1360471976
d   1 1.0 
        0.8000000000         1.9292013661

  7 0
s   3 1.0 
       13.0107010000         0.1634903809
        1.9622572000         0.2773515510
        0.4445379600         0.3157501452
s   1 1.0 
        0.1219496200         0.1470772262
p   1 1.0 
        0.8000000000         1.0784563492

  8 0
s   3 1.0 
       13.0107010000         0.1634903809
        1.9622572000         0.2773515510
        0.4445379600         0.3157501452
s   1 1.0 
        0.1219496200         0.1470772262
p   1 1.0 
        0.8000000000         1.0784563492

  9 0
s   3 1.0 
       13.0107010000         0.1634903809
        1.9622572000         0.2773515510
        0.4445379600         0.3157501452
s   1 1.0 
        0.1219496200         0.1470772262
p   1 1.0 
        0.8000000000         1.0784563492

 10 0
s   6 1.0 
   113286.3877600000         7.5076141183
    17009.6263030000        13.8835270484
     3870.1842567000        22.7307285566
     1093.0357227000        30.8227297499
      356.3972179700        27.2481937511
      123.1253964300         9.6953381145
s   3 1.0 
      236.7408400700        -4.7631125758
       28.4686610700         5.6113863182
       11.8834437220         1.9900291396
s   3 1.0 
       21.2696333120        -1.5429794477
        3.6129226841         1.3310800628
        1.6626648969         0.4300130345
s   1 1.0 
        0.3482379323         0.3230852630
s   1 1.0 
        0.1301903139         0.1544699827
p   5 1.0 
     1560.2801881000       115.0180051576
      368.4785920500       143.9035925417
      117.2297884900       137.5255986684
       42.6489092480        78.9578527439
       16.0872250960        15.8580577654
p   3 1.0 
        8.6352810058         6.8437546680
        3.5613665502         3.7974971038
        1.5292626609         0.5585414278
p   1 1.0 
        0.5306429485         0.6455696201
p   1 1.0 
        0.1570275896         0.1408996918
d   4 1.0 
      104.8551864200       261.4493931636
       30.2811436880       176.6993802449
       10.6513942670        76.9545600188
        3.8699456233        17.5937671387
d   1 1.0 
        1.3240876762         4.6593398042
d   1 1.0 
        0.3890000000         0.5462379705

[5D]
[7F]
[9G]
[MO]
 Sym=     1a
 Ene= -4.82766826456637E+02
 Spin= Alpha
 Occup= 1.000000
  1       0.000005656905
  2      -0.000069193801
  3       0.000078505269
  4       0.000007579622
  5       0.000016601501
  6       0.000006859041
  7       0.000053754503
  8      -0.000065311096
  9       0.000144443213
 10      -0.000001837255
 11       0.000001669166
 12      -0.000001575020
 13      -0.000000557134
 14      -0.000007298709
 15       0.000001124393
 16      -0.000004181275
 17      -0.000176733543
 18      -0.000000940013
 19       0.000002749025
 20       0.000001824124
 21       0.000016805575
 22      -0.000030134035
 23       0.000095605656
 24      -0.000001661247
 25       0.000000006666
 26      -0.000000369380
 27      -0.000005118005
 28      -0.000001505709
 29      -0.000005271139
 30      -0.000003249663
 31      -0.000002361560
 32       0.000004752369
 33      -0.000001128234
 34      -0.000000161126
 35      -0.000012398133
 36       0.000002058911
 37       0.000001659818
 38      -0.000002498919
 39       0.000001288423
 40       0.000005774019
 41      -0.000000923163
 42       0.000001366493
 43      -0.000003047710
 44       0.000008020488
 45      -0.000149025084
 46       0.000628331823
 47      -0.000008352465
 48       0.000022035767
 49       0.000005566083
 50       0.000072599062
 51      -0.000213733850
 52      -0.000104776474
 53      -0.000001990090
 54       0.000002404023
 55       0.000010493744
 56      -0.000007830734
 57       0.000003176572
 58      -0.000025607459
 59      -0.000039949580
 60      -0.000004310643
 61       0.000007850179
 62      -0.000000339145
 63      -0.000042431108
 64      -0.000063378759
 65      -0.000006700864
 66       0.000004539706
 67      -0.000000580509
 68       0.000130893731
 69      -0.000938987953
 70      -0.000026938581
 71      -0.000145417851
 72      -0.000077905091
 73      -0.994981983013
 74      -0.015688859273
 75       0.003922842329
 76      -0.002322871360
 77       0.001694889369
 78      -0.000003296419
 79      -0.000012394395
 80      -0.000006940116
 81       0.000010635240
 82       0.000039517744
 83       0.000022184832
 84      -0.000040620374
 85      -0.000150784254
 86      -0.000084644041
 87       0.000095918585
 88       0.000369324794
 89       0.000206366944
 90      -0.000001440623
 91       0.000001706053
 92       0.000006429678
 93      -0.000005334911
 94       0.000003066864
 95       0.000004317110
 96      -0.000005151510
 97      -0.000019295989
 98       0.000015993916
 99      -0.000009297208
100      -0.000002728249
101       0.000003791810
102       0.000012764013
103      -0.000010294522
104       0.000006974140
 Sym=     1a
 Ene= -6.24499213492602E+01
 Spin= Alpha
 Occup= 1.000000
  1      -0.000013511590
  2       0.000167398896
  3      -0.000185690618
  4      -0.000018351150
  5      -0.000039676633
  6      -0.000016663347
  7      -0.000131118081
  8       0.000157923545
  9      -0.000344047147
 10       0.000004415770
 11      -0.000003836721
 12       0.000003332190
 13       0.000001691430
 14       0.000017071130
 15      -0.000002687648
 16       0.000010412703
 17       0.000421061925
 18       0.000002137168
 19      -0.000006669865
 20      -0.000004470058
 21      -0.000038876404
 22       0.000071730562
 23      -0.000227836703
 24       0.000003896127
 25       0.000000066778
 26       0.000000953890
 27       0.000012051012
 28       0.000003448648
 29       0.000013296564
 30       0.000008517362
 31       0.000005570034
 32      -0.000011302341
 33       0.000002575010
 34       0.000000207548
 35       0.000029329886
 36      -0.000004808973
 37      -0.000003897843
 38       0.000005844719
 39      -0.000002561123
 40      -0.000013810518
 41       0.000002160837
 42      -0.000003160472
 43       0.000007142331
 44      -0.000019026054
 45       0.000358844914
 46      -0.001527846593
 47       0.000020091165
 48      -0.000051844332
 49      -0.000012952614
 50      -0.000174126848
 51       0.000518095940
 52       0.000252933563
 53       0.000004811399
 54      -0.000005837824
 55      -0.000024945470
 56       0.000018604840
 57      -0.000007374070
 58       0.000060701887
 59       0.000100062463
 60       0.000010725321
 61      -0.000017879590
 62       0.000001009137
 63       0.000101073136
 64       0.000154819859
 65       0.000016064004
 66      -0.000010095647
 67       0.000002159934
 68      -0.000342226513
 69       0.002319068687
 70       0.000067802025
 71       0.000361881368
 72       0.000194230650
 73       0.347186594085
 74      -1.046958157018
 75      -0.018588585573
 76       0.006287306612
 77      -0.004316937626
 78      -0.000083749655
 79      -0.000363640332
 80      -0.000197967558
 81      -0.000035948702
 82      -0.000138836907
 83      -0.000077456369
 84       0.000103173810
 85       0.000386518085
 86       0.000216834376
 87      -0.000236197982
 88      -0.000911984436
 89      -0.000509572858
 90       0.000010934012
 91      -0.000010647503
 92      -0.000045744475
 93       0.000039347529
 94      -0.000019686947
 95      -0.000012252010
 96       0.000013984573
 97       0.000053772819
 98      -0.000045005225
 99       0.000024885191
100       0.000005800981
101      -0.000008411491
102      -0.000027522180
103       0.000022053322
104      -0.000014869240
 Sym=     1a
 Ene= -5.62816821979406E+01
 Spin= Alpha
 Occup= 1.000000
  1       0.000015146004
  2      -0.000182642882
  3       0.000091912788
  4       0.000021542472
  5       0.000044741777
  6       0.000019477715
  7       0.000182240740
  8      -0.000180927026
  9       0.000415157051
 10      -0.000006087591
 11       0.000002799154
 12      -0.000003910811
 13      -0.000003341776
 14      -0.000020636487
 15       0.000003146738
 16      -0.000014931960
 17      -0.000454569160
 18      -0.000003071905
 19       0.000007904885
 20       0.000004825700
 21       0.000044311405
 22      -0.000082103315
 23       0.000252297073
 24      -0.000004295778
 25       0.000001143847
 26      -0.000000782729
 27      -0.000013481820
 28      -0.000004098516
 29      -0.000011997425
 30       0.000001432790
 31      -0.000007538879
 32       0.000012179102
 33      -0.000004268885
 34      -0.000002192293
 35      -0.000038747209
 36       0.000005962758
 37       0.000004273924
 38      -0.000005068078
 39       0.000002230445
 40       0.000015401395
 41      -0.000002004883
 42       0.000003927583
 43      -0.000008305571
 44       0.000018105706
 45      -0.000398353386
 46       0.001828119337
 47      -0.000028228752
 48       0.000048656273
 49       0.000007269559
 50       0.000260119318
 51      -0.000598115351
 52      -0.000269522690
 53      -0.000006997514
 54       0.000007817182
 55       0.000036582296
 56      -0.000030028924
 57       0.000008222015
 58      -0.000065068996
 59      -0.000107679187
 60      -0.000016575569
 61       0.000026295421
 62      -0.000001348889
 63      -0.000116843728
 64      -0.000186106121
 65      -0.000024091859
 66       0.000019040919
 67      -0.000004908555
 68       0.000626617144
 69      -0.002697686725
 70      -0.000187008139
 71      -0.000859214958
 72      -0.000469455762
 73       0.000183139449
 74      -0.000545698965
 75       0.000272888339
 76      -0.000987837439
 77       0.001881144679
 78       0.178721568582
 79       0.859582674644
 80       0.458970237427
 81       0.004322297639
 82       0.020741393206
 83       0.011079667722
 84      -0.001189957461
 85      -0.005569516920
 86      -0.002989183475
 87       0.000632468345
 88       0.002795816573
 89       0.001517233262
 90      -0.000011238029
 91       0.000011234128
 92       0.000046943232
 93      -0.000040392919
 94       0.000020311096
 95       0.000006478728
 96      -0.000008211745
 97      -0.000028541546
 98       0.000023495350
 99      -0.000014177833
100       0.000037325634
101      -0.000036647003
102      -0.000159671644
103       0.000136850656
104      -0.000066580314
 Sym=     1a
 Ene= -5.62795213880205E+01
 Spin= Alpha
 Occup= 1.000000
  1       0.000000863810
  2      -0.000013558646
  3       0.000137562566
  4       0.000002918796
  5       0.000008449348
  6      -0.000002619038
  7      -0.000064591405
  8      -0.000101953147
  9       0.000099737509
 10       0.000000805446
 11      -0.000000071666
 12      -0.000000961929
 13       0.000003876033
 14       0.000004652817
 15       0.000000200052
 16      -0.000003095717
 17      -0.000175483270
 18       0.000005925088
 19      -0.000008939248
 20       0.000001694047
 21      -0.000019874744
 22       0.000023877038
 23       0.000048475060
 24      -0.000000760034
 25      -0.000002547753
 26      -0.000002384383
 27      -0.000002718709
 28       0.000001031586
 29       0.000008540424
 30       0.000042004522
 31      -0.000001433695
 32       0.000006343150
 33       0.000002974708
 34       0.000011610316
 35       0.000031144275
 36      -0.000001933495
 37      -0.000003973559
 38      -0.000005776972
 39      -0.000001909550
 40       0.000030166140
 41      -0.000000605486
 42      -0.000003632614
 43      -0.000006354708
 44      -0.000003396305
 45       0.000051368894
 46      -0.000171635736
 47      -0.000014705563
 48      -0.000022760226
 49       0.000008735734
 50       0.000059864196
 51       0.000133572173
 52      -0.000045933107
 53       0.000004852125
 54       0.000004347986
 55      -0.000000624532
 56      -0.000001958446
 57      -0.000002300237
 58       0.000107058675
 59      -0.000113092754
 60      -0.000013513515
 61      -0.000004806657
 62       0.000012420208
 63      -0.000051515735
 64       0.000099214057
 65      -0.000009974292
 66      -0.000019804551
 67       0.000007173897
 68      -0.000002043499
 69       0.000179705850
 70      -0.000021188116
 71       0.000004144420
 72       0.000021952689
 73      -0.000001625155
 74       0.000004653415
 75      -0.000005373359
 76       0.000036506835
 77      -0.000117898720
 78      -0.676102474884
 79      -0.226693560921
 80       0.687839680310
 81      -0.016149810191
 82      -0.005417171078
 83       0.016426820095
 84       0.003906678114
 85       0.001320212118
 86      -0.003960392781
 87      -0.001446450566
 88      -0.000539920861
 89       0.001416031960
 90       0.000021349154
 91      -0.000007346019
 92       0.000017036841
 93       0.000003268761
 94      -0.000024086060
 95      -0.000007377788
 96       0.000004382231
 97      -0.000001601820
 98      -0.000004698372
 99       0.000009615921
100       0.000002480182
101      -0.000004498763
102      -0.000009060205
103       0.000009322406
104      -0.000005682476
 Sym=     1a
 Ene= -5.62794995576924E+01
 Spin= Alpha
 Occup= 1.000000
  1      -0.000008468062
  2       0.000094275655
  3      -0.000382703909
  4      -0.000019952633
  5      -0.000028469543
  6      -0.000019444580
  7       0.000211490238
  8       0.000142858950
  9       0.000114922141
 10      -0.000008724819
 11      -0.000006833781
 12       0.000004981665
 13      -0.000011360636
 14      -0.000009752091
 15      -0.000000590902
 16      -0.000006433445
 17       0.000107925723
 18       0.000000895457
 19      -0.000004254897
 20      -0.000003286792
 21      -0.000107310517
 22      -0.000038845170
 23      -0.000039188867
 24       0.000004073049
 25       0.000003162460
 26       0.000007133781
 27       0.000004333433
 28      -0.000002560121
 29       0.000002645864
 30      -0.000023357050
 31      -0.000003230324
 32      -0.000017212091
 33      -0.000018560855
 34       0.000009819850
 35       0.000030628902
 36       0.000000802450
 37       0.000002120922
 38       0.000003240316
 39      -0.000013003803
 40      -0.000069392456
 41      -0.000001450205
 42       0.000001630036
 43       0.000006114090
 44       0.000003030717
 45      -0.000065389833
 46       0.000483775496
 47       0.000022962494
 48       0.000029014858
 49       0.000035194359
 50       0.000022918975
 51      -0.000219976552
 52      -0.000086875334
 53       0.000005038586
 54      -0.000007248374
 55      -0.000001981630
 56      -0.000005148617
 57      -0.000000486040
 58      -0.000061017068
 59       0.000014477042
 60       0.000010341504
 61       0.000013234454
 62       0.000016326276
 63      -0.000096878076
 64       0.000081626077
 65       0.000008777380
 66       0.000006920385
 67       0.000015275284
 68       0.000008100187
 69      -0.000376057117
 70       0.000024087334
 71      -0.000051212510
 72      -0.000000271676
 73       0.000004366776
 74      -0.000012584600
 75       0.000013828299
 76      -0.000078897652
 77       0.000240260548
 78       0.701829192798
 79      -0.437316716576
 80       0.545726115509
 81       0.016766493318
 82      -0.010437015048
 83       0.013039409438
 84      -0.004063520913
 85       0.002492387861
 86      -0.003168253776
 87       0.001521542487
 88      -0.000800365535
 89       0.001224007290
 90       0.000015652703
 91       0.000017392019
 92       0.000012348204
 93       0.000017698790
 94       0.000020659131
 95      -0.000003416950
 96      -0.000008176780
 97      -0.000011232113
 98      -0.000000515696
 99      -0.000010583533
100      -0.000002808203
101       0.000005310144
102       0.000014720328
103      -0.000010159833
104       0.000008005679
 Sym=     1a
 Ene= -1.02151309931873E+01
 Spin= Alpha
 Occup= 1.000000
  1      -0.136180070755
  2      -0.003946813421
  3      -0.003599069661
  4      -0.001886621522
  5       0.000686551314
  6      -0.001140421947
  7      -0.000694768073
  8      -0.001275318193
  9       0.004373794835
 10      -0.000137895281
 11       0.001095363133
 12      -0.000332631481
 13       0.000984970680
 14      -0.000441794093
 15      -0.026323387717
 16      -0.000515664229
 17      -0.004369442412
 18      -0.000263966826
 19       0.000105885300
 20      -0.000187297996
 21       0.004834750172
 22      -0.000533514329
 23       0.002325646757
 24      -0.000044033975
 25      -0.000050363863
 26       0.000071667739
 27      -0.000218505683
 28      -0.000048532153
 29       0.000893319346
 30       0.000596529496
 31       0.000189259995
 32      -0.000034151370
 33       0.000294194315
 34      -0.000687156060
 35      -0.001988058072
 36      -0.000029069678
 37       0.000003621579
 38       0.000056572563
 39       0.000986754053
 40       0.001716830469
 41       0.000028081137
 42       0.000070401197
 43      -0.000109378958
 44      -0.978137416074
 45      -0.051451860640
 46       0.043230779862
 47       0.000727355993
 48       0.000783506009
 49       0.000753043456
 50       0.001998216113
 51      -0.005396009648
 52      -0.001899335817
 53      -0.000807628289
 54       0.000221391883
 55       0.001391382391
 56      -0.001425038321
 57      -0.000143545444
 58       0.003106897193
 59      -0.007476439106
 60       0.002386713799
 61       0.000933552709
 62      -0.001371763231
 63       0.003091642144
 64      -0.007833051772
 65      -0.000279224460
 66      -0.000863992397
 67       0.002838663535
 68      -0.000846949910
 69      -0.014172314221
 70       0.000043845428
 71      -0.000103345774
 72      -0.000116762614
 73       0.000011991410
 74      -0.000021753130
 75       0.000207547862
 76      -0.002262840018
 77       0.008900101154
 78      -0.000007449815
 79      -0.000017796594
 80      -0.000007160962
 81       0.000026394958
 82       0.000064312083
 83       0.000026527023
 84      -0.000176974450
 85      -0.000521096694
 86      -0.000254516648
 87       0.001219482552
 88       0.004599369486
 89       0.002502492515
 90      -0.000013552921
 91       0.000017503330
 92       0.000057986467
 93      -0.000047423349
 94       0.000032669609
 95       0.000064219754
 96      -0.000082397695
 97      -0.000277123589
 98       0.000226869125
 99      -0.000153348530
100      -0.000208307622
101       0.000254231083
102       0.000910660777
103      -0.000752530667
104       0.000468871088
 Sym=     1a
 Ene= -1.02136750049102E+01
 Spin= Alpha
 Occup= 1.000000
  1       0.743811770183
  2       0.034099388184
  3      -0.027357453827
  4      -0.000181767132
  5       0.000393822583
  6      -0.001937219554
  7       0.002811882730
  8       0.002431726517
  9      -0.005935940135
 10      -0.000306134287
 11      -0.000020963194
 12      -0.000289359458
 13       0.001412400096
 14       0.000240139633
 15       0.639995444879
 16       0.028292217381
 17      -0.005112975933
 18       0.000068159557
 19      -0.000754871161
 20       0.002139728918
 21      -0.000649946130
 22       0.001363022665
 23      -0.004155681607
 24      -0.000477281347
 25       0.000081736134
 26      -0.000045910676
 27       0.001058073505
 28       0.000167610707
 29      -0.003674221197
 30       0.003945173789
 31       0.001959048461
 32       0.000230685675
 33      -0.000553178375
 34      -0.002809607245
 35       0.003955957859
 36       0.001524757512
 37      -0.000081177929
 38       0.000612476932
 39      -0.002705564994
 40       0.003867103777
 41      -0.001423212646
 42      -0.000316011480
 43       0.000583563280
 44      -0.120084980758
 45      -0.007738807244
 46       0.008299340591
 47      -0.001313859998
 48      -0.000126354211
 49      -0.001104985031
 50      -0.001536123326
 51       0.000433473327
 52       0.005510975874
 53       0.000042633078
 54      -0.000667778521
 55       0.000359702030
 56      -0.001065638312
 57       0.000044096296
 58       0.000177212886
 59      -0.003489978543
 60       0.000640142313
 61      -0.000007902047
 62      -0.000123892598
 63       0.001785418363
 64      -0.000071973459
 65       0.000313998679
 66      -0.000294292916
 67       0.000521505999
 68      -0.000427636284
 69       0.007162194728
 70       0.000156076809
 71      -0.000226292596
 72      -0.000089982298
 73      -0.000008142145
 74       0.000014870117
 75      -0.000140568119
 76       0.001409344096
 77      -0.004903763630
 78      -0.000003630200
 79       0.000022442648
 80       0.000004811612
 81       0.000011627052
 82      -0.000078433994
 83      -0.000017651182
 84       0.000001658835
 85       0.000484659691
 86       0.000166582593
 87      -0.000521924337
 88      -0.002782414056
 89      -0.001392029181
 90       0.000010378738
 91      -0.000006711008
 92      -0.000039641547
 93       0.000035550067
 94      -0.000017713191
 95      -0.000049035868
 96       0.000034327906
 97       0.000189714166
 98      -0.000168616858
 99       0.000086250557
100       0.000145085669
101      -0.000124274289
102      -0.000586497142
103       0.000509048279
104      -0.000273428609
 Sym=     1a
 Ene= -1.02132669910284E+01
 Spin= Alpha
 Occup= 1.000000
  1       0.636239718868
  2       0.033948559079
  3      -0.035199670781
  4       0.000357586729
  5      -0.000641589757
  6       0.001467500483
  7       0.002791089606
  8       0.000311134300
  9      -0.000002909778
 10       0.001546464941
 11       0.000082269332
 12      -0.001574704348
 13       0.001461394266
 14       0.000218537857
 15      -0.752322326535
 16      -0.039686378263
 17       0.032953517880
 18       0.000127008548
 19      -0.000423089310
 20       0.001132313939
 21      -0.001928436696
 22       0.000759904155
 23      -0.002613083701
 24      -0.001351229544
 25      -0.000140894554
 26       0.001568142889
 27      -0.001670276106
 28      -0.000263306157
 29      -0.002784725992
 30       0.005453629784
 31       0.001714043690
 32       0.000540857247
 33      -0.001413258546
 34       0.003771501562
 35      -0.005545733203
 36      -0.002242810877
 37       0.000222312295
 38      -0.001236556761
 39       0.003156784097
 40      -0.006609491419
 41       0.002099187824
 42       0.000618598630
 43      -0.001336835686
 44      -0.067793739734
 45      -0.005138997516
 46       0.011161415779
 47      -0.001461778551
 48      -0.000052378916
 49      -0.000780711479
 50       0.003703767497
 51       0.001359348558
 52       0.000343331936
 53      -0.000087610599
 54      -0.000713602779
 55       0.000396596003
 56      -0.001054546888
 57       0.000095578452
 58       0.001013081921
 59      -0.000039896236
 60       0.000562380883
 61      -0.000011122262
 62      -0.000104515398
 63       0.000159822171
 64      -0.001955738014
 65       0.000049981225
 66      -0.000196641246
 67       0.000410421132
 68      -0.000139291519
 69       0.003284334917
 70       0.000159766803
 71      -0.000108336921
 72       0.000167054996
 73      -0.000003827895
 74       0.000007027645
 75      -0.000065970140
 76       0.000639008125
 77      -0.002237375336
 78      -0.000004350864
 79       0.000011460474
 80       0.000001509534
 81       0.000014422369
 82      -0.000040113586
 83      -0.000005867198
 84      -0.000037364643
 85       0.000233013716
 86       0.000068386914
 87      -0.000173018436
 88      -0.001273122750
 89      -0.000627491787
 90       0.000004178657
 91      -0.000001776461
 92      -0.000018807101
 93       0.000017913309
 94      -0.000007354054
 95      -0.000018405826
 96       0.000009962998
 97       0.000088492694
 98      -0.000081791613
 99       0.000035548676
100       0.000049189504
101      -0.000043170219
102      -0.000263227348
103       0.000226868934
104      -0.000111984296
 Sym=     1a
 Ene= -8.66786768704896E+00
 Spin= Alpha
 Occup= 1.000000
  1       0.000035252372
  2      -0.000386550775
  3       0.000466698246
  4       0.000040686362
  5       0.000080944743
  6       0.000037686188
  7       0.000260410863
  8      -0.000363249190
  9       0.000646326818
 10      -0.000008741822
 11       0.000008512921
 12       0.000000762666
 13      -0.000007290339
 14      -0.000027908719
 15       0.000008033951
 16      -0.000029784385
 17      -0.000844538771
 18      -0.000001745718
 19       0.000015935066
 20       0.000011883594
 21       0.000064374155
 22      -0.000137635541
 23       0.000454516253
 24      -0.000006817261
 25      -0.000002225746
 26      -0.000004049877
 27      -0.000023024188
 28      -0.000004459114
 29      -0.000041246805
 30      -0.000032199297
 31      -0.000009363688
 32       0.000023466854
 33      -0.000000473062
 34       0.000003174601
 35      -0.000053562033
 36       0.000007612730
 37       0.000007326062
 38      -0.000011316592
 39      -0.000002160913
 40       0.000030345366
 41      -0.000003450566
 42       0.000004514571
 43      -0.000012161749
 44       0.000043882885
 45      -0.000760826072
 46       0.003410139269
 47      -0.000042746114
 48       0.000088272602
 49       0.000019539565
 50       0.000329816987
 51      -0.001166405853
 52      -0.000573019060
 53      -0.000012131697
 54       0.000013310694
 55       0.000050584307
 56      -0.000038205896
 57       0.000011365206
 58      -0.000107095562
 59      -0.000254417773
 60      -0.000023929904
 61       0.000017041068
 62      -0.000009358555
 63      -0.000189509396
 64      -0.000343154342
 65      -0.000032385287
 66      -0.000000079538
 67      -0.000014215481
 68       0.001034947645
 69      -0.006168607461
 70      -0.000142159728
 71      -0.000751563720
 72      -0.000405107680
 73      -0.136659909151
 74       0.516877881561
 75      -1.093412812966
 76      -0.032260716594
 77       0.014096505790
 78       0.000352072573
 79       0.001489634538
 80       0.000815576366
 81      -0.000827650194
 82      -0.003509624727
 83      -0.001920442525
 84      -0.000304950339
 85      -0.001194145732
 86      -0.000665952004
 87       0.000628631661
 88       0.002469839876
 89       0.001378035628
 90       0.000178123248
 91      -0.000168065038
 92      -0.000727347046
 93       0.000628273837
 94      -0.000309077096
 95       0.000141241948
 96      -0.000145856954
 97      -0.000592578385
 98       0.000504087128
 99      -0.000256922964
100      -0.000021923419
101       0.000031013874
102       0.000103444903
103      -0.000083048266
104       0.000048868780
 Sym=     1a
 Ene= -6.50064341750438E+00
 Spin= Alpha
 Occup= 1.000000
  1       0.000018242246
  2      -0.000228363092
  3       0.000322664098
  4       0.000024855180
  5       0.000046559046
  6       0.000021984578
  7       0.000095226426
  8      -0.000212093879
  9       0.000329354298
 10      -0.000004255305
 11       0.000005341451
 12       0.000001194172
 13      -0.000003644136
 14      -0.000014330473
 15       0.000004545745