[Molden Format]
[Title]
 Molden file created by orca_2mkl for BaseName=radical_028

[Atoms] AU
C    1   6          1.1736597689         0.9218726588         0.3547696255 
C    2   6          1.3235906404         0.0888549228         2.8303240890 
H    3   1          2.9442878030         1.3492002089        -0.6347760159 
H    4   1          3.1358134364        -0.0736350685         3.8042227980 
H    5   1         -0.3828301688        -0.4100063204         3.8868737499 
C    6   6         -1.0764031237         1.2277153850        -0.9855715473 
H    7   1         -2.9028461088         0.8618247212        -0.0865173316 
H    8   1         -1.0966836646         2.0318089728        -2.8866965093 
H    9   1         -1.2833545915        -1.9822698022        -2.5693585791 
Br  10  35         -1.8524834113        -4.3509148994        -3.8752765006 
[GTO]
  1 0
s   5 1.0 
     1238.4016938000         0.8208956682
      186.2900499200         1.4766449896
       42.2511763460         2.1526124058
       11.6765579320         2.1081722461
        3.5930506482         0.8290999933
s   1 1.0 
        0.4024514736         0.3601183351
s   1 1.0 
        0.1309018267         0.1551027052
p   3 1.0 
        9.4680970621         1.3467645142
        2.0103545142         1.0678070931
        0.5477100471         0.5108735714
p   1 1.0 
        0.1526861379         0.1360471976
d   1 1.0 
        0.8000000000         1.9292013661

  2 0
s   5 1.0 
     1238.4016938000         0.8208956682
      186.2900499200         1.4766449896
       42.2511763460         2.1526124058
       11.6765579320         2.1081722461
        3.5930506482         0.8290999933
s   1 1.0 
        0.4024514736         0.3601183351
s   1 1.0 
        0.1309018267         0.1551027052
p   3 1.0 
        9.4680970621         1.3467645142
        2.0103545142         1.0678070931
        0.5477100471         0.5108735714
p   1 1.0 
        0.1526861379         0.1360471976
d   1 1.0 
        0.8000000000         1.9292013661

  3 0
s   3 1.0 
       13.0107010000         0.1634903809
        1.9622572000         0.2773515510
        0.4445379600         0.3157501452
s   1 1.0 
        0.1219496200         0.1470772262
p   1 1.0 
        0.8000000000         1.0784563492

  4 0
s   3 1.0 
       13.0107010000         0.1634903809
        1.9622572000         0.2773515510
        0.4445379600         0.3157501452
s   1 1.0 
        0.1219496200         0.1470772262
p   1 1.0 
        0.8000000000         1.0784563492

  5 0
s   3 1.0 
       13.0107010000         0.1634903809
        1.9622572000         0.2773515510
        0.4445379600         0.3157501452
s   1 1.0 
        0.1219496200         0.1470772262
p   1 1.0 
        0.8000000000         1.0784563492

  6 0
s   5 1.0 
     1238.4016938000         0.8208956682
      186.2900499200         1.4766449896
       42.2511763460         2.1526124058
       11.6765579320         2.1081722461
        3.5930506482         0.8290999933
s   1 1.0 
        0.4024514736         0.3601183351
s   1 1.0 
        0.1309018267         0.1551027052
p   3 1.0 
        9.4680970621         1.3467645142
        2.0103545142         1.0678070931
        0.5477100471         0.5108735714
p   1 1.0 
        0.1526861379         0.1360471976
d   1 1.0 
        0.8000000000         1.9292013661

  7 0
s   3 1.0 
       13.0107010000         0.1634903809
        1.9622572000         0.2773515510
        0.4445379600         0.3157501452
s   1 1.0 
        0.1219496200         0.1470772262
p   1 1.0 
        0.8000000000         1.0784563492

  8 0
s   3 1.0 
       13.0107010000         0.1634903809
        1.9622572000         0.2773515510
        0.4445379600         0.3157501452
s   1 1.0 
        0.1219496200         0.1470772262
p   1 1.0 
        0.8000000000         1.0784563492

  9 0
s   3 1.0 
       13.0107010000         0.1634903809
        1.9622572000         0.2773515510
        0.4445379600         0.3157501452
s   1 1.0 
        0.1219496200         0.1470772262
p   1 1.0 
        0.8000000000         1.0784563492

 10 0
s   6 1.0 
   113286.3877600000         7.5076141183
    17009.6263030000        13.8835270484
     3870.1842567000        22.7307285566
     1093.0357227000        30.8227297499
      356.3972179700        27.2481937511
      123.1253964300         9.6953381145
s   3 1.0 
      236.7408400700        -4.7631125758
       28.4686610700         5.6113863182
       11.8834437220         1.9900291396
s   3 1.0 
       21.2696333120        -1.5429794477
        3.6129226841         1.3310800628
        1.6626648969         0.4300130345
s   1 1.0 
        0.3482379323         0.3230852630
s   1 1.0 
        0.1301903139         0.1544699827
p   5 1.0 
     1560.2801881000       115.0180051576
      368.4785920500       143.9035925417
      117.2297884900       137.5255986684
       42.6489092480        78.9578527439
       16.0872250960        15.8580577654
p   3 1.0 
        8.6352810058         6.8437546680
        3.5613665502         3.7974971038
        1.5292626609         0.5585414278
p   1 1.0 
        0.5306429485         0.6455696201
p   1 1.0 
        0.1570275896         0.1408996918
d   4 1.0 
      104.8551864200       261.4493931636
       30.2811436880       176.6993802449
       10.6513942670        76.9545600188
        3.8699456233        17.5937671387
d   1 1.0 
        1.3240876762         4.6593398042
d   1 1.0 
        0.3890000000         0.5462379705

[5D]
[7F]
[9G]
[MO]
 Sym=     1a
 Ene= -4.82765920915179E+02
 Spin= Alpha
 Occup= 1.000000
  1      -0.000005645278
  2       0.000069847746
  3      -0.000081063803
  4      -0.000007514482
  5      -0.000016559499
  6      -0.000006757487
  7      -0.000052809296
  8       0.000065077805
  9      -0.000144461722
 10       0.000001905205
 11      -0.000001791592
 12       0.000001415551
 13       0.000000535291
 14       0.000007308584
 15      -0.000001141245
 16       0.000004394822
 17       0.000177334578
 18       0.000000906398
 19      -0.000002723403
 20      -0.000001837198
 21      -0.000016639885
 22       0.000029783306
 23      -0.000095725824
 24       0.000001600590
 25       0.000000056727
 26       0.000000402531
 27       0.000005158867
 28       0.000001504322
 29       0.000005436025
 30       0.000003172045
 31       0.000002310385
 32      -0.000004626194
 33       0.000001085481
 34       0.000000053481
 35       0.000012265045
 36      -0.000002005539
 37      -0.000001661626
 38       0.000002528279
 39      -0.000001188875
 40      -0.000005871725
 41       0.000000882961
 42      -0.000001300895
 43       0.000002996381
 44      -0.000007896014
 45       0.000150232897
 46      -0.000642175631
 47       0.000008430255
 48      -0.000021057992
 49      -0.000005257098
 50      -0.000071897543
 51       0.000220182595
 52       0.000109279955
 53       0.000002357646
 54      -0.000002486974
 55      -0.000011615443
 56       0.000009027459
 57      -0.000003203564
 58       0.000025214298
 59       0.000040000099
 60       0.000004154485
 61      -0.000007512822
 62       0.000000531490
 63       0.000042533861
 64       0.000062856207
 65       0.000006759229
 66      -0.000003995620
 67       0.000000521741
 68      -0.000127988127
 69       0.000967222070
 70       0.000026273681
 71       0.000144550121
 72       0.000077159374
 73       0.994981972000
 74       0.015688883524
 75      -0.003922971483
 76       0.002326564358
 77      -0.001711345787
 78       0.000003263290
 79       0.000012389749
 80       0.000006885378
 81      -0.000010537602
 82      -0.000039525403
 83      -0.000022021297
 84       0.000040407445
 85       0.000151397351
 86       0.000084348243
 87      -0.000097437850
 88      -0.000379117953
 89      -0.000210353817
 90       0.000001508469
 91      -0.000001728291
 92      -0.000006568962
 93       0.000005494526
 94      -0.000003129881
 95      -0.000004573778
 96       0.000005277322
 97       0.000019937959
 98      -0.000016660772
 99       0.000009594815
100       0.000003425547
101      -0.000004447968
102      -0.000015399825
103       0.000012600294
104      -0.000008222539
 Sym=     1a
 Ene= -6.24490243901999E+01
 Spin= Alpha
 Occup= 1.000000
  1       0.000013463743
  2      -0.000168699391
  3       0.000190510867
  4       0.000018166275
  5       0.000039499194
  6       0.000016391792
  7       0.000129246683
  8      -0.000157200322
  9       0.000344141706
 10      -0.000004584816
 11       0.000004114486
 12      -0.000002936276
 13      -0.000001674256
 14      -0.000017088889
 15       0.000002724931
 16      -0.000010930841
 17      -0.000422023643
 18      -0.000002050142
 19       0.000006593547
 20       0.000004491053
 21       0.000038281396
 22      -0.000070859232
 23       0.000227901018
 24      -0.000003745542
 25      -0.000000205426
 26      -0.000001022336
 27      -0.000012137306
 28      -0.000003444845
 29      -0.000013640226
 30      -0.000008272574
 31      -0.000005472068
 32       0.000010976080
 33      -0.000002503417
 34       0.000000063271
 35      -0.000028953104
 36       0.000004682406
 37       0.000003896320
 38      -0.000005903291
 39       0.000002303499
 40       0.000013960579
 41      -0.000002064207
 42       0.000003002170
 43      -0.000007016515
 44       0.000018702479
 45      -0.000361428975
 46       0.001561747213
 47      -0.000020287409
 48       0.000049426409
 49       0.000012194546
 50       0.000172689605
 51      -0.000533447144
 52      -0.000263519481
 53      -0.000005656015
 54       0.000006015283
 55       0.000027573305
 56      -0.000021400108
 57       0.000007423573
 58      -0.000059711068
 59      -0.000100330423
 60      -0.000010419319
 61       0.000017062735
 62      -0.000001449120
 63      -0.000101306424
 64      -0.000153601902
 65      -0.000016212634
 66       0.000008834968
 67      -0.000002064252
 68       0.000335172623
 69      -0.002386319268
 70      -0.000066239909
 71      -0.000360091072
 72      -0.000192545248
 73      -0.347186579471
 74       1.046958100374
 75       0.018588955947
 76      -0.006296049785
 77       0.004355897141
 78       0.000081952280
 79       0.000360951859
 80       0.000195145739
 81       0.000035506621
 82       0.000138547302
 83       0.000076732899
 84      -0.000102550835
 85      -0.000387863331
 86      -0.000215970891
 87       0.000239684933
 88       0.000935179939
 89       0.000518882787
 90      -0.000011190976
 91       0.000010537739
 92       0.000045849217
 93      -0.000039746698
 94       0.000019614170
 95       0.000012874478
 96      -0.000014221724
 97      -0.000055174360
 98       0.000046538902
 99      -0.000025490892
100      -0.000007428162
101       0.000009950236
102       0.000033683342
103      -0.000027428609
104       0.000017780721
 Sym=     1a
 Ene= -5.62807874200453E+01
 Spin= Alpha
 Occup= 1.000000
  1      -0.000014988051
  2       0.000183380853
  3      -0.000099609763
  4      -0.000020998457
  5      -0.000044510879
  6      -0.000018919801
  7      -0.000177949827
  8       0.000179791620
  9      -0.000413110427
 10       0.000006243820
 11      -0.000003246573
 12       0.000003586076
 13       0.000003022486
 14       0.000020587768
 15      -0.000003218775
 16       0.000015904736
 17       0.000453542951
 18       0.000002892641
 19      -0.000007828313
 20      -0.000004969338
 21      -0.000043115436
 22       0.000080764906
 23      -0.000251002982
 24       0.000004111939
 25      -0.000000944182
 26       0.000000891238
 27       0.000013525111
 28       0.000004031782
 29       0.000012485060
 30      -0.000002062388
 31       0.000007353976
 32      -0.000011783704
 33       0.000004142110
 34       0.000001744564
 35       0.000037995808
 36      -0.000005746368
 37      -0.000004283016
 38       0.000005118714
 39      -0.000001741516
 40      -0.000015521342
 41       0.000001838510
 42      -0.000003723215
 43       0.000008072435
 44      -0.000017164292
 45       0.000397345788
 46      -0.001853801871
 47       0.000028461356
 48      -0.000043613247
 49      -0.000005406796
 50      -0.000257948837
 51       0.000612582194
 52       0.000281744260
 53       0.000008571762
 54      -0.000008112318
 55      -0.000041630441
 56       0.000035420279
 57      -0.000008330781
 58       0.000062557107
 59       0.000105556971
 60       0.000015739420
 61      -0.000025578978
 62       0.000001885498
 63       0.000116072809
 64       0.000183179194
 65       0.000024261428
 66      -0.000017640938
 67       0.000004392823
 68      -0.000614129095
 69       0.002771179103
 70       0.000183761439
 71       0.000855519720
 72       0.000465076545
 73      -0.000181608592
 74       0.000541054448
 75      -0.000272143700
 76       0.000995502899
 77      -0.001924760777
 78      -0.175703241548
 79      -0.861234231198
 80      -0.457036239392
 81      -0.004249481651
 82      -0.020780289791
 83      -0.011032348956
 84       0.001170872273
 85       0.005578761629
 86       0.002975445536
 87      -0.000630151714
 88      -0.002825917805
 89      -0.001524017803
 90       0.000011442874
 91      -0.000011069895
 92      -0.000046801618
 93       0.000040588829
 94      -0.000020141491
 95      -0.000007014158
 96       0.000008533298
 97       0.000030011240
 98      -0.000024940687
 99       0.000014869244
100      -0.000035840806
101       0.000033885092
102       0.000150501876
103      -0.000130077417
104       0.000061957071
 Sym=     1a
 Ene= -5.62786274119982E+01
 Spin= Alpha
 Occup= 1.000000
  1      -0.000000815112
  2       0.000012839191
  3      -0.000135525012
  4      -0.000002862195
  5      -0.000008525491
  6       0.000002878070
  7       0.000065522153
  8       0.000105173745
  9      -0.000105018317
 10      -0.000000736705
 11       0.000000194688
 12       0.000000849035
 13      -0.000003945484
 14      -0.000004890464
 15      -0.000000226395
 16       0.000003717664
 17       0.000179075172
 18      -0.000006198562
 19       0.000009216252
 20      -0.000001828965
 21       0.000021828126
 22      -0.000024752198
 23      -0.000048928604
 24       0.000000705703
 25       0.000002597777
 26       0.000002530883
 27       0.000002686404
 28      -0.000001034600
 29      -0.000009173224
 30      -0.000044483827
 31       0.000001580961
 32      -0.000006523948
 33      -0.000002930230
 34      -0.000012070568
 35      -0.000032403699
 36       0.000001969508
 37       0.000004138579
 38       0.000005879117
 39       0.000002189510
 40      -0.000030534121
 41       0.000000608646
 42       0.000003755018
 43       0.000006476436
 44       0.000003527706
 45      -0.000053893653
 46       0.000177292998
 47       0.000015176981
 48       0.000023572539
 49      -0.000009282420
 50      -0.000065364407
 51      -0.000141987321
 52       0.000049706775
 53      -0.000005335537
 54      -0.000004470067
 55       0.000001051241
 56       0.000001776399
 57       0.000002552229
 58      -0.000110672554
 59       0.000113920283
 60       0.000013625469
 61       0.000004645331
 62      -0.000013065721
 63       0.000053322438
 64      -0.000097361787
 65       0.000010524655
 66       0.000020228514
 67      -0.000006756595
 68       0.000002034159
 69      -0.000194590459
 70       0.000020841370
 71      -0.000005023553
 72      -0.000022094001
 73       0.000001756775
 74      -0.000005034460
 75       0.000005744804
 76      -0.000038997917
 77       0.000126555715
 78       0.675516572672
 79       0.227386996280
 80      -0.688186233549
 81       0.016136066548
 82       0.005433997661
 83      -0.016435151087
 84      -0.003904078665
 85      -0.001325231283
 86       0.003962365811
 87       0.001447242629
 88       0.000546203905
 89      -0.001415192851
 90      -0.000021140101
 91       0.000007316280
 92      -0.000016900638
 93      -0.000003416725
 94       0.000023973252
 95       0.000007537819
 96      -0.000004527174
 97       0.000001478077
 98       0.000004972466
 99      -0.000009908050
100      -0.000003004067
101       0.000004862856
102       0.000009316050
103      -0.000009911357
104       0.000006438798
 Sym=     1a
 Ene= -5.62786055508518E+01
 Spin= Alpha
 Occup= 1.000000
  1       0.000008800837
  2      -0.000097595221
  3       0.000384878212
  4       0.000020510630
  5       0.000029585546
  6       0.000020162759
  7      -0.000208338805
  8      -0.000147801804
  9      -0.000113333445
 10       0.000008897415
 11       0.000006759318
 12      -0.000005121944
 13       0.000011449184
 14       0.000009868335
 15       0.000000596485
 16       0.000006920389
 17      -0.000113391512
 18      -0.000001038629
 19       0.000004463867
 20       0.000003262600
 21       0.000108918057
 22       0.000039225471
 23       0.000042719410
 24      -0.000004220291
 25      -0.000003132642
 26      -0.000007288338
 27      -0.000004564121
 28       0.000002522004
 29      -0.000003392985
 30       0.000022236073
 31       0.000003243403
 32       0.000017911929
 33       0.000018703878
 34      -0.000010058456
 35      -0.000031524755
 36      -0.000000696095
 37      -0.000002124272
 38      -0.000003347445
 39       0.000013285409
 40       0.000070144296
 41       0.000001437044
 42      -0.000001630352
 43      -0.000006304846
 44      -0.000002813828
 45       0.000064132225
 46      -0.000483318647
 47      -0.000023703495
 48      -0.000028308213
 49      -0.000035777030
 50      -0.000017191951
 51       0.000221260529
 52       0.000094794823
 53      -0.000005171398
 54       0.000007391773
 55       0.000001542895
 56       0.000005944773
 57       0.000000358676
 58       0.000061109664
 59      -0.000015553395
 60      -0.000010944163
 61      -0.000012756857
 62      -0.000016954841
 63       0.000098337205
 64      -0.000081167217
 65      -0.000009403019
 66      -0.000006578582
 67      -0.000015113236
 68      -0.000006791404
 69       0.000383349392
 70      -0.000023774070
 71       0.000052189813
 72       0.000001132145
 73      -0.000004388907
 74       0.000012647926
 75      -0.000013940579
 76       0.000079252187
 77      -0.000242481443
 78      -0.703154229084
 79       0.433692304210
 80      -0.546911373393
 81      -0.016798361116
 82       0.010350466807
 83      -0.013067864555
 84       0.004071772573
 85      -0.002471570479
 86       0.003175412564
 87      -0.001525432398
 88       0.000792166505
 89      -0.001227250717
 90      -0.000015475750
 91      -0.000017203243
 92      -0.000012429584
 93      -0.000017429307
 94      -0.000020681548
 95       0.000003468980
 96       0.000008258012
 97       0.000011226902
 98       0.000000641893
 99       0.000010752882
100       0.000002547909
101      -0.000005616057
102      -0.000014577195
103       0.000009605063
104      -0.000008327341
 Sym=     1a
 Ene= -1.02155720824856E+01
 Spin= Alpha
 Occup= 1.000000
  1       0.134464098304
  2       0.003902700097
  3       0.003563600812
  4       0.001882208409
  5      -0.000685259864
  6       0.001142353799
  7       0.000677690499
  8       0.001291307579
  9      -0.004475897447
 10       0.000136994251
 11      -0.001100269207
 12       0.000331181719
 13      -0.000990222832
 14       0.000438036722
 15       0.025840063753
 16       0.000497537607
 17       0.004502202125
 18       0.000264599474
 19      -0.000103177416
 20       0.000183076654
 21      -0.004846738192
 22       0.000536465161
 23      -0.002400917024
 24       0.000047256585
 25       0.000050918625
 26      -0.000073542302
 27       0.000220225860
 28       0.000049922424
 29      -0.000885650693
 30      -0.000610116830
 31      -0.000191152979
 32       0.000031950371
 33      -0.000290783407
 34       0.000689038903
 35       0.001992425611
 36       0.000027272339
 37      -0.000005609807
 38      -0.000054846068
 39      -0.000986351365
 40      -0.001721250900
 41      -0.000026792924
 42      -0.000070378067
 43       0.000109939766
 44       0.978379881162
 45       0.051565530073
 46      -0.043690465804
 47      -0.000721842845
 48      -0.000784824729
 49      -0.000752242165
 50      -0.002025336598
 51       0.005558488726
 52       0.001988927444
 53       0.000806637102
 54      -0.000218613980
 55      -0.001404775852
 56       0.001427338678
 57       0.000143509763
 58      -0.003084560870
 59       0.007475913161
 60      -0.002388429835
 61      -0.000932529675
 62       0.001376288722
 63      -0.003068681582
 64       0.007845059164
 65       0.000277785806
 66       0.000879193113
 67      -0.002839106772
 68       0.000890313081
 69       0.014627633160
 70      -0.000039927674
 71       0.000044531721
 72       0.000098118075
 73      -0.000011546311
 74       0.000020795560
 75      -0.000200355270
 76       0.002264068245
 77      -0.009072666928
 78       0.000006720849
 79       0.000015979494
 80       0.000005691734
 81      -0.000023910562
 82      -0.000058057428
 83      -0.000021481153
 84       0.000168903704
 85       0.000502029750
 86       0.000236809637
 87      -0.001228583793
 88      -0.004685514227
 89      -0.002525962170
 90       0.000013921576
 91      -0.000017398987
 92      -0.000057368594
 93       0.000047326005
 94      -0.000032807097
 95      -0.000066283911
 96       0.000082384569
 97       0.000276052199
 98      -0.000227866231
 99       0.000154796897
100       0.000217989531
101      -0.000258097395
102      -0.000925220498
103       0.000770446932
104      -0.000479848519
 Sym=     1a
 Ene= -1.02140922010146E+01
 Spin= Alpha
 Occup= 1.000000
  1      -0.755362172125
  2      -0.034722010317
  3       0.028031329279
  4       0.000175798422
  5      -0.000371334977
  6       0.001911620389
  7      -0.002877792761
  8      -0.002440642518
  9       0.005973908261
 10       0.000272467855
 11       0.000021373433
 12       0.000315103660
 13      -0.001435531935
 14      -0.000249095432
 15      -0.626399125146
 16      -0.027568539267
 17       0.004453863529
 18      -0.000069510537
 19       0.000753187436
 20      -0.002163314588
 21       0.000699840692
 22      -0.001367262374
 23       0.004235122350
 24       0.000496132547
 25      -0.000084020974
 26       0.000018143744
 27      -0.001027046578
 28      -0.000171779854
 29       0.003723137449
 30      -0.004035820101
 31      -0.001989043872
 32      -0.000240238993
 33       0.000579270943
 34       0.002738449867
 35      -0.003861120274
 36      -0.001482450811
 37       0.000068306468
 38      -0.000593767147
 39       0.002648950656
 40      -0.003739289015
 41       0.001385390290
 42       0.000306352582
 43      -0.000557431325
 44       0.119658771068
 45       0.007706525052
 46      -0.008273445180
 47       0.001337313357
 48       0.000140878649
 49       0.001122976929
 50       0.001476694169
 51      -0.000547328055
 52      -0.005565266627
 53      -0.000044611568
 54       0.000683952019
 55      -0.000361436018
 56       0.001079912775
 57      -0.000040583820
 58      -0.000193902349
 59       0.003479529540
 60      -0.000645561018
 61       0.000008714939
 62       0.000121724086
 63      -0.001788215126
 64       0.000093452210
 65      -0.000317708748
 66       0.000298418541
 67      -0.000520751344
 68       0.000421330170
 69      -0.007438240352
 70      -0.000171096003
 71       0.000204705238
 72       0.000073257483
 73       0.000008295224
 74      -0.000015143525
 75       0.000143235677
 76      -0.001436837597
 77       0.005038277952
 78       0.000003915415
 79      -0.000023079121
 80      -0.000004692605
 81      -0.000012578144
 82       0.000080690279
 83       0.000017295281
 84       0.000002050794
 85      -0.000496016037
 86      -0.000165924258
 87       0.000525145594
 88       0.002858656155
 89       0.001416853525
 90      -0.000010816119
 91       0.000006504343
 92       0.000040399225
 93      -0.000036639720
 94       0.000017914913
 95       0.000050937206
 96      -0.000033340952
 97      -0.000192791330
 98       0.000173242350
 99      -0.000087033271
100      -0.000149769201
101       0.000121865904
102       0.000593205105
103      -0.000519894471
104       0.000274981437
 Sym=     1a
 Ene= -1.02136782408735E+01
 Spin= Alpha
 Occup= 1.000000
  1      -0.622852341965
  2      -0.033346939576
  3       0.034705570576
  4      -0.000358896603
  5       0.000650164742
  6      -0.001508865371
  7      -0.002735774126
  8      -0.000280146801
  9      -0.000081865587
 10      -0.001559618607
 11      -0.000079614476
 12       0.001557124506
 13      -0.001438938217
 14      -0.000222053319
 15       0.763696453004
 16       0.040195764945
 17      -0.033073255622
 18      -0.000126498977
 19       0.000412335515
 20      -0.001099159691
 21       0.001924811577
 22      -0.000731783865
 23       0.002557566325
 24       0.001351306256
 25       0.000148389965
 26      -0.001556093645
 27       0.001692926257
 28       0.000280882373
 29       0.002718308828
 30      -0.005378578754
 31      -0.001679527989
 32      -0.000534403105
 33       0.001405086247
 34      -0.003824513681
 35       0.005611255395
 36       0.002269276256
 37      -0.000209452387
 38       0.001254639326
 39      -0.003202613470
 40       0.006678903992
 41      -0.002125231436
 42      -0.000626101936
 43       0.001345842563
 44       0.064905947234
 45       0.004939880812
 46      -0.010874563852
 47       0.001436411329
 48       0.000059169291
 49       0.000763263790
 50      -0.003714661729
 51      -0.001404013500
 52      -0.000259280198
 53       0.000089801492
 54       0.000705058076
 55      -0.000384104188
 56       0.001033358003
 57      -0.000090479633
 58      -0.001008839847
 59      -0.000031671035
 60      -0.000548231642
 61       0.000012873784
 62       0.000100624556
 63      -0.000127749494
 64       0.001943745718
 65      -0.000045612757
 66       0.000190962914
 67      -0.000398187952
 68       0.000126240488
 69      -0.003247404539
 70      -0.000163019596
 71       0.000095710481
 72      -0.000183227223
 73       0.000003684931
 74      -0.000006762452
 75       0.000063517152
 76      -0.000617012973
 77       0.002185327212
 78       0.000004448070
 79      -0.000011186320
 80      -0.000001216616
 81      -0.000014765139
 82       0.000039166901
 83       0.000004859120
 84       0.000039954202
 85      -0.000226165906
 86      -0.000062370114
 87       0.000161133257
 88       0.001243931317
 89       0.000604493476
 90      -0.000004162901
 91       0.000001426114
 92       0.000018097566
 93      -0.000017611423
 94       0.000006980046
 95       0.000018227939
 96      -0.000008279837
 97      -0.000084943197
 98       0.000080103169
 99      -0.000033675318
100      -0.000048177925
101       0.000038313255
102       0.000252016707
103      -0.000220534880
104       0.000106080060
 Sym=     1a
 Ene= -8.66698037797024E+00
 Spin= Alpha
 Occup= 1.000000
  1      -0.000034692802
  2       0.000384929353
  3      -0.000454975267
  4      -0.000040039254
  5      -0.000079224901
  6      -0.000036728396
  7      -0.000263629209
  8       0.000358780336
  9      -0.000645215962
 10       0.000009214629
 11      -0.000008656579
 12      -0.000001924896
 13       0.000007802077
 14       0.000027715297
 15      -0.000008022274
 16       0.000030674385
 17       0.000837275943
 18       0.000001487226
 19      -0.000015552667
 20      -0.000011682926
 21      -0.000059511861
 22       0.000134969065
 23      -0.000450274956
 24       0.000006384531
 25       0.000002340843
 26       0.000004054056
 27       0.000023038228
 28       0.000004438596
 29       0.000041750047
 30       0.000031395676
 31       0.000009321680
 32      -0.000022457286
 33       0.000000792182
 34      -0.000003998522
 35       0.000051599864
 36      -0.000007353489
 37      -0.000007218140
 38       0.000011269150
 39       0.000003076690
 40      -0.000029184852
 41       0.000003255172
 42      -0.000004137856
 43       0.000011825588
 44      -0.000042681492
 45       0.000761895915
 46      -0.003493693278
 47       0.000042939149
 48      -0.000082950603
 49      -0.000018058087
 50      -0.000329922031
 51       0.001197138498
 52       0.000590959642
 53       0.000013194650
 54      -0.000013459294
 55      -0.000053960341
 56       0.000042018397
 57      -0.000011100276
 58       0.000104156085
 59       0.000257938547
 60       0.000024143031
 61      -0.000015144000
 62       0.000010014405
 63       0.000189375953
 64       0.000341042816
 65       0.000032811796
 66       0.000002472960
 67       0.000014926928
 68      -0.001021931463
 69       0.006304296916
 70       0.000140059312
 71       0.000752664346
 72       0.000404161620
 73       0.136659839324
 74      -0.516877744572
 75       1.093411315902
 76       0.032278885046
 77      -0.014170503915
 78      -0.000344794992
 79      -0.001478199169
 80      -0.000803707091
 81       0.000810311555
 82       0.003482011735
 83       0.001892123419
 84       0.000302304124
 85       0.001196544721
 86       0.000662578815
 87      -0.000633354935
 88      -0.002514722048
 89      -0.001393540373
 90      -0.000180827319
 91       0.000164407857
 92       0.000722199854
 93      -0.000629206735
 94       0.000304531325
 95      -0.000144430351
 96       0.000143876470
 97       0.000591662751
 98      -0.000507579698
 99       0.000255129558
100       0.000024911720
101      -0.000033288595
102      -0.000113073391
103       0.000091867277
104      -0.000053338039
 Sym=     1a
 Ene= -6.49974008260853E+00
 Spin= Alpha
 Occup= 1.000000
  1      -0.000017833154
  2       0.000226479580
  3      -0.000318380910
  4      -0.000024387520
  5      -0.000045390626
  6      -0.000021224762
  7      -0.000093728634
  8       0.000209512085
  9      -0.000325304113
 10       0.000004461171
 11      -0.000005457293
 12      -0.000001863157
 13       0.000003789578
 14       0.000014038384
 15      -0.000004568450