[Molden Format]
[Title]
 Molden file created by orca_2mkl for BaseName=radical_020

[Atoms] AU
C    1   6          1.1780496027         0.8663827406         0.3332494243 
C    2   6          1.3174376921         0.0817684498         2.8152724203 
H    3   1          2.9473397107         1.3034461598        -0.6532518683 
H    4   1          3.1220656787        -0.0249557233         3.8108217217 
H    5   1         -0.3913471645        -0.4247027205         3.8651475686 
C    6   6         -1.0775577464         1.1161346157        -1.0277653525 
H    7   1         -2.9004121416         0.7911640816        -0.1077106102 
H    8   1         -1.1071943213         2.0003866066        -2.8916872760 
H    9   1         -1.2769503097        -1.8061133114        -2.5022562938 
Br  10  35         -1.8286785312        -4.2390620095        -3.8038221761 
[GTO]
  1 0
s   5 1.0 
     1238.4016938000         0.8208956682
      186.2900499200         1.4766449896
       42.2511763460         2.1526124058
       11.6765579320         2.1081722461
        3.5930506482         0.8290999933
s   1 1.0 
        0.4024514736         0.3601183351
s   1 1.0 
        0.1309018267         0.1551027052
p   3 1.0 
        9.4680970621         1.3467645142
        2.0103545142         1.0678070931
        0.5477100471         0.5108735714
p   1 1.0 
        0.1526861379         0.1360471976
d   1 1.0 
        0.8000000000         1.9292013661

  2 0
s   5 1.0 
     1238.4016938000         0.8208956682
      186.2900499200         1.4766449896
       42.2511763460         2.1526124058
       11.6765579320         2.1081722461
        3.5930506482         0.8290999933
s   1 1.0 
        0.4024514736         0.3601183351
s   1 1.0 
        0.1309018267         0.1551027052
p   3 1.0 
        9.4680970621         1.3467645142
        2.0103545142         1.0678070931
        0.5477100471         0.5108735714
p   1 1.0 
        0.1526861379         0.1360471976
d   1 1.0 
        0.8000000000         1.9292013661

  3 0
s   3 1.0 
       13.0107010000         0.1634903809
        1.9622572000         0.2773515510
        0.4445379600         0.3157501452
s   1 1.0 
        0.1219496200         0.1470772262
p   1 1.0 
        0.8000000000         1.0784563492

  4 0
s   3 1.0 
       13.0107010000         0.1634903809
        1.9622572000         0.2773515510
        0.4445379600         0.3157501452
s   1 1.0 
        0.1219496200         0.1470772262
p   1 1.0 
        0.8000000000         1.0784563492

  5 0
s   3 1.0 
       13.0107010000         0.1634903809
        1.9622572000         0.2773515510
        0.4445379600         0.3157501452
s   1 1.0 
        0.1219496200         0.1470772262
p   1 1.0 
        0.8000000000         1.0784563492

  6 0
s   5 1.0 
     1238.4016938000         0.8208956682
      186.2900499200         1.4766449896
       42.2511763460         2.1526124058
       11.6765579320         2.1081722461
        3.5930506482         0.8290999933
s   1 1.0 
        0.4024514736         0.3601183351
s   1 1.0 
        0.1309018267         0.1551027052
p   3 1.0 
        9.4680970621         1.3467645142
        2.0103545142         1.0678070931
        0.5477100471         0.5108735714
p   1 1.0 
        0.1526861379         0.1360471976
d   1 1.0 
        0.8000000000         1.9292013661

  7 0
s   3 1.0 
       13.0107010000         0.1634903809
        1.9622572000         0.2773515510
        0.4445379600         0.3157501452
s   1 1.0 
        0.1219496200         0.1470772262
p   1 1.0 
        0.8000000000         1.0784563492

  8 0
s   3 1.0 
       13.0107010000         0.1634903809
        1.9622572000         0.2773515510
        0.4445379600         0.3157501452
s   1 1.0 
        0.1219496200         0.1470772262
p   1 1.0 
        0.8000000000         1.0784563492

  9 0
s   3 1.0 
       13.0107010000         0.1634903809
        1.9622572000         0.2773515510
        0.4445379600         0.3157501452
s   1 1.0 
        0.1219496200         0.1470772262
p   1 1.0 
        0.8000000000         1.0784563492

 10 0
s   6 1.0 
   113286.3877600000         7.5076141183
    17009.6263030000        13.8835270484
     3870.1842567000        22.7307285566
     1093.0357227000        30.8227297499
      356.3972179700        27.2481937511
      123.1253964300         9.6953381145
s   3 1.0 
      236.7408400700        -4.7631125758
       28.4686610700         5.6113863182
       11.8834437220         1.9900291396
s   3 1.0 
       21.2696333120        -1.5429794477
        3.6129226841         1.3310800628
        1.6626648969         0.4300130345
s   1 1.0 
        0.3482379323         0.3230852630
s   1 1.0 
        0.1301903139         0.1544699827
p   5 1.0 
     1560.2801881000       115.0180051576
      368.4785920500       143.9035925417
      117.2297884900       137.5255986684
       42.6489092480        78.9578527439
       16.0872250960        15.8580577654
p   3 1.0 
        8.6352810058         6.8437546680
        3.5613665502         3.7974971038
        1.5292626609         0.5585414278
p   1 1.0 
        0.5306429485         0.6455696201
p   1 1.0 
        0.1570275896         0.1408996918
d   4 1.0 
      104.8551864200       261.4493931636
       30.2811436880       176.6993802449
       10.6513942670        76.9545600188
        3.8699456233        17.5937671387
d   1 1.0 
        1.3240876762         4.6593398042
d   1 1.0 
        0.3890000000         0.5462379705

[5D]
[7F]
[9G]
[MO]
 Sym=     1a
 Ene= -4.82759556021404E+02
 Spin= Alpha
 Occup= 1.000000
  1       0.000005500906
  2      -0.000073376963
  3       0.000107722016
  4       0.000006903479
  5       0.000016141300
  6       0.000005859120
  7       0.000040698242
  8      -0.000063873506
  9       0.000142627046
 10      -0.000002086128
 11       0.000002718197
 12      -0.000000429593
 13      -0.000000079211
 14      -0.000006936589
 15       0.000001275862
 16      -0.000006089439
 17      -0.000181714185
 18      -0.000000555884
 19       0.000002560950
 20       0.000002095928
 21       0.000015565834
 22      -0.000027392172
 23       0.000095968306
 24      -0.000001207337
 25      -0.000000582854
 26      -0.000000683088
 27      -0.000005253453
 28      -0.000001446367
 29      -0.000005977208
 30      -0.000002112708
 31      -0.000002003429
 32       0.000003860277
 33      -0.000000658681
 34       0.000000729424
 35      -0.000010840398
 36       0.000001596237
 37       0.000001650479
 38      -0.000002774388
 39       0.000000513553
 40       0.000006378030
 41      -0.000000648887
 42       0.000000884688
 43      -0.000002594736
 44       0.000006802791
 45      -0.000152792384
 46       0.000716398745
 47      -0.000008582664
 48       0.000013001762
 49       0.000002793269
 50       0.000065806564
 51      -0.000257320839
 52      -0.000141469742
 53      -0.000005000990
 54       0.000003298301
 55       0.000019573340
 56      -0.000017407068
 57       0.000003279043
 58      -0.000020000196
 59      -0.000034264208
 60      -0.000001730124
 61       0.000005540941
 62      -0.000002086701
 63      -0.000041582084
 64      -0.000056788656
 65      -0.000006995674
 66       0.000000523758
 67       0.000001044682
 68       0.000103691224
 69      -0.001145095501
 70      -0.000021433146
 71      -0.000133118353
 72      -0.000069923279
 73      -0.994981992759
 74      -0.015688843357
 75       0.003922277527
 76      -0.002345444731
 77       0.001805462932
 78      -0.000003010245
 79      -0.000012001255
 80      -0.000006415827
 81       0.000009755427
 82       0.000038339660
 83       0.000020542342
 84      -0.000038480578
 85      -0.000151001039
 86      -0.000080921671
 87       0.000106484358
 88       0.000437383261
 89       0.000234289660
 90      -0.000001903932
 91       0.000001849899
 92       0.000007355089
 93      -0.000006411899
 94       0.000003485646
 95       0.000006199277
 96      -0.000006042767
 97      -0.000023930731
 98       0.000020854990
 99      -0.000011429241
100      -0.000008880723
101       0.000008886118
102       0.000034343165
103      -0.000029807150
104       0.000016940088
 Sym=     1a
 Ene= -6.24426983672454E+01
 Spin= Alpha
 Occup= 1.000000
  1      -0.000012997605
  2       0.000175434154
  3      -0.000245598305
  4      -0.000016529005
  5      -0.000038093284
  6      -0.000014051008
  7      -0.000103334369
  8       0.000153309635
  9      -0.000341256078
 10       0.000005088480
 11      -0.000006207242
 12       0.000000565292
 13       0.000000755737
 14       0.000016254778
 15      -0.000003022893
 16       0.000014979247
 17       0.000430416430
 18       0.000001177331
 19      -0.000006118377
 20      -0.000005055223
 21      -0.000034441767
 22       0.000065215732
 23      -0.000227612371
 24       0.000002795666
 25       0.000001364183
 26       0.000001608514
 27       0.000012305907
 28       0.000003318922
 29       0.000014646581
 30       0.000005284271
 31       0.000004890384
 32      -0.000009019481
 33       0.000001737387
 34      -0.000002006116
 35       0.000025224256
 36      -0.000003744991
 37      -0.000003844529
 38       0.000006416204
 39      -0.000000566080
 40      -0.000014569659
 41       0.000001521259
 42      -0.000002016378
 43       0.000006050361
 44      -0.000015933374
 45       0.000366078564
 46      -0.001746135392
 47       0.000020691013
 48      -0.000029720103
 49      -0.000006153059
 50      -0.000160435683
 51       0.000622045509
 52       0.000339500690
 53       0.000011841258
 54      -0.000007845888
 55      -0.000046406134
 56       0.000041275050
 57      -0.000007562755
 58       0.000047074107
 59       0.000087332486
 60       0.000004947385
 61      -0.000012584827
 62       0.000004961958
 63       0.000099247637
 64       0.000139660626
 65       0.000016911571
 66      -0.000000937835
 67      -0.000001485981
 68      -0.000275599883
 69       0.002808482265
 70       0.000055031851
 71       0.000335363218
 72       0.000176308529
 73       0.347186723771
 74      -1.046958243552
 75      -0.018587596265
 76       0.006340130475
 77      -0.004576960607
 78      -0.000071157425
 79      -0.000339241434
 80      -0.000177105035
 81      -0.000032311271
 82      -0.000132892020
 83      -0.000070912778
 84       0.000097224637
 85       0.000385590063
 86       0.000206678069
 87      -0.000260342097
 88      -0.001072143475
 89      -0.000574417604
 90       0.000012694611
 91      -0.000010160889
 92      -0.000047067319
 93       0.000042393090
 94      -0.000019488206
 95      -0.000016810904
 96       0.000015794301
 97       0.000064111834
 98      -0.000056275121
 99       0.000029370613
100       0.000020213697
101      -0.000020408780
102      -0.000078025313
103       0.000067631076
104      -0.000038171552
 Sym=     1a
 Ene= -5.62745391845561E+01
 Spin= Alpha
 Occup= 1.000000
  1      -0.000013735747
  2       0.000187521663
  3      -0.000195060352
  4      -0.000016536469
  5      -0.000042801522
  6      -0.000014309970
  7      -0.000128290469
  8       0.000174845572
  9      -0.000390406052
 10       0.000006286795
 11      -0.000007095363
 12       0.000001590610
 13      -0.000000593046
 14       0.000018593274
 15      -0.000003779380
 16       0.000023087793
 17       0.000450789783
 18       0.000001248670
 19      -0.000007378479
 20      -0.000006550201
 21      -0.000035251139
 22       0.000071878126
 23      -0.000241808680
 24       0.000002973136
 25       0.000000841322
 26       0.000001849898
 27       0.000013384017
 28       0.000003436240
 29       0.000014956106
 30      -0.000006297775
 31       0.000005906948
 32      -0.000009593342
 33       0.000002664899
 34      -0.000001640503
 35       0.000030798128
 36      -0.000004085809
 37      -0.000004294305
 38       0.000005834660
 39       0.000001523737
 40      -0.000015670197
 41       0.000000852665
 42      -0.000002353371
 43       0.000006265046
 44      -0.000009755217
 45       0.000372569273
 46      -0.001951722305
 47       0.000028352278
 48      -0.000002753987
 49       0.000009297053
 50      -0.000235557343
 51       0.000691496211
 52       0.000370379017
 53       0.000020721210
 54      -0.000011151368
 55      -0.000079957896
 56       0.000075542910
 57      -0.000008830103
 58       0.000036452171
 59       0.000070869843
 60       0.000004502760
 61      -0.000020747913
 62       0.000007510427
 63       0.000103838225
 64       0.000152326124
 65       0.000024762186
 66      -0.000006467714
 67      -0.000003784712
 68      -0.000501503926
 69       0.003237558855
 70       0.000160243883
 71       0.000805761975
 72       0.000427272534
 73      -0.000169656230
 74       0.000505141442
 75      -0.000259997719
 76       0.001028042427
 77      -0.002183060762
 78      -0.161619076002
 79      -0.868325680764
 80      -0.448749019510
 81      -0.003907900910
 82      -0.020940370052
 83      -0.010825386295
 84       0.001076535800
 85       0.005598606359
 86       0.002904341277
 87      -0.000626075821
 88      -0.003007444995
 89      -0.001576194245
 90       0.000012225009
 91      -0.000010101039
 92      -0.000045267176
 93       0.000040787646
 94      -0.000018967985
 95      -0.000010589650
 96       0.000010487198
 97       0.000039526790
 98      -0.000034512566
 99       0.000019199100
100      -0.000020020327
101       0.000014867787
102       0.000078506865
103      -0.000071008162
104       0.000027927283
 Sym=     1a
 Ene= -5.62722977302023E+01
 Spin= Alpha
 Occup= 1.000000
  1      -0.000000782597
  2       0.000011206243
  3      -0.000134198144
  4      -0.000003219155
  5      -0.000009701994
  6       0.000005390387
  7       0.000073175459
  8       0.000135612062
  9      -0.000169669865
 10      -0.000000605084
 11       0.000000820240
 12       0.000000349337
 13      -0.000004351740
 14      -0.000006268882
 15      -0.000000641671
 16       0.000010068416
 17       0.000229724447
 18      -0.000008164392
 19       0.000010578081
 20      -0.000003656131
 21       0.000035915948
 22      -0.000024666790
 23      -0.000064551899
 24       0.000000479394
 25       0.000003142034
 26       0.000003404043
 27       0.000002514401
 28      -0.000001215592
 29      -0.000016664036
 30      -0.000065656822
 31       0.000003329389
 32      -0.000008032597
 33      -0.000001722000
 34      -0.000015747855
 35      -0.000041746448
 36       0.000002155160
 37       0.000004798728
 38       0.000006928513
 39       0.000004345143
 40      -0.000030357760
 41       0.000000822461
 42       0.000004418096
 43       0.000007073933
 44       0.000004187273
 45      -0.000068183316
 46       0.000207509099
 47       0.000018718620
 48       0.000027705628
 49      -0.000012981473
 50      -0.000123760881
 51      -0.000206888913
 52       0.000093751969
 53      -0.000009196052
 54      -0.000006230974
 55       0.000005635282
 56       0.000001140998
 57       0.000004017658
 58      -0.000134961026
 59       0.000094059284
 60       0.000011825805
 61       0.000004569956
 62      -0.000015777710
 63       0.000068701269
 64      -0.000061318380
 65       0.000015543535
 66       0.000019971176
 67      -0.000001867449
 68       0.000000727981
 69      -0.000294984725
 70       0.000016129678
 71      -0.000010307488
 72      -0.000019734615
 73       0.000002380882
 74      -0.000006825666
 75       0.000007773388
 76      -0.000053920090
 77       0.000180477586
 78       0.682587673475
 79       0.225330243567
 80      -0.681855724043
 81       0.016306263737
 82       0.005386236941
 83      -0.016284241651
 84      -0.003949538217
 85      -0.001319008821
 86       0.003926157371
 87       0.001475295419
 88       0.000572342120
 89      -0.001392708020
 90      -0.000019563854
 91       0.000007303861
 92      -0.000015669531
 93      -0.000003912735
 94       0.000023313640
 95       0.000008856802
 96      -0.000005560543
 97       0.000000971609
 98       0.000006512298
 99      -0.000012244421
100      -0.000007364233
101       0.000007482056
102       0.000010493056
103      -0.000013915312
104       0.000012577174
 Sym=     1a
 Ene= -5.62722782106269E+01
 Spin= Alpha
 Occup= 1.000000
  1       0.000010545318
  2      -0.000113699617
  3       0.000357875821
  4       0.000023049212
  5       0.000035080475
  6       0.000024352700
  7      -0.000166169717
  8      -0.000168790932
  9      -0.000100450767
 10       0.000009597420
 11       0.000005796684
 12      -0.000005548572
 13       0.000010747044
 14       0.000010031292
 15       0.000000519400
 16       0.000010687228
 17      -0.000133623492
 18      -0.000002282584
 19       0.000005782149
 20       0.000002427535
 21       0.000114087616
 22       0.000040097907
 23       0.000062397811
 24      -0.000005043288
 25      -0.000002574123
 26      -0.000007848661
 27      -0.000005858735
 28       0.000002051153
 29      -0.000008223152
 30       0.000011607185
 31       0.000002955119
 32       0.000021206184
 33       0.000018615120
 34      -0.000011679154
 35      -0.000037774996
 36       0.000000249388
 37      -0.000002082130
 38      -0.000003628101
 39       0.000014680637
 40       0.000069279101
 41       0.000001169334
 42      -0.000001605089
 43      -0.000007134495
 44      -0.000001292682
 45       0.000052256743
 46      -0.000447605041
 47      -0.000027650933
 48      -0.000022072351
 49      -0.000038825011
 50       0.000026895197
 51       0.000212244790
 52       0.000158751171
 53      -0.000006236165
 54       0.000007732359
 55      -0.000000963759
 56       0.000011276636
 57      -0.000000286527
 58       0.000055145690
 59      -0.000022000484
 60      -0.000015552412
 61      -0.000009466329
 62      -0.000021911271
 63       0.000106147815
 64      -0.000066483826
 65      -0.000013791430
 66      -0.000005671499
 67      -0.000013552713
 68       0.000003678811
 69       0.000411655361
 70      -0.000018146789
 71       0.000050924533
 72       0.000006209745
 73      -0.000003899084
 74       0.000011191847
 75      -0.000013393289
 76       0.000076745003
 77      -0.000243188123
 78      -0.699695288081
 79       0.420426379209
 80      -0.561510686070
 81      -0.016716616175
 82       0.010034514777
 83      -0.013416853928
 84       0.004054559653
 85      -0.002398454812
 86       0.003260145127
 87      -0.001523814791
 88       0.000767244738
 89      -0.001260130001
 90      -0.000014670389
 91      -0.000015845453
 92      -0.000012622155
 93      -0.000015984102
 94      -0.000020034176
 95       0.000004344284
 96       0.000008949695
 97       0.000011110787
 98       0.000002084928
 99       0.000011893612
100       0.000000166200
101      -0.000008452070
102      -0.000015021070
103       0.000005862128
104      -0.000011776721
 Sym=     1a
 Ene= -1.02188538185026E+01
 Spin= Alpha
 Occup= 1.000000
  1       0.106550535700
  2       0.002828670900
  3       0.003829823077
  4       0.001835938623
  5      -0.000650727767
  6       0.001167520726
  7       0.000667966941
  8       0.001362578992
  9      -0.004861159473
 10       0.000109751849
 11      -0.001147992031
 12       0.000319022462
 13      -0.001057494807
 14       0.000380409107
 15       0.019564344098
 16       0.000301633236
 17       0.005042864469
 18       0.000263465411
 19      -0.000071669146
 20       0.000113248713
 21      -0.004893686639
 22       0.000479798898
 23      -0.002715982644
 24       0.000086026989
 25       0.000051985148
 26      -0.000090761929
 27       0.000227968755
 28       0.000061313094
 29      -0.000768545349
 30      -0.000813651517
 31      -0.000244036650
 32       0.000008939675
 33      -0.000254476129
 34       0.000710333973
 35       0.001992781018
 36       0.000012727411
 37      -0.000014353150
 38      -0.000040306144
 39      -0.000971232350
 40      -0.001763918184
 41      -0.000017034658
 42      -0.000069117978
 43       0.000117029886
 44       0.981897327744
 45       0.052321552353
 46      -0.046467192146
 47      -0.000674801923
 48      -0.000667467343
 49      -0.000688686797
 50      -0.002086371681
 51       0.006297420508
 52       0.002473307333
 53       0.000772754555
 54      -0.000222404860
 55      -0.001485271209
 56       0.001432436999
 57       0.000112242474
 58      -0.003035826207
 59       0.007476074017
 60      -0.002430132502
 61      -0.000838746031
 62       0.001433114345
 63      -0.003004355377
 64       0.007917170922
 65       0.000260268157
 66       0.001054413543
 67      -0.002819396377
 68       0.001027146439
 69       0.017490130949
 70      -0.000035724052
 71      -0.000476552318
 72      -0.000111259872
 73      -0.000008335905
 74       0.000013839604
 75      -0.000148660261
 76       0.002237657140
 77      -0.009958895236
 78       0.000002358843
 79       0.000002760003
 80      -0.000003569128
 81      -0.000009057127
 82      -0.000012611413
 83       0.000010333749
 84       0.000123261034
 85       0.000365360684
 86       0.000128399417
 87      -0.001280774933
 88      -0.005136249412
 89      -0.002643256236
 90       0.000016097484
 91      -0.000017026817
 92      -0.000053396152
 93       0.000046321541
 94      -0.000033892124
 95      -0.000079470372
 96       0.000083806943
 97       0.000270606396
 98      -0.000234385147
 99       0.000165582878
100       0.000282378542
101      -0.000285229583
102      -0.001021319416
103       0.000888481007
104      -0.000553007446
 Sym=     1a
 Ene= -1.02170230709216E+01
 Spin= Alpha
 Occup= 1.000000
  1      -0.787825246514
  2      -0.036420941230
  3       0.029784605283
  4       0.000111262454
  5      -0.000271793265
  6       0.001818185451
  7      -0.003114122291
  8      -0.002442078577
  9       0.006227068986
 10       0.000154415963
 11       0.000046493371
 12       0.000369344643
 13      -0.001457213088
 14      -0.000328795935
 15      -0.589303671949
 16      -0.025551536447
 17       0.002431276204
 18      -0.000075526247
 19       0.000724784665
 20      -0.002240353036
 21       0.000983118068
 22      -0.001343369585
 23       0.004554685902
 24       0.000527496536
 25      -0.000093842047
 26      -0.000040369585
 27      -0.000940649510
 28      -0.000197816929
 29       0.003874413768
 30      -0.004249342891
 31      -0.002055739148
 32      -0.000289956556
 33       0.000644005276
 34       0.002511927305
 35      -0.003655661130
 36      -0.001361799699
 37       0.000017330730
 38      -0.000539516606
 39       0.002519189095
 40      -0.003320804053
 41       0.001281594112
 42       0.000284657253
 43      -0.000483772391
 44       0.096565905585
 45       0.006291183559
 46      -0.006465779540
 47       0.001388515502
 48       0.000259733547
 49       0.001199390278
 50       0.001363298785
 51      -0.001346672328
 52      -0.005929248655
 53      -0.000084355039
 54       0.000751196908
 55      -0.000316259334
 56       0.001068196631
 57      -0.000004812876
 58      -0.000167881483
 59       0.003250578589
 60      -0.000596304605
 61       0.000037909605
 62       0.000084299821
 63      -0.001720527479
 64      -0.000055807152
 65      -0.000338075468
 66       0.000323313543
 67      -0.000423316999
 68       0.000324503296
 69      -0.009188488193
 70      -0.000255595426
 71       0.000059170470
 72      -0.000017842400
 73       0.000009012671
 74      -0.000016451368
 75       0.000155639147
 76      -0.001575027954
 77       0.005767552908
 78       0.000005423644
 79      -0.000025762871
 80      -0.000004090468
 81      -0.000017624763
 82       0.000090242263
 83       0.000015450249
 84       0.000022872345
 85      -0.000543225929
 86      -0.000160213311
 87       0.000540495903
 88       0.003265203004
 89       0.001552959602
 90      -0.000012930823
 91       0.000005175865
 92       0.000043654654
 93      -0.000041697075
 94       0.000018584166
 95       0.000060052870
 96      -0.000026971746
 97      -0.000205542706
 98       0.000194452349
 99      -0.000089240375
100      -0.000172996206
101       0.000106558069
102       0.000623412637
103      -0.000572661731
104       0.000279124008
 Sym=     1a
 Ene= -1.02165696596171E+01
 Spin= Alpha
 Occup= 1.000000
  1      -0.586988050437
  2      -0.031753872773
  3       0.033278320060
  4      -0.000387608949
  5       0.000666815506
  6      -0.001663844039
  7      -0.002593546612
  8      -0.000247633473
  9      -0.000175040525
 10      -0.001615541810
 11      -0.000054229113
 12       0.001458868920
 13      -0.001374723207
 14      -0.000284232589
 15       0.792854039627
 16       0.041524464219
 17      -0.033504634826
 18      -0.000127314250
 19       0.000379804665
 20      -0.001031441575
 21       0.001975847415
 22      -0.000629498534
 23       0.002480443715
 24       0.001379823124
 25       0.000172075339
 26      -0.001479933222
 27       0.001768510430
 28       0.000369702967
 29       0.002569806790
 30      -0.005152673510
 31      -0.001586633053
 32      -0.000527964249
 33       0.001384033630
 34      -0.003975827100
 35       0.005752899047
 36       0.002335055802
 37      -0.000139680068
 38       0.001318084650
 39      -0.003315452287
 40       0.006884769970
 41      -0.002195458951
 42      -0.000649991378
 43       0.001368239614
 44       0.047405628545
 45       0.003810154943
 46      -0.009272042584
 47       0.001356344557
 48       0.000124396096
 49       0.000732598101
 50      -0.003643819249
 51      -0.001745417806
 52      -0.000155942593
 53       0.000095914403
 54       0.000698155240
 55      -0.000306288198
 56       0.000954584584
 57      -0.000065700916
 58      -0.000948918899
 59      -0.000287542791
 60      -0.000474752116
 61       0.000050627206
 62       0.000080985453
 63      -0.000012836809
 64       0.001772240632
 65      -0.000042155586
 66       0.000171659818
 67      -0.000328535835
 68       0.000055576370
 69      -0.003502751398
 70      -0.000181819473
 71       0.000047331564
 72      -0.000266776609
 73       0.000003226593
 74      -0.000005902820
 75       0.000055677621
 76      -0.000566875138
 77       0.002163725499
 78       0.000005026847
 79      -0.000010363132
 80       0.000000423619
 81      -0.000016774664
 82       0.000036330898
 83      -0.000000768167
 84       0.000051912016
 85      -0.000207104758
 86      -0.000033296664
 87       0.000130946682
 88       0.001234083187
 89       0.000549696250
 90      -0.000004650518
 91      -0.000000158651
 92       0.000015657763
 93      -0.000017501379
 94       0.000006013525
 95       0.000020126635
 96      -0.000000836051
 97      -0.000073013804
 98       0.000078694638
 99      -0.000028751958
100      -0.000052790143
101       0.000019157382
102       0.000220728331
103      -0.000215309594
104       0.000091929169
 Sym=     1a
 Ene= -8.66070336663623E+00
 Spin= Alpha
 Occup= 1.000000
  1      -0.000031166220
  2       0.000371769558
  3      -0.000413888959
  4      -0.000034791831
  5      -0.000069265241
  6      -0.000029815130
  7      -0.000266393530
  8       0.000333115885
  9      -0.000654038579
 10       0.000011327361
 11      -0.000010279729
 12      -0.000007799981
 13       0.000009359338
 14       0.000026256211
 15      -0.000008193534
 16       0.000037951004
 17       0.000810396498
 18      -0.000000521890
 19      -0.000013282825
 20      -0.000011358347
 21      -0.000030151422
 22       0.000122576345
 23      -0.000431005079
 24       0.000004016343
 25       0.000003277740
 26       0.000004070162
 27       0.000022595437
 28       0.000004385234
 29       0.000040360738
 30       0.000021245155
 31       0.000009995235
 32      -0.000016504318
 33       0.000002791342
 34      -0.000009194690
 35       0.000038451072
 36      -0.000005861888
 37      -0.000006618476
 38       0.000011186623
 39       0.000008638136
 40      -0.000020574097
 41       0.000002317080
 42      -0.000002142958
 43       0.000009727688
 44      -0.000034055119
 45       0.000755651270
 46      -0.004010676292
 47       0.000043617881
 48      -0.000043917408
 49      -0.000007139428
 50      -0.000338895367
 51       0.001380475939
 52       0.000725586437
 53       0.000021406944
 54      -0.000015481380
 55      -0.000081042174
 56       0.000071697010
 57      -0.000009750006
 58       0.000077932025
 59       0.000250949192
 60       0.000019312969
 61      -0.000008114294
 62       0.000014032718
 63       0.000188331934
 64       0.000324328950
 65       0.000035832453
 66       0.000013486189
 67       0.000013063871
 68      -0.000906465008
 69       0.007128594860
 70       0.000127465199
 71       0.000750535107
 72       0.000395748080
 73       0.136659930831
 74      -0.516878045063
 75       1.093410280207
 76       0.032361455986
 77      -0.014553673257
 78      -0.000298916634
 79      -0.001378615600
 80      -0.000723399332
 81       0.000701273066
 82       0.003244101086
 83       0.001701217847
 84       0.000283137971
 85       0.001182560465
 86       0.000632281378
 87      -0.000658786474
 88      -0.002758272012
 89      -0.001477809937
 90      -0.000195595513
 91       0.000146560313
 92       0.000701070587
 93      -0.000638484513
 94       0.000281346054
 95      -0.000161922701
 96       0.000133640427
 97       0.000587925304
 98      -0.000527471591
 99       0.000244980933
100       0.000046889306
101      -0.000048578301
102      -0.000179165384
103       0.000154305065
104      -0.000083588312
 Sym=     1a
 Ene= -6.49345636366953E+00
 Spin= Alpha
 Occup= 1.000000
  1       0.000015471510
  2      -0.000214667703
  3       0.000317995651
  4       0.000020349113
  5       0.000038863266
  6       0.000016003606
  7       0.000071978046
  8      -0.000197154381
  9       0.000307699876
 10      -0.000005101725
 11       0.000007018787
 12       0.000005280026
 13      -0.000003706658
 14      -0.000011934310
 15       0.000004807436