
                                 *****************
                                 * O   R   C   A *
                                 *****************

                                            #,                                       
                                            ###                                      
                                            ####                                     
                                            #####                                    
                                            ######                                   
                                           ########,                                 
                                     ,,################,,,,,                         
                               ,,#################################,,                 
                          ,,##########################################,,             
                       ,#########################################, ''#####,          
                    ,#############################################,,   '####,        
                  ,##################################################,,,,####,       
                ,###########''''           ''''###############################       
              ,#####''   ,,,,##########,,,,          '''####'''          '####       
            ,##' ,,,,###########################,,,                        '##       
           ' ,,###''''                  '''############,,,                           
         ,,##''                                '''############,,,,        ,,,,,,###''
      ,#''                                            '''#######################'''  
     '                                                          ''''####''''         
             ,#######,   #######,   ,#######,      ##                                
            ,#'     '#,  ##    ##  ,#'     '#,    #''#        ,####,    ,#,          
            ##       ##  ##   ,#'  ##            #'  '#       #'       ,# #          
            ##       ##  #######   ##           ,######,      #####,      #          
            '#,     ,#'  ##    ##  '#,     ,#' ,#      #,     #,   #      #          
             '#######'   ##     ##  '#######'  #'      '#     '####' #    #          



                #########################################################
                #                        -***-                          #
                #          Department of theory and spectroscopy        #
                #                                                       #
                #                      Frank Neese                      #
                #                                                       #
                #     Directorship, Architecture, Infrastructure        #
                #                    SHARK, DRIVERS                     #
                #        Core code/Algorithms in most modules           #
                #                                                       #
                #        Max Planck Institute fuer Kohlenforschung      #
                #                Kaiser Wilhelm Platz 1                 #
                #                 D-45470 Muelheim/Ruhr                 #
                #                      Germany                          #
                #                                                       #
                #                  All rights reserved                  #
                #                        -***-                          #
                #########################################################


                         Program Version 6.1.0  -  RELEASE   -
                                (GIT: $679e74b$)
                          ($2025-06-10 18:02:51 +0200$)


 With contributions from (in alphabetic order):
[Max-Planck-Institut fuer Kohlenforschung]                               
  Daniel Aravena         : Magnetic Suceptibility                        
  Michael Atanasov       : Ab Initio Ligand Field Theory (pilot matlab implementation)
  Alexander A. Auer      : GIAO ZORA, VPT2 properties, NMR spectrum      
  Ute Becker             : All parallelization in ORCA, NUMFREQ, NUMCALC 
  Giovanni Bistoni       : ED, misc. LED, open-shell LED, HFLD           
  Dmytro Bykov           : pre 5.0 version of the SCF Hessian            
  Marcos Casanova-Páez   : Triplet and SCS-CIS(D). UHF-(DLPNO)-IP/EA/STEOM-CCSD. UHF-CVS-IP/STEOM-CCSD   
  Vijay G. Chilkuri      : MRCI spin determinant printing, contributions to CSF-ICE 
  Pauline Colinet        : FMM embedding                                 
  Dipayan Datta          : RHF DLPNO-CCSD density                        
  Achintya Kumar Dutta   : EOM-CC, STEOM-CC                              
  Nicolas Foglia         : Exact transition moments, OPA infrastructure, MCD improvements    
  Dmitry Ganyushin       : Spin-Orbit,Spin-Spin,Magnetic field MRCI      
  Miquel Garcia-Rates    : C-PCM and meta-GGA Hessian, CCSD/C-PCM, Gaussian charge scheme 
  Tiago L. C. Gouveia    : GS-ROHF, GS-ROCIS                             
  Yang Guo               : DLPNO-NEVPT2, F12-NEVPT2, CIM, IAO-localization        
  Andreas Hansen         : Spin unrestricted coupled pair/coupled cluster methods 
  Ingolf Harden          : AUTO-CI MPn and infrastructure                
  Benjamin Helmich-Paris : MC-RPA, TRAH-(SCF,CASSCF), AVAS, COSX integrals, SCF dyn. polar., MC-PDFT, srDFT 
  Lee Huntington         : MR-EOM, pCC                                   
  Robert Izsak           : Overlap fitted RIJCOSX, COSX-SCS-MP3, EOM     
  Riya Kayal             : Wick's Theorem for AUTO-CI, AUTO-CI UHF-CCSDT 
  Emily Kempfer          : AUTO-CI RHF CISDT and CCSDT, approximate NEVPT4
  Christian Kollmar      : KDIIS, OOCD, Brueckner-CCSD(T), CCSD density, CASPT2, CASPT2-K, improved NEVPT2 
  Axel Koslowski         : Symmetry handling                             
  Simone Kossmann        : meta-GGA functionals, TD-DFT gradient, OOMP2, (MP2 Hessian; deprecated post 5.0) 
  Lucas Lang             : DCDCAS, Hyperfine gauge corrections, ICE-SOC+SSC
  Marvin Lechner         : AUTO-CI (C++ implementation), FIC-MRCC        
  Spencer Leger          : CASSCF response                               
  Dagmar Lenk            : GEPOL surface, SMD, ORCA-2-JSON               
  Dimitrios Liakos       : Extrapolation schemes; Compound Job, Property file
  Dimitrios Manganas     : Further ROCIS development; embedding schemes. LFT, Crystal Embedding 
  Dimitrios Pantazis     : SARC Basis sets                               
  Anastasios Papadopoulos: AUTO-CI, single reference methods and gradients 
  Taras Petrenko         : pre 6.0 DFT Hessian and TD-DFT gradient,  ECA, NRVS 
  Petra Pikulova         : Analytic Raman intensities                    
  Peter Pinski           : DLPNO-MP2, DLPNO-MP2 Gradient                 
  Shashank Vittal Rao    : ES-AILFT, MagRelax                            
  Christoph Reimann      : Effective Core Potentials                     
  Marius Retegan         : Local ZFS, SOC                                
  Christoph Riplinger    : Optimizer, TS searches, QM/MM, DLPNO-CCSD(T), (RO)-DLPNO pert. Triples 
  Michael Roemelt        : Original ROCIS implementation, recursive CI coupling coefficients
  Masaaki Saitow         : Open-shell DLPNO-CCSD energy and density      
  Barbara Sandhoefer     : DKH picture change effects                    
  Yorick L. A. Schmerwitz: GMF and freeze-and-release deltaSCF, NEB S-IDPP initial path                    
  Kantharuban Sivalingam : CASSCF convergence/infrastructure, NEVPT2, NEVPT3, NEVPT4(SD), FIC-MRCI and CEPA variants
  Bernardo de Souza      : ESD, SOC TD-DFT                               
  Georgi L. Stoychev     : AutoAux, RI-MP2 NMR, DLPNO-MP2 response, X2C  
  Van Anh Tran           : RI-MP2 g-tensors                              
  Willem Van den Heuvel  : Paramagnetic NMR                              
  Zikuan Wang            : NOTCH, Electric field optimization            
  Frank Wennmohs         : Technical directorship and infrastructure     
  Hang Xu                : AUTO-CI-Response properties                   
                                                                         
[FACCTs GmbH]                                                            
  Markus Bursch, Nicolas Foglia, Miquel Garcia-Rates, Ingolf Harden, Hagen Neugebauer, Anastasios Papadopoulos, 
  Christoph Riplinger, Bernardo de Souza, Georgi L. Stoychev                                                    
                                                                 
  APM, various basis sets, CI-OPT, improved COSX, DLPNO-Multilevel,           
  DOCKER, DRACO, updates on ESD, Fragmentator, GOAT, IRC, LR-CPCM, L-BFGS, MBIS, meta-GGA TD-DFT gradient, ML-optimized integration grids, 
  MM, NACMEs, nearIR, NEB, NEB-TS, NL-DFT gradient (VV10), 2- and 3-layer-ONIOM, interface openCOSMO-RS, QMMM,   
  Crystal-QMMM, RESP, rigid body optimization, SF, symmetry and pop. for TD-DFT, various functionals, SOLVATOR                                   
                                                                         
[Other institutions]                                                     
  V. Asgeirsson          : NEB                                           
  Christoph Bannwarth    : sTDA-DFT, sTD-DFT, PBEh-3c, B97-3c, D3        
  Giovanni Bistoni       : ETS/NOCV, ADLD/ADEX, COVALED                  
  Martin Brehm           : Molecular dynamics                            
  Ronald Cardenas        : ETS/NOCV                                      
  Martina Colucci        : COVALED                                       
  Sebastian Ehlert       : rSCAN, r2SCAN, r2SCAN-3c, D4, dhf basis sets  
  Marvin Friede          : D4 for Fr, Ra, Ac-Lr                          
  Lars Goerigk           : TD-DFT with DH, B97 family of functionals     
  Stefan Grimme          : VdW corrections, initial TS optimization, DFT functionals, gCP, sTDA/sTD-DF 
  Waldemar Hujo          : DFT-NL                                        
  H. Jonsson             : NEB                                           
  Holger Kruse           : gCP                                           
  Marcel Mueller         : wB97X-3c, vDZP basis set                      
  Hagen Neugebauer       : wr2SCAN, Native XTB                           
  Gianluca Regni         : ADLD/ADEX                                     
  Tobias Risthaus        : pre 6.0 range-separated hybrid DFT and stability analysis
  Lukas Wittmann         : regularized MP2, r2SCAN double-hybrids, wr2SCAN        
                                                                         
We gratefully acknowledge several colleagues who have allowed us to      
interface, adapt or use parts of their codes:                            
  Ed Valeev, F. Pavosevic, A. Kumar             : LibInt (2-el integral package), F12 methods 
  Garnet Chan, S. Sharma, J. Yang, R. Olivares  : DMRG                   
  Ulf Ekstrom                                   : XCFun DFT Library      
  Mihaly Kallay                                 : mrcc  (arbitrary order and MRCC methods)
  Frank Weinhold                                : gennbo (NPA and NBO analysis)           
  Simon Mueller                                 : openCOSMO-RS                            
  Christopher J. Cramer and Donald G. Truhlar   : smd solvation model                     
  S Lehtola, MJT Oliveira, MAL Marques          : LibXC Library                           
  Liviu Ungur et al                             : ANISO software                          


 Your calculation uses the libint2 library for the computation of 2-el integrals
 For citations please refer to: http://libint.valeyev.net

 Your ORCA version has been built with support for libXC version: 7.0.0
 For citations please refer to: https://libxc.gitlab.io

 This ORCA versions uses:
   CBLAS   interface :  Fast vector & matrix operations
   LAPACKE interface :  Fast linear algebra routines
   SCALAPACK package :  Parallel linear algebra routines
   Shared memory     :  Shared parallel matrices
   BLAS/LAPACK       :  OpenBLAS 0.3.29  USE64BITINT DYNAMIC_ARCH NO_AFFINITY Zen SINGLE_THREADED
        Core in use  :  Zen
   Copyright (c) 2011-2014, The OpenBLAS Project


  ***********************************
  * Starting time: Sun Apr  5 14:31:14 2026
  * Host name:     QC1
  * Process ID:    27539
  * Working dir.:  /home/user/QC/radical/allyl/split-ts1_2
  ***********************************

NOTE: MaxCore=1200 MB was set to SCF,MP2,MDCI,CIPSI,MRCI,RASCI and CIS
      => If you want to overwrite this, your respective input block should be placed after the MaxCore statement
Warning: RI is on but no J-basis has been assigned. Assigning Def2/J (nothing to worry about!)
================================================================================

----- Orbital basis set information -----
Your calculation utilizes the basis: def-SVP
   H-Kr: A. Schäfer, H. Horn, R. Ahlrichs; J. Chem. Phys. 97, 2571 (1992)
   Rb-At: K. Eichkorn, F. Weigend, O. Treutler, R. Ahlrichs; Theor. Chem. Acc. 97, 119 (1997)
   Rn: F. Weigend, R. Ahlrichs; Phys. Chem. Chem. Phys. 7, 3297 (2005)
   Fr-Ra: I. S. Lim, P. Schwerdtfeger, B. Metz, H. Stoll, J. Chem. Phys. 122, 104103 (2005)
   Ac-Lr: X. Cao, M. Dolg, J. Molec. Struct. Theochem. 673 (2004)
----- AuxJ basis set information -----
Your calculation utilizes the auxiliary basis: def2/J
   H-Rn: F. Weigend, Phys. Chem. Chem. Phys. 8, 1057 (2006).
   Fr-Lr: K. Eichkorn, F. Weigend, O. Treutler, R. Ahlrichs; Theor. Chem. Acc. 97, 119 (1997).

================================================================================
                                        WARNINGS
                       Please study these warnings very carefully!
================================================================================


WARNING: your system is open-shell and RHF/RKS was chosen
  ===> : WILL SWITCH to UHF/UKS


================================================================================
                                       INPUT FILE
================================================================================
NAME = radical_022.inp
|  1> ! B3LYP def-SVP 
|  2> %maxcore 1200
|  3> %pal nprocs 8 end
|  4> * xyz 0 2
|  5> C    0.62150700   0.47345900   0.18163900
|  6> C    0.69891200   0.04484800   1.49322100
|  7> H    1.55891300   0.69989100  -0.34190500
|  8> H    1.65582300  -0.02533500   2.01598500
|  9> H   -0.20514900  -0.22168100   2.05080600
| 10> C   -0.56958400   0.62464200  -0.53098900
| 11> H   -1.53488900   0.43428900  -0.05225000
| 12> H   -0.58341300   1.06424000  -1.52977800
| 13> H   -0.67747100  -1.00029000  -1.34131100
| 14> Br  -0.97377500  -2.27162900  -2.03114600
| 15> *
| 16> 
| 17>                          ****END OF INPUT****
================================================================================

                       ****************************
                       * Single Point Calculation *
                       ****************************

---------------------------------
CARTESIAN COORDINATES (ANGSTROEM)
---------------------------------
  C      0.621507    0.473459    0.181639
  C      0.698912    0.044848    1.493221
  H      1.558913    0.699891   -0.341905
  H      1.655823   -0.025335    2.015985
  H     -0.205149   -0.221681    2.050806
  C     -0.569584    0.624642   -0.530989
  H     -1.534889    0.434289   -0.052250
  H     -0.583413    1.064240   -1.529778
  H     -0.677471   -1.000290   -1.341311
  Br    -0.973775   -2.271629   -2.031146

----------------------------
CARTESIAN COORDINATES (A.U.)
----------------------------
  NO LB      ZA    FRAG     MASS         X           Y           Z
   0 C     6.0000    0    12.011    1.174478    0.894708    0.343248
   1 C     6.0000    0    12.011    1.320752    0.084750    2.821779
   2 H     1.0000    0     1.008    2.945919    1.322602   -0.646107
   3 H     1.0000    0     1.008    3.129052   -0.047876    3.809660
   4 H     1.0000    0     1.008   -0.387675   -0.418916    3.875462
   5 C     6.0000    0    12.011   -1.076358    1.180402   -1.003424
   6 H     1.0000    0     1.008   -2.900520    0.820687   -0.098738
   7 H     1.0000    0     1.008   -1.102491    2.011122   -2.890861
   8 H     1.0000    0     1.008   -1.280235   -1.890274   -2.534710
   9 Br   35.0000    0    79.900   -1.840168   -4.292757   -3.838310

--------------------------------
INTERNAL COORDINATES (ANGSTROEM)
--------------------------------
 C      0   0   0     0.000000000000     0.00000000     0.00000000
 C      1   0   0     1.382008055718     0.00000000     0.00000000
 H      1   2   0     1.097314804145   117.96618306     0.00000000
 H      2   1   3     1.092651140624   121.53553582     2.78498072
 H      2   1   3     1.095109598071   120.82756992   181.77754343
 C      1   2   3     1.396206552110   124.45480875   179.24386539
 H      6   1   2     1.094184188222   120.69411563     2.11937899
 H      6   1   2     1.091337303205   121.43600549   173.57563662
 H      6   1   2     1.818973708737   100.44224152   266.71190032
 Br     9   6   1     1.476472566817   171.59144454   162.48002051

---------------------------
INTERNAL COORDINATES (A.U.)
---------------------------
 C      0   0   0     0.000000000000     0.00000000     0.00000000
 C      1   0   0     2.611616740180     0.00000000     0.00000000
 H      1   2   0     2.073624462532   117.96618306     0.00000000
 H      2   1   3     2.064811415695   121.53553582     2.78498072
 H      2   1   3     2.069457226983   120.82756992   181.77754343
 C      1   2   3     2.638448009874   124.45480875   179.24386539
 H      6   1   2     2.067708455806   120.69411563     2.11937899
 H      6   1   2     2.062328622789   121.43600549   173.57563662
 H      6   1   2     3.437362154316   100.44224152   266.71190032
 Br     9   6   1     2.790128795531   171.59144454   162.48002051

---------------------
BASIS SET INFORMATION
---------------------
There are 3 groups of distinct atoms

 Group   1 Type C   : 7s4p1d contracted to 3s2p1d pattern {511/31/1}
 Group   2 Type H   : 4s1p contracted to 2s1p pattern {31/1}
 Group   3 Type Br  : 14s10p6d contracted to 5s4p3d pattern {63311/5311/411}

Atom   0C    basis set group =>   1
Atom   1C    basis set group =>   1
Atom   2H    basis set group =>   2
Atom   3H    basis set group =>   2
Atom   4H    basis set group =>   2
Atom   5C    basis set group =>   1
Atom   6H    basis set group =>   2
Atom   7H    basis set group =>   2
Atom   8H    basis set group =>   2
Atom   9Br   basis set group =>   3
---------------------------------
AUXILIARY/J BASIS SET INFORMATION
---------------------------------
There are 3 groups of distinct atoms

 Group   1 Type C   : 12s5p4d2f1g contracted to 6s4p3d1f1g pattern {711111/2111/211/2/1}
 Group   2 Type H   : 5s2p1d contracted to 3s1p1d pattern {311/2/1}
 Group   3 Type Br  : 19s5p5d3f1g contracted to 8s4p3d2f1g pattern {121111111/2111/311/21/1}

Atom   0C    basis set group =>   1
Atom   1C    basis set group =>   1
Atom   2H    basis set group =>   2
Atom   3H    basis set group =>   2
Atom   4H    basis set group =>   2
Atom   5C    basis set group =>   1
Atom   6H    basis set group =>   2
Atom   7H    basis set group =>   2
Atom   8H    basis set group =>   2
Atom   9Br   basis set group =>   3


           ************************************************************
           *        Program running with 8 parallel MPI-processes     *
           *              working on a common directory               *
           ************************************************************
------------------------------------------------------------------------------
                             ORCA STARTUP CALCULATIONS
                           -- RI-GTO INTEGRALS CHOSEN --
------------------------------------------------------------------------------
------------------------------------------------------------------------------
                   ___                                                        
                  /   \      - P O W E R E D   B Y -                         
                 /     \                                                     
                 |  |  |   _    _      __       _____    __    __             
                 |  |  |  | |  | |    /  \     |  _  \  |  |  /  |          
                  \  \/   | |  | |   /    \    | | | |  |  | /  /          
                 / \  \   | |__| |  /  /\  \   | |_| |  |  |/  /          
                |  |  |   |  __  | /  /__\  \  |    /   |      \           
                |  |  |   | |  | | |   __   |  |    \   |  |\   \          
                \     /   | |  | | |  |  |  |  | |\  \  |  | \   \       
                 \___/    |_|  |_| |__|  |__|  |_| \__\ |__|  \__/        
                                                                              
                      - O R C A' S   B I G   F R I E N D -                    
                                      &                                       
                       - I N T E G R A L  F E E D E R -                       
                                                                              
 v1 FN, 2020, v2 2021, v3 2022-2024                                           
------------------------------------------------------------------------------


----------------------
SHARK INTEGRAL PACKAGE
----------------------

Number of atoms                             ...     10
Number of basis functions                   ...    104
Number of shells                            ...     48
Maximum angular momentum                    ...      2
Integral batch strategy                     ... SHARK/LIBINT Hybrid
RI-J (if used) integral strategy            ... SPLIT-RIJ (Revised 2003 algorithm where possible)
Printlevel                                  ...      1
Contraction scheme used                     ... SEGMENTED contraction
Prescreening option                         ... SCHWARTZ
   Thresh                                   ... 1.000e-10
   Tcut                                     ... 1.000e-11
   Tpresel                                  ... 1.000e-11 
Coulomb Range Separation                    ... NOT USED
Exchange Range Separation                   ... NOT USED
Multipole approximations                    ... NOT USED
Finite Nucleus Model                        ... NOT USED
CABS basis                                  ... NOT available
Auxiliary Coulomb fitting basis             ... AVAILABLE
   # of basis functions in Aux-J            ...    271
   # of shells in Aux-J                     ...     93
   Maximum angular momentum in Aux-J        ...      4
Auxiliary J/K fitting basis                 ... NOT available
Auxiliary Correlation fitting basis         ... NOT available
Auxiliary 'external' fitting basis          ... NOT available

Checking pre-screening integrals            ... done (  0.0 sec) Dimension = 48
   => SHARK Basis and OBASIS are compatible. Storing Pre-screening
Shell pair information
Shell pair cut-off parameter TPreSel        ...   1.0e-11
Total number of shell pairs                 ...      1176
Shell pairs after pre-screening             ...      1078
Total number of primitive shell pairs       ...      4753
Primitive shell pairs kept                  ...      3271
          la=0 lb=0:    331 shell pairs
          la=1 lb=0:    383 shell pairs
          la=1 lb=1:    124 shell pairs
          la=2 lb=0:    137 shell pairs
          la=2 lb=1:     85 shell pairs
          la=2 lb=2:     18 shell pairs

Checking whether 4 symmetric matrices of dimension 104 fit in memory
:Max Core in MB      =   1200.00
 MB in use           =      4.71
 MB left             =   1195.29
 MB needed           =      0.17
 Data fit in memory  = YES
Calculating RI/J V-Matrix + Cholesky decomp.... done (  0.0 sec)
Calculating Nuclear repulsion               ... done (  0.0 sec) ENN=    191.861726149066 Eh

Diagonalization of the overlap matrix:
Smallest eigenvalue                        ... 2.634e-03
Time for diagonalization                   ...    0.001 sec
Threshold for overlap eigenvalues          ... 1.000e-07
Number of eigenvalues below threshold      ... 0
Time for construction of square roots      ...    0.000 sec
Total time needed                          ...    0.002 sec

-------------------
DFT GRID GENERATION
-------------------

General Integration Accuracy     IntAcc      ... 4.388
Radial Grid Type                 RadialGrid  ... OptM3 with GC (2021)
Angular Grid (max. ang.)         AngularGrid ... 4 (Lebedev-302)
Angular grid pruning method      GridPruning ... 4 (adaptive)
Weight generation scheme         WeightScheme... mBecke (2022)
Basis function cutoff            BFCut       ... 1.0000e-10
Integration weight cutoff        WCut        ... 1.0000e-14
Partially contracted basis set               ... off
Rotationally invariant grid construction     ... off
Angular grids for H and He will be reduced by one unit
Core-polarized basis detected: some atoms will have their core
                               angular grid increased.

Total number of grid points                  ...    49039
Total number of batches                      ...      772
Average number of points per batch           ...       63
Average number of grid points per atom       ...     4904

--------------------
COSX GRID GENERATION
--------------------

GRIDX 1
-------
General Integration Accuracy     IntAcc      ... 3.816
Radial Grid Type                 RadialGrid  ... OptM3 with GC (2021)
Angular Grid (max. ang.)         AngularGrid ... 1 (Lebedev-50)
Angular grid pruning method      GridPruning ... 4 (adaptive)
Weight generation scheme         WeightScheme... mBecke (2022)
Basis function cutoff            BFCut       ... 1.0000e-10
Integration weight cutoff        WCut        ... 1.0000e-14
Partially contracted basis set               ... on
Rotationally invariant grid construction     ... off
Angular grids for H and He will be reduced by one unit
Core-polarized basis detected: some atoms will have their core
                               angular grid increased.

Total number of grid points                  ...    11072
Total number of batches                      ...       92
Average number of points per batch           ...      120
Average number of grid points per atom       ...     1107
UseSFitting                                  ... on

GRIDX 2
-------
General Integration Accuracy     IntAcc      ... 4.020
Radial Grid Type                 RadialGrid  ... OptM3 with GC (2021)
Angular Grid (max. ang.)         AngularGrid ... 2 (Lebedev-110)
Angular grid pruning method      GridPruning ... 4 (adaptive)
Weight generation scheme         WeightScheme... mBecke (2022)
Basis function cutoff            BFCut       ... 1.0000e-10
Integration weight cutoff        WCut        ... 1.0000e-14
Partially contracted basis set               ... on
Rotationally invariant grid construction     ... off
Angular grids for H and He will be reduced by one unit
Core-polarized basis detected: some atoms will have their core
                               angular grid increased.

Total number of grid points                  ...    16406
Total number of batches                      ...      133
Average number of points per batch           ...      123
Average number of grid points per atom       ...     1641
UseSFitting                                  ... on

GRIDX 3
-------
General Integration Accuracy     IntAcc      ... 4.338
Radial Grid Type                 RadialGrid  ... OptM3 with GC (2021)
Angular Grid (max. ang.)         AngularGrid ... 3 (Lebedev-194)
Angular grid pruning method      GridPruning ... 4 (adaptive)
Weight generation scheme         WeightScheme... mBecke (2022)
Basis function cutoff            BFCut       ... 1.0000e-10
Integration weight cutoff        WCut        ... 1.0000e-14
Partially contracted basis set               ... on
Rotationally invariant grid construction     ... off
Angular grids for H and He will be reduced by one unit
Core-polarized basis detected: some atoms will have their core
                               angular grid increased.

Total number of grid points                  ...    28564
Total number of batches                      ...      228
Average number of points per batch           ...      125
Average number of grid points per atom       ...     2856
UseSFitting                                  ... on
Grids setup in   0.4 sec
Initializing property integral containers    ... done (  0.0 sec)

SHARK setup successfully completed in   0.5 seconds

Maximum memory used throughout the entire STARTUP-calculation: 17.5 MB


           ************************************************************
           *        Program running with 8 parallel MPI-processes     *
           *              working on a common directory               *
           ************************************************************
-------------------------------------------------------------------------------
                                 ORCA GUESS
                   Start orbitals & Density for SCF / CASSCF
-------------------------------------------------------------------------------

------------
SCF SETTINGS
------------
Hamiltonian:
 Density Functional     Method          .... DFT(GTOs)
 Exchange Functional    Exchange        .... B88
   X-Alpha parameter    XAlpha          ....  0.666667
   Becke's b parameter  XBeta           ....  0.004200
 Correlation Functional Correlation     .... LYP
 LDA part of GGA corr.  LDAOpt          .... VWN-5
 Gradients option       PostSCFGGA      .... off
 Hybrid DFT is turned on
   Fraction HF Exchange ScalHFX         ....  0.200000
   Scaling of DF-GGA-X  ScalDFX         ....  0.720000
   Scaling of DF-GGA-C  ScalDFC         ....  0.810000
   Scaling of DF-LDA-C  ScalLDAC        ....  1.000000
   Perturbative correction              ....  0.000000
   NL short-range parameter             ....  4.800000
 RI-approximation to the Coulomb term is turned on
   Number of AuxJ basis functions       .... 271
   RIJ-COSX (HFX calculated with COS-X)).... on


General Settings:
 Integral files         IntName         .... radical_022
 Hartree-Fock type      HFTyp           .... UHF
 Total Charge           Charge          ....    0
 Multiplicity           Mult            ....    2
 Number of Electrons    NEL             ....   59
 Basis Dimension        Dim             ....  104
 Nuclear Repulsion      ENuc            ....    191.8617261491 Eh

Convergence Acceleration:
 AO-DIIS                CNVDIIS         .... on
   Start iteration      DIISMaxIt       ....    12
   Startup error        DIISStart       ....  0.200000
   # of expansion vecs  DIISMaxEq       ....     5
   Bias factor          DIISBfac        ....   1.050
   Max. coefficient     DIISMaxC        ....  10.000
 MO-DIIS                CNVKDIIS        .... off
 Trust-Rad. Augm. Hess. CNVTRAH         .... auto
   Auto Start mean grad. ratio tolernc. ....  1.125000
   Auto Start start iteration           ....    50
   Auto Start num. interpolation iter.  ....    10
   Max. Number of Micro iterations      ....    24
   Max. Number of Macro iterations      .... Maxiter - #DIIS iter
   Number of Davidson start vectors     ....     2
   Converg. threshold    (grad. norm)   ....   5.000e-05
   Grad. Scal. Fac. for Micro threshold ....   0.100
   Minimum threshold for Micro iter.    ....   1.000e-02
   NR start threshold (gradient norm)   ....   1.000e-04
   Initial trust radius                 ....   0.400
   Minimum AH scaling param. (alpha)    ....   1.000
   Maximum AH scaling param. (alpha)    .... 1000.000
   Quad. conv. algorithm                .... NR
   White noise on init. David. guess    .... on
   Maximum white noise                  ....   0.010
   Pseudo random numbers                .... off
   Inactive MOs                         .... canonical
   Orbital update algorithm             .... Taylor
   Preconditioner                       .... Diag
   Full preconditioner red. dimension   ....   250
 SOSCF                 CNVSOSCF           .... on
   Start iteration     SOSCFMaxIt         ....   150
   Startup grad/error  SOSCFStart         ....  0.003300
   Hessian update      SOSCFHessUp        .... L-BFGS
   Autom. constraints  SOSCFAutoConstrain .... off
 Level Shifting         CNVShift        .... on
   Level shift para.    LevelShift      ....    0.2500
   Turn off err/grad.   ShiftErr        ....    0.0010
 Zerner damping         CNVZerner       .... off
 Static damping         CNVDamp         .... on
   Fraction old density DampFac         ....    0.7000
   Max. Damping (<1)    DampMax         ....    0.9800
   Min. Damping (>=0)   DampMin         ....    0.0000
   Turn off err/grad.   DampErr         ....    0.1000

SCF Procedure:
 Maximum # iterations   MaxIter         ....   125
 SCF integral mode      SCFMode         .... Direct
   Integral package                     .... SHARK and LIBINT hybrid scheme
 Reset frequency        DirectResetFreq ....    20
 Integral Threshold     Thresh          ....  1.000e-10 Eh
 Primitive CutOff       TCut            ....  1.000e-11 Eh

Convergence Tolerance:
 Convergence Check Mode ConvCheckMode   .... Total+1el-Energy
 Convergence forced     ConvForced      .... 0
 Energy Change          TolE            ....  1.000e-06 Eh
 1-El. energy change                    ....  1.000e-03 Eh
 Orbital Gradient       TolG            ....  5.000e-05
 Orbital Rotation angle TolX            ....  5.000e-05
 DIIS Error             TolErr          ....  1.000e-06

------------------------------
INITIAL GUESS: MODEL POTENTIAL
------------------------------
Loading Hartree-Fock densities                     ... done
Calculating cut-offs                               ... done
Initializing the effective Hamiltonian             ... done
Setting up the integral package (SHARK)            ... done
Starting the Coulomb interaction                   ... done (   0.0 sec)
Making the grid                                    ... done (   0.1 sec)
Mapping shells                                     ... done
Starting the XC term evaluation                    ... done (   0.0 sec)
  promolecular density results
     # of electrons  =     58.998101746
     EX              =   -106.842213945
     EC              =     -2.448418021
     EX+EC           =   -109.290631965
Transforming the Hamiltonian                       ... done (   0.0 sec)
Diagonalizing the Hamiltonian                      ... done (   0.0 sec)
Back transforming the eigenvectors                 ... done (   0.0 sec)
Now organizing SCF variables                       ... done
                      ------------------
                      INITIAL GUESS DONE (   0.1 sec)
                      ------------------
             **** ENERGY FILE WAS UPDATED (radical_022.en.tmp) ****
Finished Guess after   0.4 sec
Maximum memory used throughout the entire GUESS-calculation: 8.8 MB


           ************************************************************
           *        Program running with 8 parallel MPI-processes     *
           *              working on a common directory               *
           ************************************************************

-------------------------------------------------------------------------------------------
                                      ORCA LEAN-SCF
                              memory conserving SCF solver
-------------------------------------------------------------------------------------------

----------------------------------------D-I-I-S--------------------------------------------
Iteration    Energy (Eh)           Delta-E    RMSDP     MaxDP     DIISErr   Damp  Time(sec)
-------------------------------------------------------------------------------------------
               ***  Starting incremental Fock matrix formation  ***
    1    -2691.3395104621440623     0.00e+00  4.15e-03  3.06e-02  6.88e-02  0.700   0.2
    2    -2691.3764136691361273    -3.69e-02  3.07e-03  2.06e-02  3.84e-02  0.700   0.2
                               ***Turning on AO-DIIS***
    3    -2691.3931184456023402    -1.67e-02  1.40e-03  1.04e-02  1.66e-02  0.700   0.2
    4    -2691.4028267916314690    -9.71e-03  2.81e-03  2.11e-02  1.06e-02  0.000   0.2
    5    -2691.4241178497291003    -2.13e-02  5.47e-04  4.56e-03  3.75e-03  0.000   0.2
                              *** Initializing SOSCF ***
---------------------------------------S-O-S-C-F--------------------------------------
Iteration    Energy (Eh)           Delta-E    RMSDP     MaxDP     MaxGrad    Time(sec)
--------------------------------------------------------------------------------------
    6    -2691.4243916740283566    -2.74e-04  3.74e-04  4.49e-03  2.55e-03     0.2
               *** Restarting incremental Fock matrix formation ***
    7    -2691.4244608402036647    -6.92e-05  3.22e-04  3.38e-03  2.47e-03     0.2
    8    -2691.4245115802368673    -5.07e-05  3.57e-04  4.69e-03  1.72e-03     0.2
    9    -2691.4245253933513595    -1.38e-05  1.33e-04  1.32e-03  1.23e-03     0.2
   10    -2691.4245320612558316    -6.67e-06  3.79e-05  2.89e-04  1.40e-04     0.2
   11    -2691.4245319457559162     1.15e-07  2.23e-05  1.89e-04  1.75e-04     0.2
                 **** Energy Check signals convergence ****

               *****************************************************
               *                     SUCCESS                       *
               *           SCF CONVERGED AFTER  11 CYCLES          *
               *****************************************************

Recomputing exchange energy using gridx3       ... done (    0.246 sec)
Old exchange energy                            :    -21.430197491 Eh
New exchange energy                            :    -21.430197624 Eh
Exchange energy change after final integration :     -0.000000133 Eh
Total energy after final integration           :  -2691.424532501 Eh
             **** ENERGY FILE WAS UPDATED (radical_022.en.tmp) ****

----------------
TOTAL SCF ENERGY
----------------

Total Energy       :      -2691.42453250128665 Eh          -73237.38485 eV

Components:
Nuclear Repulsion  :        191.86172614906610 Eh            5220.82299 eV
Electronic Energy  :      -2883.28625851748075 Eh          -78458.20783 eV
One Electron Energy:      -4121.02612602672343 Eh         -112138.82192 eV
Two Electron Energy:       1237.73986750924246 Eh           33680.61408 eV

Virial components:
Potential Energy   :      -5378.51423152840016 Eh         -146356.81288 eV
Kinetic Energy     :       2687.08969902711351 Eh           73119.42803 eV
Virial Ratio       :          2.00161320758133

DFT components:
N(Alpha)           :       29.999982593810 electrons
N(Beta)            :       28.999980924681 electrons
N(Total)           :       58.999963518491 electrons
E(X)               :      -85.244004624062 Eh       
E(C)               :       -2.871240258542 Eh       
E(XC)              :      -88.115244882604 Eh       

---------------
SCF CONVERGENCE
---------------

  Last Energy change         ...   -1.1550e-07  Tolerance :   1.0000e-06
  Last MAX-Density change    ...    1.8931e-04  Tolerance :   1.0000e-05
  Last RMS-Density change    ...    2.2278e-05  Tolerance :   1.0000e-06
  Last DIIS Error            ...    2.5466e-03  Tolerance :   1.0000e-06
  Last Orbital Gradient      ...    1.7508e-04  Tolerance :   5.0000e-05
  Last Orbital Rotation      ...    4.0933e-04  Tolerance :   5.0000e-05


----------------------
UHF SPIN CONTAMINATION
----------------------

Warning: in a DFT calculation there is little theoretical justification to 
         calculate <S**2> as in Hartree-Fock theory. We will do it anyways
         but you should keep in mind that the values have only limited relevance

Expectation value of <S**2>     :     0.778060
Ideal value S*(S+1) for S=0.5   :     0.750000
Deviation                       :     0.028060

----------------
ORBITAL ENERGIES
----------------
                 SPIN UP ORBITALS
  NO   OCC          E(Eh)            E(eV) 
   0   1.0000    -482.762952    -13136.6478 
   1   1.0000     -62.446061     -1699.2437 
   2   1.0000     -56.277855     -1531.3983 
   3   1.0000     -56.275664     -1531.3387 
   4   1.0000     -56.275642     -1531.3381 
   5   1.0000     -10.217001      -278.0187 
   6   1.0000     -10.215523      -277.9785 
   7   1.0000     -10.215105      -277.9671 
   8   1.0000      -8.664024      -235.7601 
   9   1.0000      -6.496767      -176.7860 
  10   1.0000      -6.485041      -176.4670 
  11   1.0000      -6.484996      -176.4657 
  12   1.0000      -2.611133       -71.0525 
  13   1.0000      -2.607728       -70.9599 
  14   1.0000      -2.607688       -70.9588 
  15   1.0000      -2.598430       -70.7069 
  16   1.0000      -2.598425       -70.7067 
  17   1.0000      -0.809162       -22.0184 
  18   1.0000      -0.757396       -20.6098 
  19   1.0000      -0.694823       -18.9071 
  20   1.0000      -0.570953       -15.5364 
  21   1.0000      -0.497361       -13.5339 
  22   1.0000      -0.456901       -12.4329 
  23   1.0000      -0.424967       -11.5639 
  24   1.0000      -0.405700       -11.0397 
  25   1.0000      -0.379515       -10.3271 
  26   1.0000      -0.334051        -9.0900 
  27   1.0000      -0.274356        -7.4656 
  28   1.0000      -0.274140        -7.4597 
  29   1.0000      -0.222899        -6.0654 
  30   0.0000       0.001206         0.0328 
  31   0.0000       0.061592         1.6760 
  32   0.0000       0.079565         2.1651 
  33   0.0000       0.086566         2.3556 
  34   0.0000       0.096875         2.6361 
  35   0.0000       0.142100         3.8667 
  36   0.0000       0.144323         3.9272 
  37   0.0000       0.260940         7.1005 
  38   0.0000       0.310811         8.4576 
  39   0.0000       0.337666         9.1884 
  40   0.0000       0.372565        10.1380 

                 SPIN DOWN ORBITALS
  NO   OCC          E(Eh)            E(eV) 
   0   1.0000    -482.762669    -13136.6401 
   1   1.0000     -62.445912     -1699.2397 
   2   1.0000     -56.277271     -1531.3824 
   3   1.0000     -56.275553     -1531.3356 
   4   1.0000     -56.275532     -1531.3351 
   5   1.0000     -10.218638      -278.0633 
   6   1.0000     -10.208249      -277.7806 
   7   1.0000     -10.206460      -277.7319 
   8   1.0000      -8.663602      -235.7486 
   9   1.0000      -6.495639      -176.7553 
  10   1.0000      -6.484847      -176.4617 
  11   1.0000      -6.484801      -176.4604 
  12   1.0000      -2.610344       -71.0311 
  13   1.0000      -2.607097       -70.9427 
  14   1.0000      -2.607057       -70.9416 
  15   1.0000      -2.598317       -70.7038 
  16   1.0000      -2.598313       -70.7037 
  17   1.0000      -0.799094       -21.7444 
  18   1.0000      -0.753323       -20.4989 
  19   1.0000      -0.671919       -18.2838 
  20   1.0000      -0.564576       -15.3629 
  21   1.0000      -0.492615       -13.4047 
  22   1.0000      -0.451150       -12.2764 
  23   1.0000      -0.414002       -11.2656 
  24   1.0000      -0.399955       -10.8833 
  25   1.0000      -0.376953       -10.2574 
  26   1.0000      -0.308267        -8.3884 
  27   1.0000      -0.272969        -7.4279 
  28   1.0000      -0.272686        -7.4202 
  29   0.0000      -0.113573        -3.0905 
  30   0.0000       0.019669         0.5352 
  31   0.0000       0.064206         1.7471 
  32   0.0000       0.082395         2.2421 
  33   0.0000       0.102088         2.7780 
  34   0.0000       0.107293         2.9196 
  35   0.0000       0.145308         3.9540 
  36   0.0000       0.146234         3.9792 
  37   0.0000       0.261479         7.1152 
  38   0.0000       0.313835         8.5399 
  39   0.0000       0.341459         9.2916 
*Only the first 10 virtual orbitals were printed.

                    ********************************
                    * MULLIKEN POPULATION ANALYSIS *
                    ********************************

--------------------------------------------
MULLIKEN ATOMIC CHARGES AND SPIN POPULATIONS
--------------------------------------------
   0 C :   -0.045957   -0.260161
   1 C :   -0.005875    0.659946
   2 H :    0.017861    0.009195
   3 H :    0.040533   -0.030828
   4 H :    0.034019   -0.028649
   5 C :   -0.048265    0.624363
   6 H :    0.046496   -0.025570
   7 H :    0.049624   -0.027069
   8 H :    0.107251   -0.010912
   9 Br:   -0.195686    0.089684
Sum of atomic charges         :    0.0000000
Sum of atomic spin populations:    1.0000000

-----------------------------------------------------
MULLIKEN REDUCED ORBITAL CHARGES AND SPIN POPULATIONS
-----------------------------------------------------
CHARGE
  0 C s       :     3.140500  s :     3.140500
      pz      :     0.953712  p :     2.868227
      px      :     0.954371
      py      :     0.960145
      dz2     :     0.009123  d :     0.037230
      dxz     :     0.012569
      dyz     :     0.006195
      dx2y2   :     0.004901
      dxy     :     0.004442

  1 C s       :     3.134519  s :     3.134519
      pz      :     0.958169  p :     2.846660
      px      :     0.937270
      py      :     0.951221
      dz2     :     0.006494  d :     0.024696
      dxz     :     0.009801
      dyz     :     0.004300
      dx2y2   :     0.002957
      dxy     :     0.001144

  2 H s       :     0.959702  s :     0.959702
      pz      :     0.006079  p :     0.022437
      px      :     0.011854
      py      :     0.004504

  3 H s       :     0.936022  s :     0.936022
      pz      :     0.006396  p :     0.023445
      px      :     0.012322
      py      :     0.004727

  4 H s       :     0.942700  s :     0.942700
      pz      :     0.006822  p :     0.023280
      px      :     0.011310
      py      :     0.005148

  5 C s       :     3.115817  s :     3.115817
      pz      :     0.958685  p :     2.907432
      px      :     0.965812
      py      :     0.982935
      dz2     :     0.006003  d :     0.025017
      dxz     :     0.007542
      dyz     :     0.002790
      dx2y2   :     0.005127
      dxy     :     0.003556

  6 H s       :     0.930063  s :     0.930063
      pz      :     0.006144  p :     0.023441
      px      :     0.012458
      py      :     0.004838

  7 H s       :     0.926561  s :     0.926561
      pz      :     0.013105  p :     0.023815
      px      :     0.003746
      py      :     0.006964

  8 H s       :     0.852891  s :     0.852891
      pz      :     0.011068  p :     0.039858
      px      :     0.007434
      py      :     0.021357

  9 Brs       :     7.942247  s :     7.942247
      pz      :     5.831542  p :    17.234885
      px      :     5.957371
      py      :     5.445972
      dz2     :     2.000974  d :    10.018554
      dxz     :     2.000631
      dyz     :     2.008359
      dx2y2   :     2.006494
      dxy     :     2.002096


SPIN
  0 C s       :    -0.035788  s :    -0.035788
      pz      :    -0.050185  p :    -0.232973
      px      :    -0.022938
      py      :    -0.159850
      dz2     :     0.001892  d :     0.008600
      dxz     :     0.000170
      dyz     :     0.004011
      dx2y2   :     0.000537
      dxy     :     0.001990

  1 C s       :     0.065804  s :     0.065804
      pz      :     0.065812  p :     0.596360
      px      :     0.032708
      py      :     0.497841
      dz2     :    -0.000440  d :    -0.002218
      dxz     :    -0.000028
      dyz     :    -0.000818
      dx2y2   :    -0.000902
      dxy     :    -0.000030

  2 H s       :     0.010115  s :     0.010115
      pz      :    -0.000122  p :    -0.000920
      px      :    -0.000055
      py      :    -0.000742

  3 H s       :    -0.033990  s :    -0.033990
      pz      :     0.000242  p :     0.003161
      px      :     0.000185
      py      :     0.002734

  4 H s       :    -0.031450  s :    -0.031450
      pz      :     0.000201  p :     0.002801
      px      :     0.000152
      py      :     0.002448

  5 C s       :     0.056322  s :     0.056322
      pz      :     0.088821  p :     0.570168
      px      :     0.023126
      py      :     0.458220
      dz2     :    -0.000165  d :    -0.002127
      dxz     :    -0.000129
      dyz     :    -0.000609
      dx2y2   :    -0.000711
      dxy     :    -0.000514

  6 H s       :    -0.028174  s :    -0.028174
      pz      :     0.000274  p :     0.002603
      px      :     0.000103
      py      :     0.002226

  7 H s       :    -0.030069  s :    -0.030069
      pz      :     0.000706  p :     0.003000
      px      :    -0.000076
      py      :     0.002370

  8 H s       :    -0.016392  s :    -0.016392
      pz      :     0.001056  p :     0.005481
      px      :     0.000046
      py      :     0.004379

  9 Brs       :     0.000103  s :     0.000103
      pz      :     0.016887  p :     0.090028
      px      :     0.001559
      py      :     0.071582
      dz2     :    -0.000001  d :    -0.000447
      dxz     :    -0.000012
      dyz     :    -0.000231
      dx2y2   :    -0.000180
      dxy     :    -0.000023



                     *******************************
                     * LOEWDIN POPULATION ANALYSIS *
                     *******************************

-------------------------------------------
LOEWDIN ATOMIC CHARGES AND SPIN POPULATIONS
-------------------------------------------
   0 C :   -0.040267   -0.146765
   1 C :   -0.001508    0.548629
   2 H :    0.035652    0.000587
   3 H :    0.028850   -0.001877
   4 H :    0.027197   -0.002100
   5 C :   -0.042005    0.506640
   6 H :    0.029682   -0.000522
   7 H :    0.031876   -0.000125
   8 H :    0.026556    0.014655
   9 Br:   -0.096032    0.080877

----------------------------------------------------
LOEWDIN REDUCED ORBITAL CHARGES AND SPIN POPULATIONS
----------------------------------------------------
CHARGE
  0 C s       :     2.872461  s :     2.872461
      pz      :     1.061277  p :     3.071142
      px      :     1.060932
      py      :     0.948933
      dz2     :     0.025026  d :     0.096663
      dxz     :     0.034083
      dyz     :     0.014617
      dx2y2   :     0.012674
      dxy     :     0.010263

  1 C s       :     2.902685  s :     2.902685
      pz      :     1.045069  p :     3.035654
      px      :     1.049089
      py      :     0.941496
      dz2     :     0.017375  d :     0.063169
      dxz     :     0.026030
      dyz     :     0.009579
      dx2y2   :     0.007244
      dxy     :     0.002942

  2 H s       :     0.899672  s :     0.899672
      pz      :     0.017479  p :     0.064677
      px      :     0.033580
      py      :     0.013618

  3 H s       :     0.901770  s :     0.901770
      pz      :     0.017772  p :     0.069379
      px      :     0.036292
      py      :     0.015315

  4 H s       :     0.903968  s :     0.903968
      pz      :     0.018903  p :     0.068835
      px      :     0.033417
      py      :     0.016515

  5 C s       :     2.905802  s :     2.905802
      pz      :     1.040158  p :     3.072644
      px      :     1.060104
      py      :     0.972383
      dz2     :     0.014938  d :     0.063559
      dxz     :     0.020893
      dyz     :     0.006820
      dx2y2   :     0.013455
      dxy     :     0.007453

  6 H s       :     0.899465  s :     0.899465
      pz      :     0.018154  p :     0.070854
      px      :     0.036221
      py      :     0.016478

  7 H s       :     0.896411  s :     0.896411
      pz      :     0.039032  p :     0.071714
      px      :     0.010539
      py      :     0.022142

  8 H s       :     0.862422  s :     0.862422
      pz      :     0.029587  p :     0.111022
      px      :     0.018189
      py      :     0.063246

  9 Brs       :     7.832937  s :     7.832937
      pz      :     5.828626  p :    17.233388
      px      :     5.952379
      py      :     5.452383
      dz2     :     2.001157  d :    10.029707
      dxz     :     2.000869
      dyz     :     2.013999
      dx2y2   :     2.010750
      dxy     :     2.002932


SPIN
  0 C s       :    -0.009196  s :    -0.009196
      pz      :    -0.023109  p :    -0.158627
      px      :    -0.008353
      py      :    -0.127165
      dz2     :     0.004799  d :     0.021057
      dxz     :     0.001008
      dyz     :     0.009088
      dx2y2   :     0.001178
      dxy     :     0.004984

  1 C s       :     0.018101  s :     0.018101
      pz      :     0.056439  p :     0.535110
      px      :     0.015525
      py      :     0.463146
      dz2     :    -0.001111  d :    -0.004581
      dxz     :    -0.000673
      dyz     :    -0.001650
      dx2y2   :    -0.001067
      dxy     :    -0.000081

  2 H s       :     0.004637  s :     0.004637
      pz      :    -0.000611  p :    -0.004050
      px      :    -0.000537
      py      :    -0.002902

  3 H s       :    -0.015236  s :    -0.015236
      pz      :     0.001566  p :     0.013359
      px      :     0.001660
      py      :     0.010132

  4 H s       :    -0.014600  s :    -0.014600
      pz      :     0.001563  p :     0.012500
      px      :     0.001438
      py      :     0.009499

  5 C s       :     0.017220  s :     0.017220
      pz      :     0.071172  p :     0.493781
      px      :     0.011866
      py      :     0.410743
      dz2     :    -0.000567  d :    -0.004360
      dxz     :    -0.000733
      dyz     :    -0.000858
      dx2y2   :    -0.000914
      dxy     :    -0.001288

  6 H s       :    -0.013473  s :    -0.013473
      pz      :     0.001913  p :     0.012951
      px      :     0.001512
      py      :     0.009526

  7 H s       :    -0.014013  s :    -0.014013
      pz      :     0.003217  p :     0.013888
      px      :     0.000222
      py      :     0.010448

  8 H s       :    -0.005990  s :    -0.005990
      pz      :     0.004245  p :     0.020645
      px      :     0.000333
      py      :     0.016067

  9 Brs       :     0.000356  s :     0.000356
      pz      :     0.015014  p :     0.080512
      px      :     0.001299
      py      :     0.064199
      dz2     :     0.000018  d :     0.000008
      dxz     :    -0.000019
      dyz     :    -0.000008
      dx2y2   :     0.000041
      dxy     :    -0.000023



                      *****************************
                      * MAYER POPULATION ANALYSIS *
                      *****************************

  NA   - Mulliken gross atomic population
  ZA   - Total nuclear charge
  QA   - Mulliken gross atomic charge
  VA   - Mayer's total valence
  BVA  - Mayer's bonded valence
  FA   - Mayer's free valence

  ATOM       NA         ZA         QA         VA         BVA        FA
  0 C      6.0460     6.0000    -0.0460     4.1195     4.0872     0.0323
  1 C      6.0059     6.0000    -0.0059     3.9199     3.6107     0.3092
  2 H      0.9821     1.0000     0.0179     0.9791     0.9790     0.0001
  3 H      0.9595     1.0000     0.0405     0.9765     0.9754     0.0012
  4 H      0.9660     1.0000     0.0340     0.9852     0.9841     0.0010
  5 C      6.0483     6.0000    -0.0483     3.9074     3.6261     0.2813
  6 H      0.9535     1.0000     0.0465     0.9878     0.9870     0.0008
  7 H      0.9504     1.0000     0.0496     0.9796     0.9787     0.0010
  8 H      0.8927     1.0000     0.1073     1.0413     1.0408     0.0005
  9 Br    35.1957    35.0000    -0.1957     0.9584     0.9501     0.0083

  Mayer bond orders larger than 0.100000
B(  0-C ,  1-C ) :   1.5660 B(  0-C ,  2-H ) :   0.9629 B(  0-C ,  5-C ) :   1.4535 
B(  1-C ,  3-H ) :   0.9560 B(  1-C ,  4-H ) :   0.9590 B(  1-C ,  5-C ) :   0.1051 
B(  5-C ,  6-H ) :   0.9541 B(  5-C ,  7-H ) :   0.9454 B(  5-C ,  8-H ) :   0.1492 
B(  8-H ,  9-Br) :   0.8592 

-------
TIMINGS
-------

Total SCF time: 0 days 0 hours 0 min 2 sec 

Total time                  ....       2.823 sec
Sum of individual times     ....       2.636 sec  ( 93.3%)

SCF preparation             ....       0.307 sec  ( 10.9%)
Fock matrix formation       ....       2.166 sec  ( 76.7%)
  Startup                   ....       0.004 sec  (  0.2% of F)
  Split-RI-J                ....       0.133 sec  (  6.1% of F)
  Chain of spheres X        ....       1.651 sec  ( 76.2% of F)
  XC integration            ....       0.471 sec  ( 21.8% of F)
    Basis function eval.    ....       0.107 sec  ( 22.6% of XC)
    Density eval.           ....       0.092 sec  ( 19.6% of XC)
    XC-Functional eval.     ....       0.036 sec  (  7.6% of XC)
    XC-Potential eval.      ....       0.120 sec  ( 25.5% of XC)
Diagonalization             ....       0.000 sec  (  0.0%)
Density matrix formation    ....       0.025 sec  (  0.9%)
Total Energy calculation    ....       0.012 sec  (  0.4%)
Population analysis         ....       0.009 sec  (  0.3%)
Orbital Transformation      ....       0.014 sec  (  0.5%)
Orbital Orthonormalization  ....       0.000 sec  (  0.0%)
DIIS solution               ....       0.062 sec  (  2.2%)
SOSCF solution              ....       0.040 sec  (  1.4%)
Finished LeanSCF after   2.8 sec

Maximum memory used throughout the entire LEANSCF-calculation: 9.1 MB

-------------------------   --------------------
FINAL SINGLE POINT ENERGY     -2691.424532501287
-------------------------   --------------------



           ************************************************************
           *        Program running with 8 parallel MPI-processes     *
           *              working on a common directory               *
           ************************************************************

------------------------------------------------------------------------------
                              ORCA PROPERTY CALCULATIONS
------------------------------------------------------------------------------

GBWName                                 ... radical_022.gbw
Number of atoms                         ...     10
Number of basis functions               ...    104
Max core memory                         ...   1200 MB

Electric properties:
Dipole moment                           ... YES
Quadrupole moment                       ...  NO
Static polarizability (Dipole/Dipole)   ...  NO
Static polarizability (Dipole/Quad.)    ...  NO
Static polarizability (Quad./Quad.)     ...  NO
Static polarizability (Velocity)        ...  NO
Static hyperpolarizability              ...  NO

Atomic electric properties:
Dipole moment                           ...  NO
Quadrupole moment                       ...  NO
Static polarizability                   ...  NO

Choice of electric origin               ... Center of mass
Position of electric origin             ...    -1.062297    -2.584316    -2.288808

General magnetic properties:
Magnetizability                         ...  NO

EPR properties:
g-Tensor (aka g-matrix)                 ...  NO
Zero-Field splitting spin-orbit         ...  NO
Zero-field splitting spin-spin          ...  NO
Hyperfine couplings                     ...  NO (   0 nuclei)
Quadrupole couplings                    ...  NO (   0 nuclei)
Contact density                         ...  NO (   0 nuclei)

NMR properties:
Chemical shifts                         ...  NO (   0 nuclei)
Spin-rotation constants                 ...  NO (   0 nuclei)
Spin-spin couplings                     ...  NO (   0 nuclei,    0 pairs)

Choice of magnetic origin               ... GIAO
Position of magnetic origin             ...     0.000000     0.000000     0.000000

Properties with geometric perturbations:
SCF Hessian                             ...  NO
IR spectrum                             ...  NO
VCD spectrum                            ...  NO
X-ray spectroscopy properties:
SCF XES/XAS/RIXS spectra                ...  NO

SCF SOC stabilization energy            ...  NO
Diagonal Born-Oppenheimer correction    ...  NO

-------------
DIPOLE MOMENT
-------------

Method             : SCF
Type of density    : Electron Density
Multiplicity       :   2
Irrep              :   0
Energy             : -2691.4245325012866488 Eh
Basis              : AO
                                X                 Y                 Z
Electronic contribution:     -6.871905998     -16.193583754     -14.565247029
Nuclear contribution   :      7.186934409      16.984668485      15.183164780
                        -----------------------------------------
Total Dipole Moment    :      0.315028411       0.791084731       0.617917750
                        -----------------------------------------
Magnitude (a.u.)       :      1.052083788
Magnitude (Debye)      :      2.674184468



--------------------
Rotational spectrum 
--------------------
 
Rotational constants in cm-1:             0.384640             0.040744             0.038379 
Rotational constants in MHz :         11531.220172          1221.482575          1150.585446 

Dipole components along the rotational axes: 
x,y,z [a.u.] :    -1.042700    -0.140095     0.005566 
x,y,z [Debye]:    -2.650332    -0.356094     0.014147 

 

Dipole moment calculation done in   0.0 sec 

Maximum memory used throughout the entire PROP-calculation: 5.2 MB

--------------------------------
SUGGESTED CITATIONS FOR THIS RUN
--------------------------------

Below you find a list of papers that are relevant to this ORCA run
We neither can nor want to force you to cite these papers, but we appreciate if you do
You receive ORCA, which is the product of decades of hard work by many enthusiastic individuals, for free
The only thing we kindly ask in return is that you cite our papers,
We deeply appreciate it, if you show your appreciation for ORCA by not just citing the generic ORCA reference.

Please note that relegating all ORCA citations to the supporting information does *not* help us.
SI sections are not indexed - citations you put there will not count into any citation statistics
But we need these citations in order to attract the funding resources that allow us to do what we are doing

Therefore, if you are a happy ORCA user, please consider citing a few of the papers listed below in the main body of your paper

In addition to the list printed below, the program has created the file radical_022.bibtex that contains the list in bibtex format
You can import this file easily into all common literature databanks and citation aid programs


List of essential papers. We consider these as the minimum necessary citations

  1. Neese, F.
     Software update: the ORCA program system, version 6.0
     WIRES Comput. Molec. Sci. 2025 15(1), e70019
     doi.org/10.1002/wcms.7019

List of papers to cite with high priority. The work reported in these papers was absolutely
necessary for this run to complete.
Our perspective: the developers of density functionals and basis sets usually get cited in chemistry papers
Good! But without the algorithms to do something with them, the functionals or basis sets would not do anything.
Hence, in our opinion, the algorithm design and method developments papers are equally worthy of getting cited

  1. Neese, F.
     An improvement of the resolution of the identity approximation for the formation of the Coulomb matrix
     J. Comp. Chem. 2003 24(14), 1740-1747
     doi.org/10.1002/jcc.10318
  2. Neese, F.; Wennmohs, F.; Hansen, A.; Becker, U.
     Efficient, approximate and parallel Hartree-Fock and hybrid DFT calculations. A 'chain-of-spheres' algorithm for the Hartree-Fock exchange
     Chem. Phys. 2009 356(1-3), 98-109
     doi.org/10.1016/j.chemphys.2008.10.036
  3. Helmich-Paris, B.; de Souza, B.; Neese, F.; Izsák, R.
     An improved chain of spheres for exchange algorithm
     J. Chem. Phys. 2021 155(10), 104109
     doi.org/10.1063/5.0058766
  4. Neese, F.
     The SHARK Integral Generation and Digestion System
     J. Comp. Chem. 2022 44(3), 381
     doi.org/10.1002/jcc.26942

List of suggested additional citations. These are papers that are important in the 'surrounding' of 
of this run, or papers that preceded the highly important papers. If you like your results we are grateful for a citation.

  1. Izsak, R.; Neese, F.
     An overlap fitted chain of spheres exchange method
     J. Chem. Phys. 2011 135 , 144105
     doi.org/10.1063/1.3646921
  2. Izsak, R.; Hansen, A.; Neese, F.
     The resolution of identity and chain of spheres approximations for the LPNO-CCSD singles Fock term
     Molec. Phys. 2012 110 , 2413-2417
     doi.org/10.1080/00268976.2012.687466
  3. Neese, F.
     The ORCA program system
     WIRES Comput. Molec. Sci. 2012 2(1), 73-78
     doi.org/10.1002/wcms.81
  4. Izsak, R.; Neese, F.; Klopper, W.
     Robust fitting techniques in the chain of spheres approximation to the Fock exchange: The role of the complementary space
     J. Chem. Phys. 2013 139 , 
     doi.org/10.1063/1.4819264
  5. Neese, F.
     Software update: the ORCA program system, version 4.0
     WIRES Comput. Molec. Sci. 2018 8(1), 1-6
     doi.org/10.1002/wcms.1327
  6. Neese, F.; Wennmohs, F.; Becker, U.; Riplinger, C.
     The ORCA quantum chemistry program package
     J. Chem. Phys. 2020 152(22), 224108
     doi.org/10.1063/5.0004608
  7. Neese, F.
     Software update: The ORCA program system—Version 5.0
     WIRES Comput. Molec. Sci. 2022 12(1), e1606
     doi.org/10.1002/wcms.1606

List of optional additional citations

  1. Neese, F.
     Approximate second-order SCF convergence for spin unrestricted wavefunctions
     Chem. Phys. Lett. 2000 325(1-3), 93-98
     doi.org/10.1016/s0009-2614(00)00662-x

Timings for individual modules:

Sum of individual times          ...        4.762 sec (=   0.079 min)
Startup calculation              ...        0.852 sec (=   0.014 min)  17.9 %
SCF iterations                   ...        3.423 sec (=   0.057 min)  71.9 %
Property calculations            ...        0.487 sec (=   0.008 min)  10.2 %
                             ****ORCA TERMINATED NORMALLY****
TOTAL RUN TIME: 0 days 0 hours 0 minutes 5 seconds 267 msec
