[Molden Format]
[Title]
 Molden file created by orca_2mkl for BaseName=radical_037

[Atoms] AU
C    1   6          1.1717681530         0.9481379624         0.3665993111 
C    2   6          1.3264894803         0.0941064717         2.8376807928 
H    3   1          2.9424698864         1.3789936312        -0.6204783480 
H    4   1          3.1433761203        -0.0999778508         3.7972043551 
H    5   1         -0.3774954720        -0.3993841698         3.9001093918 
C    6   6         -1.0761253339         1.2743122520        -0.9684071649 
H    7   1         -2.9048019754         0.9103453294        -0.0735330233 
H    8   1         -1.0899392320         2.0611053970        -2.8769493019 
H    9   1         -1.2854597464        -2.0792524371        -2.6035475043 
Br  10  35         -1.8675275210        -4.4239395864        -3.9206828402 
[GTO]
  1 0
s   5 1.0 
     1238.4016938000         0.8208956682
      186.2900499200         1.4766449896
       42.2511763460         2.1526124058
       11.6765579320         2.1081722461
        3.5930506482         0.8290999933
s   1 1.0 
        0.4024514736         0.3601183351
s   1 1.0 
        0.1309018267         0.1551027052
p   3 1.0 
        9.4680970621         1.3467645142
        2.0103545142         1.0678070931
        0.5477100471         0.5108735714
p   1 1.0 
        0.1526861379         0.1360471976
d   1 1.0 
        0.8000000000         1.9292013661

  2 0
s   5 1.0 
     1238.4016938000         0.8208956682
      186.2900499200         1.4766449896
       42.2511763460         2.1526124058
       11.6765579320         2.1081722461
        3.5930506482         0.8290999933
s   1 1.0 
        0.4024514736         0.3601183351
s   1 1.0 
        0.1309018267         0.1551027052
p   3 1.0 
        9.4680970621         1.3467645142
        2.0103545142         1.0678070931
        0.5477100471         0.5108735714
p   1 1.0 
        0.1526861379         0.1360471976
d   1 1.0 
        0.8000000000         1.9292013661

  3 0
s   3 1.0 
       13.0107010000         0.1634903809
        1.9622572000         0.2773515510
        0.4445379600         0.3157501452
s   1 1.0 
        0.1219496200         0.1470772262
p   1 1.0 
        0.8000000000         1.0784563492

  4 0
s   3 1.0 
       13.0107010000         0.1634903809
        1.9622572000         0.2773515510
        0.4445379600         0.3157501452
s   1 1.0 
        0.1219496200         0.1470772262
p   1 1.0 
        0.8000000000         1.0784563492

  5 0
s   3 1.0 
       13.0107010000         0.1634903809
        1.9622572000         0.2773515510
        0.4445379600         0.3157501452
s   1 1.0 
        0.1219496200         0.1470772262
p   1 1.0 
        0.8000000000         1.0784563492

  6 0
s   5 1.0 
     1238.4016938000         0.8208956682
      186.2900499200         1.4766449896
       42.2511763460         2.1526124058
       11.6765579320         2.1081722461
        3.5930506482         0.8290999933
s   1 1.0 
        0.4024514736         0.3601183351
s   1 1.0 
        0.1309018267         0.1551027052
p   3 1.0 
        9.4680970621         1.3467645142
        2.0103545142         1.0678070931
        0.5477100471         0.5108735714
p   1 1.0 
        0.1526861379         0.1360471976
d   1 1.0 
        0.8000000000         1.9292013661

  7 0
s   3 1.0 
       13.0107010000         0.1634903809
        1.9622572000         0.2773515510
        0.4445379600         0.3157501452
s   1 1.0 
        0.1219496200         0.1470772262
p   1 1.0 
        0.8000000000         1.0784563492

  8 0
s   3 1.0 
       13.0107010000         0.1634903809
        1.9622572000         0.2773515510
        0.4445379600         0.3157501452
s   1 1.0 
        0.1219496200         0.1470772262
p   1 1.0 
        0.8000000000         1.0784563492

  9 0
s   3 1.0 
       13.0107010000         0.1634903809
        1.9622572000         0.2773515510
        0.4445379600         0.3157501452
s   1 1.0 
        0.1219496200         0.1470772262
p   1 1.0 
        0.8000000000         1.0784563492

 10 0
s   6 1.0 
   113286.3877600000         7.5076141183
    17009.6263030000        13.8835270484
     3870.1842567000        22.7307285566
     1093.0357227000        30.8227297499
      356.3972179700        27.2481937511
      123.1253964300         9.6953381145
s   3 1.0 
      236.7408400700        -4.7631125758
       28.4686610700         5.6113863182
       11.8834437220         1.9900291396
s   3 1.0 
       21.2696333120        -1.5429794477
        3.6129226841         1.3310800628
        1.6626648969         0.4300130345
s   1 1.0 
        0.3482379323         0.3230852630
s   1 1.0 
        0.1301903139         0.1544699827
p   5 1.0 
     1560.2801881000       115.0180051576
      368.4785920500       143.9035925417
      117.2297884900       137.5255986684
       42.6489092480        78.9578527439
       16.0872250960        15.8580577654
p   3 1.0 
        8.6352810058         6.8437546680
        3.5613665502         3.7974971038
        1.5292626609         0.5585414278
p   1 1.0 
        0.5306429485         0.6455696201
p   1 1.0 
        0.1570275896         0.1408996918
d   4 1.0 
      104.8551864200       261.4493931636
       30.2811436880       176.6993802449
       10.6513942670        76.9545600188
        3.8699456233        17.5937671387
d   1 1.0 
        1.3240876762         4.6593398042
d   1 1.0 
        0.3890000000         0.5462379705

[5D]
[7F]
[9G]
[MO]
 Sym=     1a
 Ene= -4.82768499100134E+02
 Spin= Alpha
 Occup= 1.000000
  1       0.000005656183
  2      -0.000067770636
  3       0.000074509278
  4       0.000007653669
  5       0.000016628370
  6       0.000006997475
  7       0.000055059392
  8      -0.000065651018
  9       0.000143995510
 10      -0.000001686379
 11       0.000001461272
 12      -0.000001875566
 13      -0.000000573798
 14      -0.000007234300
 15       0.000001093947
 16      -0.000003823112
 17      -0.000175425118
 18      -0.000000991549
 19       0.000002791744
 20       0.000001812779
 21       0.000017061207
 22      -0.000030744553
 23       0.000095169910
 24      -0.000001766003
 25       0.000000122401
 26      -0.000000310433
 27      -0.000005018406
 28      -0.000001502268
 29      -0.000004957971
 30      -0.000003394737
 31      -0.000002438547
 32       0.000004969050
 33      -0.000001200654
 34      -0.000000354131
 35      -0.000012557040
 36       0.000002150959
 37       0.000001653975
 38      -0.000002445422
 39       0.000001455394
 40       0.000005570208
 41      -0.000000995628
 42       0.000001483820
 43      -0.000003126387
 44       0.000008203191
 45      -0.000146065935
 46       0.000600800155
 47      -0.000008146587
 48       0.000023641402
 49       0.000006089905
 50       0.000073455013
 51      -0.000201279783
 52      -0.000096477560
 53      -0.000001350078
 54       0.000002271511
 55       0.000008495669
 56      -0.000005694209
 57       0.000003107418
 58      -0.000026103284
 59      -0.000039413204
 60      -0.000004505051
 61       0.000008450676
 62      -0.000000002467
 63      -0.000041976614
 64      -0.000063949346
 65      -0.000006553032
 66       0.000005545718
 67      -0.000000583145
 68       0.000136010650
 69      -0.000886024345
 70      -0.000028217858
 71      -0.000146736548
 72      -0.000079254385
 73      -0.994982008954
 74      -0.015688803049
 75       0.003922505416
 76      -0.002315545900
 77       0.001663187812
 78      -0.000003354845
 79      -0.000012380925
 80      -0.000007038197
 81       0.000010804419
 82       0.000039427988
 83       0.000022473612
 84      -0.000040958213
 85      -0.000149344845
 86      -0.000085115747
 87       0.000092899614
 88       0.000350544858
 89       0.000198688960
 90      -0.000001310352
 91       0.000001659380
 92       0.000006154120
 93      -0.000005024707
 94       0.000002939727
 95       0.000003833727
 96      -0.000004896945
 97      -0.000018048610
 98       0.000014719291
 99      -0.000008710117
100      -0.000001492945
101       0.000002519647
102       0.000007815401
103      -0.000006061435
104       0.000004603646
 Sym=     1a
 Ene= -6.24515787420501E+01
 Spin= Alpha
 Occup= 1.000000
  1       0.000013548259
  2      -0.000164480009
  3       0.000178494361
  4       0.000018569895
  5       0.000039892153
  6       0.000017044704
  7       0.000133525942
  8      -0.000159053635
  9       0.000342968201
 10      -0.000004041647
 11       0.000003380487
 12      -0.000004086225
 13      -0.000001662039
 14      -0.000016934079
 15       0.000002623827
 16      -0.000009562478
 17      -0.000418852607
 18      -0.000002272922
 19       0.000006801017
 20       0.000004461363
 21       0.000039867438
 22      -0.000073268880
 23       0.000227235735
 24      -0.000004157921
 25       0.000000188146
 26      -0.000000831532
 27      -0.000011837898
 28      -0.000003443616
 29      -0.000012617091
 30      -0.000008956592
 31      -0.000005718261
 32       0.000011865689
 33      -0.000002692080
 34      -0.000000693026
 35      -0.000029828977
 36       0.000005025562
 37       0.000003895846
 38      -0.000005740228
 39       0.000003002434
 40       0.000013475693
 41      -0.000002331682
 42       0.000003446156
 43      -0.000007339498
 44       0.000019513001
 45      -0.000352350819
 46       0.001460579152
 47      -0.000019609911
 48       0.000055836013
 49       0.000014253216
 50       0.000175776700
 51      -0.000488426378
 52      -0.000233428517
 53      -0.000003338424
 54       0.000005549366
 55       0.000020323089
 56      -0.000013630992
 57       0.000007239159
 58      -0.000062005708
 59      -0.000098492176
 60      -0.000011089702
 61       0.000019328439
 62      -0.000000246259
 63      -0.000100018552
 64      -0.000156147291
 65      -0.000015688160
 66       0.000012464907
 67      -0.000002064410
 68       0.000354618281
 69      -0.002192725381
 70      -0.000070818980
 71      -0.000364540116
 72      -0.000197296385
 73      -0.347186636484
 74       1.046958291539
 75       0.018587663848
 76      -0.006269914426
 77       0.004241719417
 78       0.000087184927
 79       0.000368314543
 80       0.000203352975
 81       0.000036746914
 82       0.000139139172
 83       0.000078772313
 84      -0.000104196669
 85      -0.000383263831
 86      -0.000218255767
 87       0.000229243522
 88       0.000867400464
 89       0.000491606826
 90      -0.000010423725
 91       0.000010876177
 92       0.000045579307
 93      -0.000038582835
 94       0.000019834695
 95       0.000011072837
 96      -0.000013509570
 97      -0.000051062525
 98       0.000042074100
 99      -0.000023693821
100      -0.000002919789
101       0.000005429044
102       0.000015947763
103      -0.000012181307
104       0.000009339670
 Sym=     1a
 Ene= -5.62833399483746E+01
 Spin= Alpha
 Occup= 1.000000
  1       0.000015357298
  2      -0.000180652444
  3       0.000081483016
  4       0.000022336289
  5       0.000045028919
  6       0.000020335612
  7       0.000188078081
  8      -0.000182796670
  9       0.000416892579
 10      -0.000005691558
 11       0.000002104323
 12      -0.000004540349
 13      -0.000003789839
 14      -0.000020543747
 15       0.000003023105
 16      -0.000013282787
 17      -0.000455619385
 18      -0.000003357595
 19       0.000008033766
 20       0.000004620459
 21       0.000046362109
 22      -0.000084383062
 23       0.000253870013
 24      -0.000004623713
 25       0.000001488434
 26      -0.000000595926
 27      -0.000013331462
 28      -0.000004194597
 29      -0.000011094797
 30       0.000000161985
 31      -0.000007808720
 32       0.000012872533
 33      -0.000004440798
 34      -0.000002972922
 35      -0.000039803944
 36       0.000006322620
 37       0.000004249012
 38      -0.000004995470
 39       0.000003080990
 40       0.000015104890
 41      -0.000002299426
 42       0.000004285651
 43      -0.000008674704
 44       0.000019648128
 45      -0.000397521342
 46       0.001770905692
 47      -0.000027519219
 48       0.000057053098
 49       0.000010426608
 50       0.000262113426
 51      -0.000569154055
 52      -0.000246860537
 53      -0.000004318094
 54       0.000007357738
 55       0.000027944210
 56      -0.000020677719
 57       0.000007932788
 58      -0.000068733211
 59      -0.000109916586
 60      -0.000017642246
 61       0.000027471998
 62      -0.000000543855
 63      -0.000117104425
 64      -0.000189738409
 65      -0.000023612309
 66       0.000021470351
 67      -0.000005367987
 68       0.000648479791
 69      -0.002558676611
 70      -0.000193176977
 71      -0.000864738409
 72      -0.000477512060
 73       0.000185875098
 74      -0.000554019406
 75       0.000273857523
 76      -0.000972040333
 77       0.001796753846
 78       0.184781766872
 79       0.856056204443
 80       0.463141205048
 81       0.004468366736
 82       0.020657860921
 83       0.011181360739
 84      -0.001227856187
 85      -0.005548494920
 86      -0.003017800977
 87       0.000637153682
 88       0.002737341474
 89       0.001505111707
 90      -0.000010797371
 91       0.000011546460
 92       0.000047155022
 93      -0.000039926958
 94       0.000020607012
 95       0.000005476121
 96      -0.000007549435
 97      -0.000025660233
 98       0.000020725624
 99      -0.000012795487
100       0.000039652384
101      -0.000041986214
102      -0.000176660235
103       0.000148858415
104      -0.000075267715
 Sym=     1a
 Ene= -5.62811714616609E+01
 Spin= Alpha
 Occup= 1.000000
  1       0.000000959252
  2      -0.000014889524
  3       0.000141108624
  4       0.000002998066
  5       0.000008323157
  6      -0.000002178628
  7      -0.000062645077
  8      -0.000096314367
  9       0.000091629607
 10       0.000000928964
 11       0.000000164231
 12      -0.000001176746
 13       0.000003731947
 14       0.000004187894
 15       0.000000161233
 16      -0.000002074451
 17      -0.000169895741
 18       0.000005423576
 19      -0.000008396588
 20       0.000001485584
 21      -0.000016308404
 22       0.000021900885
 23       0.000048175907
 24      -0.000000861377
 25      -0.000002453553
 26      -0.000002110189
 27      -0.000002764215
 28       0.000001022908
 29       0.000007548798
 30       0.000037735313
 31      -0.000001235900
 32       0.000006004059
 33       0.000003007008
 34       0.000010756444
 35       0.000028780887
 36      -0.000001845934
 37      -0.000003648576
 38      -0.000005589359
 39      -0.000001417273
 40       0.000029298871
 41      -0.000000614884
 42      -0.000003389709
 43      -0.000006111120
 44      -0.000003115835
 45       0.000046293743
 46      -0.000159521894
 47      -0.000013823825
 48      -0.000021081533
 49       0.000007776689
 50       0.000050861015
 51       0.000118447147
 52      -0.000040198360
 53       0.000004046071
 54       0.000004120481
 55       0.000000057759
 56      -0.000002266902
 57      -0.000001827689
 58       0.000100148251
 59      -0.000110304198
 60      -0.000013157205
 61      -0.000005052947
 62       0.000011213435
 63      -0.000048418218
 64       0.000100583371
 65      -0.000009023817
 66      -0.000018789292
 67       0.000007753463
 68      -0.000001998506
 69       0.000152620371
 70      -0.000021718117
 71       0.000002435374
 72       0.000021566869
 73      -0.000001368409
 74       0.000003909916
 75      -0.000004652421
 76       0.000031764503
 77      -0.000101751566
 78      -0.677622219582
 79      -0.225302657869
 80       0.686800647318
 81      -0.016185621201
 82      -0.005383438416
 83       0.016401908105
 84       0.003913952867
 85       0.001310226414
 86      -0.003954501536
 87      -0.001445855711
 88      -0.000528018445
 89       0.001416847738
 90       0.000021738308
 91      -0.000007414000
 92       0.000017264246
 93       0.000002970624
 94      -0.000024290545
 95      -0.000007098092
 96       0.000004115635
 97      -0.000001856617
 98      -0.000004172617
 99       0.000009086894
100       0.000001555453
101      -0.000003833066
102      -0.000008542728
103       0.000008232257
104      -0.000004333136
 Sym=     1a
 Ene= -5.62811498618140E+01
 Spin= Alpha
 Occup= 1.000000
  1      -0.000007839826
  2       0.000088032176
  3      -0.000377782892
  4      -0.000018893696
  5      -0.000026334014
  6      -0.000018108253
  7       0.000216497750
  8       0.000133094836
  9       0.000117702703
 10      -0.000008358674
 11      -0.000006950323
 12       0.000004705724
 13      -0.000011144474
 14      -0.000009478830
 15      -0.000000569597
 16      -0.000005635823
 17       0.000097528641
 18       0.000000657210
 19      -0.000003866013
 20      -0.000003284864
 21      -0.000104308630
 22      -0.000038065308
 23      -0.000032749218
 24       0.000003790782
 25       0.000003201695
 26       0.000006826548
 27       0.000003906858
 28      -0.000002611800
 29       0.000001316283
 30      -0.000025132199
 31      -0.000003214899
 32      -0.000015853628
 33      -0.000018241323
 34       0.000009421413
 35       0.000029058436
 36       0.000000978665
 37       0.000002106360
 38       0.000003032714
 39      -0.000012497378
 40      -0.000067756202
 41      -0.000001461235
 42       0.000001630132
 43       0.000005746683
 44       0.000003393587
 45      -0.000067093730
 46       0.000482824376
 47       0.000021531456
 48       0.000030103055
 49       0.000034008803
 50       0.000033400493
 51      -0.000216079813
 52      -0.000072543161
 53       0.000004814873
 54      -0.000006930700
 55      -0.000002816086
 56      -0.000003678917
 57      -0.000000743131
 58      -0.000060362210
 59       0.000012552569
 60       0.000009236222
 61       0.000014040262
 62       0.000015169963
 63      -0.000093804376
 64       0.000081321730
 65       0.000007622326
 66       0.000007657692
 67       0.000015465586
 68       0.000010228339
 69      -0.000359792996
 70       0.000024549630
 71      -0.000048816151
 72       0.000001522576
 73       0.000004251820
 74      -0.000012249609
 75       0.000013470413
 76      -0.000077535980
 77       0.000234169700
 78       0.698787568855
 79      -0.444887554929
 80       0.543505730850
 81       0.016693394587
 82      -0.010617896864
 83       0.012986042971
 84      -0.004044729805
 85       0.002536237796
 86      -0.003154655041
 87       0.001512856099
 88      -0.000818380172
 89       0.001217434615
 90       0.000016005421
 91       0.000017738466
 92       0.000012133429
 93       0.000018238389
 94       0.000020556426
 95      -0.000003358066
 96      -0.000008029490
 97      -0.000011178477
 98      -0.000000358445
 99      -0.000010247831
100      -0.000003243551
101       0.000004783022
102       0.000014986915
103      -0.000011120684
104       0.000007460708
 Sym=     1a
 Ene= -1.02143230010093E+01
 Spin= Alpha
 Occup= 1.000000
  1      -0.135504579066
  2      -0.003839326308
  3      -0.003798264265
  4      -0.001895306855
  5       0.000688155349
  6      -0.001141920920
  7      -0.000738127913
  8      -0.001231894319
  9       0.004129114177
 10      -0.000136778381
 11       0.001086897985
 12      -0.000338632530
 13       0.000982869363
 14      -0.000445639011
 15      -0.026399539609
 16      -0.000526024422
 17      -0.004054444272
 18      -0.000262229332
 19       0.000107502875
 20      -0.000185058819
 21       0.004810164064
 22      -0.000514729303
 23       0.002151509363
 24      -0.000042603337
 25      -0.000049595692
 26       0.000070770566
 27      -0.000214237232
 28      -0.000045443374
 29       0.000887909235
 30       0.000593212614
 31       0.000196877821
 32      -0.000036883460
 33       0.000298048061
 34      -0.000687044407
 35      -0.001976055223
 36      -0.000031867631
 37      -0.000000356426
 38       0.000059904938
 39       0.000983990852
 40       0.001711002329
 41       0.000029923821
 42       0.000070134689
 43      -0.000108409524
 44      -0.978240947801
 45      -0.051259783695
 46       0.042352089704
 47       0.000729482691
 48       0.000769751613
 49       0.000745620078
 50       0.001925513277
 51      -0.005066873560
 52      -0.001712100183
 53      -0.000807749395
 54       0.000221933009
 55       0.001370531909
 56      -0.001425448560
 57      -0.000140657394
 58       0.003153880399
 59      -0.007478067990
 60       0.002388616238
 61       0.000928718081
 62      -0.001365912541
 63       0.003150028761
 64      -0.007804446406
 65      -0.000279843569
 66      -0.000844607813
 67       0.002838796070
 68      -0.000756422553
 69      -0.013305954273
 70       0.000053580287
 71      -0.000194751290
 72      -0.000140459854
 73       0.000012716978
 74      -0.000023326336
 75       0.000219230353
 76      -0.002251492972
 77       0.008551683423
 78      -0.000008759892
 79      -0.000020797859
 80      -0.000009805517
 81       0.000030853180
 82       0.000074627608
 83       0.000035595793
 84      -0.000191350212
 85      -0.000551618534
 86      -0.000286276610
 87       0.001199223074
 88       0.004424516137
 89       0.002452911229
 90      -0.000012803386
 91       0.000017649592
 92       0.000058920464
 93      -0.000047398563
 94       0.000032299384
 95       0.000060208887
 96      -0.000082256226
 97      -0.000278432706
 98       0.000224392033
 99      -0.000150262253
100      -0.000190550171
101       0.000246807423
102       0.000883315400
103      -0.000719343698
104       0.000448037347
 Sym=     1a
 Ene= -1.02128756801998E+01
 Spin= Alpha
 Occup= 1.000000
  1       0.705461153977
  2       0.032036075423
  3      -0.025150068445
  4      -0.000196754639
  5       0.000448860563
  6      -0.002012231135
  7       0.002604513322
  8       0.002408633682
  9      -0.005881143440
 10      -0.000402184123
 11      -0.000023817033
 12      -0.000200222374
 13       0.001325959585
 14       0.000219733895
 15       0.682838827469
 16       0.030566934246
 17      -0.007115661162
 18       0.000064168917
 19      -0.000746633197
 20       0.002064711469
 21      -0.000524110884
 22       0.001336110742
 23      -0.003947408437
 24      -0.000405812633
 25       0.000080399269
 26      -0.000139966649
 27       0.001154055827
 28       0.000163091539
 29      -0.003504941265
 30       0.003628398139
 31       0.001856688836
 32       0.000199272827
 33      -0.000468315260
 34      -0.003026715075
 35       0.004267321945
 36       0.001656488732
 37      -0.000112697856
 38       0.000674554829
 39      -0.002884852754
 40       0.004254011827
 41      -0.001542905552
 42      -0.000348228582
 43       0.000664715214
 44      -0.115479425777
 45      -0.007472308700
 46       0.007857660653
 47      -0.001234478550
 48      -0.000101955426
 49      -0.001054138917
 50      -0.001751390931
 51       0.000214749147
 52       0.005398106761
 53       0.000044391016
 54      -0.000619751648
 55       0.000341134934
 56      -0.001005112299
 57       0.000048230868
 58       0.000108903323
 59      -0.003469904688
 60       0.000606612114
 61      -0.000010187297
 62      -0.000120236703
 63       0.001761237822
 64       0.000049721453
 65       0.000306817717
 66      -0.000281012010
 67       0.000500629727
 68      -0.000427583717
 69       0.006607274220
 70       0.000124479641
 71      -0.000260152640
 72      -0.000122474614
 73      -0.000007763232
 74       0.000014190378
 75      -0.000133976619
 76       0.001343671340
 77      -0.004611548609
 78      -0.000002973315
 79       0.000020942004
 80       0.000004953772
 81       0.000009441997
 82      -0.000073130579
 83      -0.000018026814
 84       0.000009580159
 85       0.000457149050
 86       0.000165584408
 87      -0.000512807653
 88      -0.002614685496
 89      -0.001333433421
 90       0.000009456502
 91      -0.000007013173
 92      -0.000037734600
 93       0.000033077490
 94      -0.000017157125
 95      -0.000044993774
 96       0.000035749267
 97       0.000181655564
 98      -0.000157948184
 99       0.000083905938
100       0.000134976905
101      -0.000127453851
102      -0.000567707630
103       0.000483418075
104      -0.000267865744
 Sym=     1a
 Ene= -1.02124770703248E+01
 Spin= Alpha
 Occup= 1.000000
  1       0.678654800829
  2       0.035858406417
  3      -0.036720043004
  4       0.000352510373
  5      -0.000615373327
  6       0.001346056792
  7       0.002965291428
  8       0.000426025060
  9      -0.000304839298
 10       0.001511442670
 11       0.000087134871
 12      -0.001611843643
 13       0.001533195822
 14       0.000217231098
 15      -0.713659554961
 16      -0.037957028488
 17       0.032532658577
 18       0.000129980402
 19      -0.000464176745
 20       0.001249383704
 21      -0.001958514636
 22       0.000846102184
 23      -0.002810966098
 24      -0.001362159385
 25      -0.000125222237
 26       0.001586892827
 27      -0.001597525415
 28      -0.000226135018
 29      -0.002993305727
 30       0.005673843315
 31       0.001823195608
 32       0.000558743838
 33      -0.001440577391
 34       0.003596763802
 35      -0.005309550397
 36      -0.002150997125
 37       0.000243014120
 38      -0.001185928262
 39       0.002993822626
 40      -0.006370959301
 41       0.002010979107
 42       0.000595468135
 43      -0.001303703323
 44      -0.074163417536
 45      -0.005602860357
 46       0.011831241248
 47      -0.001541846628
 48      -0.000042392993
 49      -0.000841508834
 50       0.003639547200
 51       0.001282898586
 52       0.000637686666
 53      -0.000080920400
 54      -0.000745046013
 55       0.000425702613
 56      -0.001115435939
 57       0.000107886917
 58       0.001015824565
 59      -0.000244808593
 60       0.000599217497
 61      -0.000011083949
 62      -0.000112587193
 63       0.000255584417
 64      -0.001959820257
 65       0.000065768578
 66      -0.000213228785
 67       0.000439908684
 68      -0.000171411946
 69       0.003516553505
 70       0.000154768708
 71      -0.000140074058
 72       0.000132476581
 73      -0.000004282010
 74       0.000007866152
 75      -0.000073775782
 76       0.000713301685
 77      -0.002448541849
 78      -0.000004191513
 79       0.000012432040
 80       0.000002158943
 81       0.000013845044
 82      -0.000043481375
 83      -0.000008123676
 84      -0.000031603352
 85       0.000256273714
 86       0.000083529802
 87      -0.000209475970
 88      -0.001391482915
 89      -0.000704172973
 90       0.000004419374
 91      -0.000002649150
 92      -0.000021023472
 93       0.000019225891
 94      -0.000008471449
 95      -0.000019763228
 96       0.000014207493
 97       0.000099498150
 98      -0.000088600506
 99       0.000041129473
100       0.000054316797
101      -0.000056047051
102      -0.000298643289
103       0.000250623224
104      -0.000129998176
 Sym=     1a
 Ene= -8.66950764139833E+00
 Spin= Alpha
 Occup= 1.000000
  1       0.000036201617
  2      -0.000388403730
  3       0.000489757808
  4       0.000041861825
  5       0.000084012497
  6       0.000039227991
  7       0.000254257866
  8      -0.000370926459
  9       0.000648497696
 10      -0.000007804480
 11       0.000008136946
 12      -0.000001567279
 13      -0.000006186409
 14      -0.000028178984
 15       0.000008063286
 16      -0.000028306348
 17      -0.000858163846
 18      -0.000002191991
 19       0.000016645826
 20       0.000012288660
 21       0.000072844111
 22      -0.000142980584
 23       0.000462108311
 24      -0.000007601069
 25      -0.000001986186
 26      -0.000004021834
 27      -0.000022921131
 28      -0.000004503398
 29      -0.000040581350
 30      -0.000033681086
 31      -0.000009293834
 32       0.000025303376
 33      -0.000000039324
 34       0.000001711356
 35      -0.000056837863
 36       0.000008098012
 37       0.000007533454
 38      -0.000011412429
 39      -0.000000565049
 40       0.000032150735
 41      -0.000003824046
 42       0.000005241721
 43      -0.000012755437
 44       0.000045932619
 45      -0.000756328162
 46       0.003251489490
 47      -0.000042058448
 48       0.000097747283
 49       0.000022260426
 50       0.000328765978
 51      -0.001107619657
 52      -0.000539968779
 53      -0.000010263650
 54       0.000013198384
 55       0.000044459755
 56      -0.000031333996
 57       0.000011819920
 58      -0.000112070429
 59      -0.000246100410
 60      -0.000023161922
 61       0.000020943768
 62      -0.000007948273
 63      -0.000189338972
 64      -0.000346173676
 65      -0.000031388231
 66       0.000004991718
 67      -0.000012416307
 68       0.001057402585
 69      -0.005911092748
 70      -0.000146404384
 71      -0.000749080659
 72      -0.000407115882
 73      -0.136660070323
 74       0.516878200724
 75      -1.093416087757
 76      -0.032224029536
 77       0.013950843148
 78       0.000365844125
 79       0.001509196146
 80       0.000837979691
 81      -0.000860482525
 82      -0.003557014415
 83      -0.001973925899
 84      -0.000309680878
 85      -0.001187694848
 86      -0.000671945978
 87       0.000618791351
 88       0.002381809093
 89       0.001347503454
 90       0.000172544291
 91      -0.000175446115
 92      -0.000737935783
 93       0.000626472938
 94      -0.000317979041
 95       0.000134859361
 96      -0.000149743665
 97      -0.000594340130
 98       0.000497123607
 99      -0.000260233890
100      -0.000016486194
101       0.000026527277
102       0.000084952449
103      -0.000066481545
104       0.000040202566
 Sym=     1a
 Ene= -6.50231960406698E+00
 Spin= Alpha
 Occup= 1.000000
  1       0.000018885442
  2      -0.000230798597
  3       0.000331114797
  4       0.000025815887
  5       0.000048649816
  6       0.000023238634
  7       0.000098130119
  8      -0.000216407523
  9       0.000336201432
 10      -0.000003849837
 11       0.000004983873
 12      -0.000000184899
 13      -0.000003197242
 14      -0.000014788763
 15       0.000004517936