
                                 *****************
                                 * O   R   C   A *
                                 *****************

                                            #,                                       
                                            ###                                      
                                            ####                                     
                                            #####                                    
                                            ######                                   
                                           ########,                                 
                                     ,,################,,,,,                         
                               ,,#################################,,                 
                          ,,##########################################,,             
                       ,#########################################, ''#####,          
                    ,#############################################,,   '####,        
                  ,##################################################,,,,####,       
                ,###########''''           ''''###############################       
              ,#####''   ,,,,##########,,,,          '''####'''          '####       
            ,##' ,,,,###########################,,,                        '##       
           ' ,,###''''                  '''############,,,                           
         ,,##''                                '''############,,,,        ,,,,,,###''
      ,#''                                            '''#######################'''  
     '                                                          ''''####''''         
             ,#######,   #######,   ,#######,      ##                                
            ,#'     '#,  ##    ##  ,#'     '#,    #''#        ,####,    ,#,          
            ##       ##  ##   ,#'  ##            #'  '#       #'       ,# #          
            ##       ##  #######   ##           ,######,      #####,      #          
            '#,     ,#'  ##    ##  '#,     ,#' ,#      #,     #,   #      #          
             '#######'   ##     ##  '#######'  #'      '#     '####' #    #          



                #########################################################
                #                        -***-                          #
                #          Department of theory and spectroscopy        #
                #                                                       #
                #                      Frank Neese                      #
                #                                                       #
                #     Directorship, Architecture, Infrastructure        #
                #                    SHARK, DRIVERS                     #
                #        Core code/Algorithms in most modules           #
                #                                                       #
                #        Max Planck Institute fuer Kohlenforschung      #
                #                Kaiser Wilhelm Platz 1                 #
                #                 D-45470 Muelheim/Ruhr                 #
                #                      Germany                          #
                #                                                       #
                #                  All rights reserved                  #
                #                        -***-                          #
                #########################################################


                         Program Version 6.1.0  -  RELEASE   -
                                (GIT: $679e74b$)
                          ($2025-06-10 18:02:51 +0200$)


 With contributions from (in alphabetic order):
[Max-Planck-Institut fuer Kohlenforschung]                               
  Daniel Aravena         : Magnetic Suceptibility                        
  Michael Atanasov       : Ab Initio Ligand Field Theory (pilot matlab implementation)
  Alexander A. Auer      : GIAO ZORA, VPT2 properties, NMR spectrum      
  Ute Becker             : All parallelization in ORCA, NUMFREQ, NUMCALC 
  Giovanni Bistoni       : ED, misc. LED, open-shell LED, HFLD           
  Dmytro Bykov           : pre 5.0 version of the SCF Hessian            
  Marcos Casanova-Páez   : Triplet and SCS-CIS(D). UHF-(DLPNO)-IP/EA/STEOM-CCSD. UHF-CVS-IP/STEOM-CCSD   
  Vijay G. Chilkuri      : MRCI spin determinant printing, contributions to CSF-ICE 
  Pauline Colinet        : FMM embedding                                 
  Dipayan Datta          : RHF DLPNO-CCSD density                        
  Achintya Kumar Dutta   : EOM-CC, STEOM-CC                              
  Nicolas Foglia         : Exact transition moments, OPA infrastructure, MCD improvements    
  Dmitry Ganyushin       : Spin-Orbit,Spin-Spin,Magnetic field MRCI      
  Miquel Garcia-Rates    : C-PCM and meta-GGA Hessian, CCSD/C-PCM, Gaussian charge scheme 
  Tiago L. C. Gouveia    : GS-ROHF, GS-ROCIS                             
  Yang Guo               : DLPNO-NEVPT2, F12-NEVPT2, CIM, IAO-localization        
  Andreas Hansen         : Spin unrestricted coupled pair/coupled cluster methods 
  Ingolf Harden          : AUTO-CI MPn and infrastructure                
  Benjamin Helmich-Paris : MC-RPA, TRAH-(SCF,CASSCF), AVAS, COSX integrals, SCF dyn. polar., MC-PDFT, srDFT 
  Lee Huntington         : MR-EOM, pCC                                   
  Robert Izsak           : Overlap fitted RIJCOSX, COSX-SCS-MP3, EOM     
  Riya Kayal             : Wick's Theorem for AUTO-CI, AUTO-CI UHF-CCSDT 
  Emily Kempfer          : AUTO-CI RHF CISDT and CCSDT, approximate NEVPT4
  Christian Kollmar      : KDIIS, OOCD, Brueckner-CCSD(T), CCSD density, CASPT2, CASPT2-K, improved NEVPT2 
  Axel Koslowski         : Symmetry handling                             
  Simone Kossmann        : meta-GGA functionals, TD-DFT gradient, OOMP2, (MP2 Hessian; deprecated post 5.0) 
  Lucas Lang             : DCDCAS, Hyperfine gauge corrections, ICE-SOC+SSC
  Marvin Lechner         : AUTO-CI (C++ implementation), FIC-MRCC        
  Spencer Leger          : CASSCF response                               
  Dagmar Lenk            : GEPOL surface, SMD, ORCA-2-JSON               
  Dimitrios Liakos       : Extrapolation schemes; Compound Job, Property file
  Dimitrios Manganas     : Further ROCIS development; embedding schemes. LFT, Crystal Embedding 
  Dimitrios Pantazis     : SARC Basis sets                               
  Anastasios Papadopoulos: AUTO-CI, single reference methods and gradients 
  Taras Petrenko         : pre 6.0 DFT Hessian and TD-DFT gradient,  ECA, NRVS 
  Petra Pikulova         : Analytic Raman intensities                    
  Peter Pinski           : DLPNO-MP2, DLPNO-MP2 Gradient                 
  Shashank Vittal Rao    : ES-AILFT, MagRelax                            
  Christoph Reimann      : Effective Core Potentials                     
  Marius Retegan         : Local ZFS, SOC                                
  Christoph Riplinger    : Optimizer, TS searches, QM/MM, DLPNO-CCSD(T), (RO)-DLPNO pert. Triples 
  Michael Roemelt        : Original ROCIS implementation, recursive CI coupling coefficients
  Masaaki Saitow         : Open-shell DLPNO-CCSD energy and density      
  Barbara Sandhoefer     : DKH picture change effects                    
  Yorick L. A. Schmerwitz: GMF and freeze-and-release deltaSCF, NEB S-IDPP initial path                    
  Kantharuban Sivalingam : CASSCF convergence/infrastructure, NEVPT2, NEVPT3, NEVPT4(SD), FIC-MRCI and CEPA variants
  Bernardo de Souza      : ESD, SOC TD-DFT                               
  Georgi L. Stoychev     : AutoAux, RI-MP2 NMR, DLPNO-MP2 response, X2C  
  Van Anh Tran           : RI-MP2 g-tensors                              
  Willem Van den Heuvel  : Paramagnetic NMR                              
  Zikuan Wang            : NOTCH, Electric field optimization            
  Frank Wennmohs         : Technical directorship and infrastructure     
  Hang Xu                : AUTO-CI-Response properties                   
                                                                         
[FACCTs GmbH]                                                            
  Markus Bursch, Nicolas Foglia, Miquel Garcia-Rates, Ingolf Harden, Hagen Neugebauer, Anastasios Papadopoulos, 
  Christoph Riplinger, Bernardo de Souza, Georgi L. Stoychev                                                    
                                                                 
  APM, various basis sets, CI-OPT, improved COSX, DLPNO-Multilevel,           
  DOCKER, DRACO, updates on ESD, Fragmentator, GOAT, IRC, LR-CPCM, L-BFGS, MBIS, meta-GGA TD-DFT gradient, ML-optimized integration grids, 
  MM, NACMEs, nearIR, NEB, NEB-TS, NL-DFT gradient (VV10), 2- and 3-layer-ONIOM, interface openCOSMO-RS, QMMM,   
  Crystal-QMMM, RESP, rigid body optimization, SF, symmetry and pop. for TD-DFT, various functionals, SOLVATOR                                   
                                                                         
[Other institutions]                                                     
  V. Asgeirsson          : NEB                                           
  Christoph Bannwarth    : sTDA-DFT, sTD-DFT, PBEh-3c, B97-3c, D3        
  Giovanni Bistoni       : ETS/NOCV, ADLD/ADEX, COVALED                  
  Martin Brehm           : Molecular dynamics                            
  Ronald Cardenas        : ETS/NOCV                                      
  Martina Colucci        : COVALED                                       
  Sebastian Ehlert       : rSCAN, r2SCAN, r2SCAN-3c, D4, dhf basis sets  
  Marvin Friede          : D4 for Fr, Ra, Ac-Lr                          
  Lars Goerigk           : TD-DFT with DH, B97 family of functionals     
  Stefan Grimme          : VdW corrections, initial TS optimization, DFT functionals, gCP, sTDA/sTD-DF 
  Waldemar Hujo          : DFT-NL                                        
  H. Jonsson             : NEB                                           
  Holger Kruse           : gCP                                           
  Marcel Mueller         : wB97X-3c, vDZP basis set                      
  Hagen Neugebauer       : wr2SCAN, Native XTB                           
  Gianluca Regni         : ADLD/ADEX                                     
  Tobias Risthaus        : pre 6.0 range-separated hybrid DFT and stability analysis
  Lukas Wittmann         : regularized MP2, r2SCAN double-hybrids, wr2SCAN        
                                                                         
We gratefully acknowledge several colleagues who have allowed us to      
interface, adapt or use parts of their codes:                            
  Ed Valeev, F. Pavosevic, A. Kumar             : LibInt (2-el integral package), F12 methods 
  Garnet Chan, S. Sharma, J. Yang, R. Olivares  : DMRG                   
  Ulf Ekstrom                                   : XCFun DFT Library      
  Mihaly Kallay                                 : mrcc  (arbitrary order and MRCC methods)
  Frank Weinhold                                : gennbo (NPA and NBO analysis)           
  Simon Mueller                                 : openCOSMO-RS                            
  Christopher J. Cramer and Donald G. Truhlar   : smd solvation model                     
  S Lehtola, MJT Oliveira, MAL Marques          : LibXC Library                           
  Liviu Ungur et al                             : ANISO software                          


 Your calculation uses the libint2 library for the computation of 2-el integrals
 For citations please refer to: http://libint.valeyev.net

 Your ORCA version has been built with support for libXC version: 7.0.0
 For citations please refer to: https://libxc.gitlab.io

 This ORCA versions uses:
   CBLAS   interface :  Fast vector & matrix operations
   LAPACKE interface :  Fast linear algebra routines
   SCALAPACK package :  Parallel linear algebra routines
   Shared memory     :  Shared parallel matrices
   BLAS/LAPACK       :  OpenBLAS 0.3.29  USE64BITINT DYNAMIC_ARCH NO_AFFINITY Zen SINGLE_THREADED
        Core in use  :  Zen
   Copyright (c) 2011-2014, The OpenBLAS Project


  ***********************************
  * Starting time: Sun Apr  5 14:33:00 2026
  * Host name:     QC1
  * Process ID:    30503
  * Working dir.:  /home/user/QC/radical/allyl/split-ts1_2
  ***********************************

NOTE: MaxCore=1200 MB was set to SCF,MP2,MDCI,CIPSI,MRCI,RASCI and CIS
      => If you want to overwrite this, your respective input block should be placed after the MaxCore statement
Warning: RI is on but no J-basis has been assigned. Assigning Def2/J (nothing to worry about!)
================================================================================

----- Orbital basis set information -----
Your calculation utilizes the basis: def-SVP
   H-Kr: A. Schäfer, H. Horn, R. Ahlrichs; J. Chem. Phys. 97, 2571 (1992)
   Rb-At: K. Eichkorn, F. Weigend, O. Treutler, R. Ahlrichs; Theor. Chem. Acc. 97, 119 (1997)
   Rn: F. Weigend, R. Ahlrichs; Phys. Chem. Chem. Phys. 7, 3297 (2005)
   Fr-Ra: I. S. Lim, P. Schwerdtfeger, B. Metz, H. Stoll, J. Chem. Phys. 122, 104103 (2005)
   Ac-Lr: X. Cao, M. Dolg, J. Molec. Struct. Theochem. 673 (2004)
----- AuxJ basis set information -----
Your calculation utilizes the auxiliary basis: def2/J
   H-Rn: F. Weigend, Phys. Chem. Chem. Phys. 8, 1057 (2006).
   Fr-Lr: K. Eichkorn, F. Weigend, O. Treutler, R. Ahlrichs; Theor. Chem. Acc. 97, 119 (1997).

================================================================================
                                        WARNINGS
                       Please study these warnings very carefully!
================================================================================


WARNING: your system is open-shell and RHF/RKS was chosen
  ===> : WILL SWITCH to UHF/UKS


================================================================================
                                       INPUT FILE
================================================================================
NAME = radical_042.inp
|  1> ! B3LYP def-SVP 
|  2> %maxcore 1200
|  3> %pal nprocs 8 end
|  4> * xyz 0 2
|  5> C    0.61932800   0.50871000   0.19749800
|  6> C    0.70282800   0.05136500   1.50340400
|  7> H    1.55679100   0.73773100  -0.32437100
|  8> H    1.66545700  -0.05969700   2.00735800
|  9> H   -0.19828900  -0.20827200   2.06766800
| 10> C   -0.56916300   0.68714600  -0.50774700
| 11> H   -1.53781900   0.49589300  -0.03511900
| 12> H   -0.57488900   1.10092100  -1.51884400
| 13> H   -0.68079900  -1.12851900  -1.38738600
| 14> Br  -0.99257200  -2.36284200  -2.08819000
| 15> *
| 16> 
| 17>                          ****END OF INPUT****
================================================================================

                       ****************************
                       * Single Point Calculation *
                       ****************************

---------------------------------
CARTESIAN COORDINATES (ANGSTROEM)
---------------------------------
  C      0.619328    0.508710    0.197498
  C      0.702828    0.051365    1.503404
  H      1.556791    0.737731   -0.324371
  H      1.665457   -0.059697    2.007358
  H     -0.198289   -0.208272    2.067668
  C     -0.569163    0.687146   -0.507747
  H     -1.537819    0.495893   -0.035119
  H     -0.574889    1.100921   -1.518844
  H     -0.680799   -1.128519   -1.387386
  Br    -0.992572   -2.362842   -2.088190

----------------------------
CARTESIAN COORDINATES (A.U.)
----------------------------
  NO LB      ZA    FRAG     MASS         X           Y           Z
   0 C     6.0000    0    12.011    1.170360    0.961323    0.373217
   1 C     6.0000    0    12.011    1.328152    0.097066    2.841022
   2 H     1.0000    0     1.008    2.941909    1.394110   -0.612972
   3 H     1.0000    0     1.008    3.147258   -0.112811    3.793357
   4 H     1.0000    0     1.008   -0.374712   -0.393577    3.907326
   5 C     6.0000    0    12.011   -1.075562    1.298518   -0.959503
   6 H     1.0000    0     1.008   -2.906057    0.937102   -0.066365
   7 H     1.0000    0     1.008   -1.086383    2.080439   -2.870199
   8 H     1.0000    0     1.008   -1.286524   -2.132592   -2.621780
   9 Br   35.0000    0    79.900   -1.875689   -4.465124   -3.946107

--------------------------------
INTERNAL COORDINATES (ANGSTROEM)
--------------------------------
 C      0   0   0     0.000000000000     0.00000000     0.00000000
 C      1   0   0     1.386191610082     0.00000000     0.00000000
 H      1   2   0     1.097102888507   117.74451514     0.00000000
 H      2   1   3     1.092226621906   121.42051692     1.22181468
 H      2   1   3     1.094448299900   120.95613319   180.99894713
 C      1   2   3     1.393456412380   124.77979300   179.33641992
 H      6   1   2     1.094645779569   120.92050528     1.96153640
 H      6   1   2     1.092501570301   121.42416728   176.75079345
 H      6   1   2     2.020610491669    98.76514986   267.87791754
 Br     9   6   1     1.453231543242   170.06453880   170.49950951

---------------------------
INTERNAL COORDINATES (A.U.)
---------------------------
 C      0   0   0     0.000000000000     0.00000000     0.00000000
 C      1   0   0     2.619522512194     0.00000000     0.00000000
 H      1   2   0     2.073224000013   117.74451514     0.00000000
 H      2   1   3     2.064009191581   121.42051692     1.22181468
 H      2   1   3     2.068207554547   120.95613319   180.99894713
 C      1   2   3     2.633250998954   124.77979300   179.33641992
 H      6   1   2     2.068580737039   120.92050528     1.96153640
 H      6   1   2     2.064528768748   121.42416728   176.75079345
 H      6   1   2     3.818400452582    98.76514986   267.87791754
 Br     9   6   1     2.746209625903   170.06453880   170.49950951

---------------------
BASIS SET INFORMATION
---------------------
There are 3 groups of distinct atoms

 Group   1 Type C   : 7s4p1d contracted to 3s2p1d pattern {511/31/1}
 Group   2 Type H   : 4s1p contracted to 2s1p pattern {31/1}
 Group   3 Type Br  : 14s10p6d contracted to 5s4p3d pattern {63311/5311/411}

Atom   0C    basis set group =>   1
Atom   1C    basis set group =>   1
Atom   2H    basis set group =>   2
Atom   3H    basis set group =>   2
Atom   4H    basis set group =>   2
Atom   5C    basis set group =>   1
Atom   6H    basis set group =>   2
Atom   7H    basis set group =>   2
Atom   8H    basis set group =>   2
Atom   9Br   basis set group =>   3
---------------------------------
AUXILIARY/J BASIS SET INFORMATION
---------------------------------
There are 3 groups of distinct atoms

 Group   1 Type C   : 12s5p4d2f1g contracted to 6s4p3d1f1g pattern {711111/2111/211/2/1}
 Group   2 Type H   : 5s2p1d contracted to 3s1p1d pattern {311/2/1}
 Group   3 Type Br  : 19s5p5d3f1g contracted to 8s4p3d2f1g pattern {121111111/2111/311/21/1}

Atom   0C    basis set group =>   1
Atom   1C    basis set group =>   1
Atom   2H    basis set group =>   2
Atom   3H    basis set group =>   2
Atom   4H    basis set group =>   2
Atom   5C    basis set group =>   1
Atom   6H    basis set group =>   2
Atom   7H    basis set group =>   2
Atom   8H    basis set group =>   2
Atom   9Br   basis set group =>   3


           ************************************************************
           *        Program running with 8 parallel MPI-processes     *
           *              working on a common directory               *
           ************************************************************
------------------------------------------------------------------------------
                             ORCA STARTUP CALCULATIONS
                           -- RI-GTO INTEGRALS CHOSEN --
------------------------------------------------------------------------------
------------------------------------------------------------------------------
                   ___                                                        
                  /   \      - P O W E R E D   B Y -                         
                 /     \                                                     
                 |  |  |   _    _      __       _____    __    __             
                 |  |  |  | |  | |    /  \     |  _  \  |  |  /  |          
                  \  \/   | |  | |   /    \    | | | |  |  | /  /          
                 / \  \   | |__| |  /  /\  \   | |_| |  |  |/  /          
                |  |  |   |  __  | /  /__\  \  |    /   |      \           
                |  |  |   | |  | | |   __   |  |    \   |  |\   \          
                \     /   | |  | | |  |  |  |  | |\  \  |  | \   \       
                 \___/    |_|  |_| |__|  |__|  |_| \__\ |__|  \__/        
                                                                              
                      - O R C A' S   B I G   F R I E N D -                    
                                      &                                       
                       - I N T E G R A L  F E E D E R -                       
                                                                              
 v1 FN, 2020, v2 2021, v3 2022-2024                                           
------------------------------------------------------------------------------


----------------------
SHARK INTEGRAL PACKAGE
----------------------

Number of atoms                             ...     10
Number of basis functions                   ...    104
Number of shells                            ...     48
Maximum angular momentum                    ...      2
Integral batch strategy                     ... SHARK/LIBINT Hybrid
RI-J (if used) integral strategy            ... SPLIT-RIJ (Revised 2003 algorithm where possible)
Printlevel                                  ...      1
Contraction scheme used                     ... SEGMENTED contraction
Prescreening option                         ... SCHWARTZ
   Thresh                                   ... 1.000e-10
   Tcut                                     ... 1.000e-11
   Tpresel                                  ... 1.000e-11 
Coulomb Range Separation                    ... NOT USED
Exchange Range Separation                   ... NOT USED
Multipole approximations                    ... NOT USED
Finite Nucleus Model                        ... NOT USED
CABS basis                                  ... NOT available
Auxiliary Coulomb fitting basis             ... AVAILABLE
   # of basis functions in Aux-J            ...    271
   # of shells in Aux-J                     ...     93
   Maximum angular momentum in Aux-J        ...      4
Auxiliary J/K fitting basis                 ... NOT available
Auxiliary Correlation fitting basis         ... NOT available
Auxiliary 'external' fitting basis          ... NOT available

Checking pre-screening integrals            ... done (  0.0 sec) Dimension = 48
   => SHARK Basis and OBASIS are compatible. Storing Pre-screening
Shell pair information
Shell pair cut-off parameter TPreSel        ...   1.0e-11
Total number of shell pairs                 ...      1176
Shell pairs after pre-screening             ...      1068
Total number of primitive shell pairs       ...      4753
Primitive shell pairs kept                  ...      3227
          la=0 lb=0:    327 shell pairs
          la=1 lb=0:    381 shell pairs
          la=1 lb=1:    124 shell pairs
          la=2 lb=0:    137 shell pairs
          la=2 lb=1:     81 shell pairs
          la=2 lb=2:     18 shell pairs

Checking whether 4 symmetric matrices of dimension 104 fit in memory
:Max Core in MB      =   1200.00
 MB in use           =      4.69
 MB left             =   1195.31
 MB needed           =      0.17
 Data fit in memory  = YES
Calculating RI/J V-Matrix + Cholesky decomp.... done (  0.0 sec)
Calculating Nuclear repulsion               ... done (  0.0 sec) ENN=    187.679582506886 Eh

Diagonalization of the overlap matrix:
Smallest eigenvalue                        ... 2.678e-03
Time for diagonalization                   ...    0.001 sec
Threshold for overlap eigenvalues          ... 1.000e-07
Number of eigenvalues below threshold      ... 0
Time for construction of square roots      ...    0.000 sec
Total time needed                          ...    0.002 sec

-------------------
DFT GRID GENERATION
-------------------

General Integration Accuracy     IntAcc      ... 4.388
Radial Grid Type                 RadialGrid  ... OptM3 with GC (2021)
Angular Grid (max. ang.)         AngularGrid ... 4 (Lebedev-302)
Angular grid pruning method      GridPruning ... 4 (adaptive)
Weight generation scheme         WeightScheme... mBecke (2022)
Basis function cutoff            BFCut       ... 1.0000e-10
Integration weight cutoff        WCut        ... 1.0000e-14
Partially contracted basis set               ... off
Rotationally invariant grid construction     ... off
Angular grids for H and He will be reduced by one unit
Core-polarized basis detected: some atoms will have their core
                               angular grid increased.

Total number of grid points                  ...    49062
Total number of batches                      ...      773
Average number of points per batch           ...       63
Average number of grid points per atom       ...     4906

--------------------
COSX GRID GENERATION
--------------------

GRIDX 1
-------
General Integration Accuracy     IntAcc      ... 3.816
Radial Grid Type                 RadialGrid  ... OptM3 with GC (2021)
Angular Grid (max. ang.)         AngularGrid ... 1 (Lebedev-50)
Angular grid pruning method      GridPruning ... 4 (adaptive)
Weight generation scheme         WeightScheme... mBecke (2022)
Basis function cutoff            BFCut       ... 1.0000e-10
Integration weight cutoff        WCut        ... 1.0000e-14
Partially contracted basis set               ... on
Rotationally invariant grid construction     ... off
Angular grids for H and He will be reduced by one unit
Core-polarized basis detected: some atoms will have their core
                               angular grid increased.

Total number of grid points                  ...    11080
Total number of batches                      ...       91
Average number of points per batch           ...      121
Average number of grid points per atom       ...     1108
UseSFitting                                  ... on

GRIDX 2
-------
General Integration Accuracy     IntAcc      ... 4.020
Radial Grid Type                 RadialGrid  ... OptM3 with GC (2021)
Angular Grid (max. ang.)         AngularGrid ... 2 (Lebedev-110)
Angular grid pruning method      GridPruning ... 4 (adaptive)
Weight generation scheme         WeightScheme... mBecke (2022)
Basis function cutoff            BFCut       ... 1.0000e-10
Integration weight cutoff        WCut        ... 1.0000e-14
Partially contracted basis set               ... on
Rotationally invariant grid construction     ... off
Angular grids for H and He will be reduced by one unit
Core-polarized basis detected: some atoms will have their core
                               angular grid increased.

Total number of grid points                  ...    16418
Total number of batches                      ...      132
Average number of points per batch           ...      124
Average number of grid points per atom       ...     1642
UseSFitting                                  ... on

GRIDX 3
-------
General Integration Accuracy     IntAcc      ... 4.338
Radial Grid Type                 RadialGrid  ... OptM3 with GC (2021)
Angular Grid (max. ang.)         AngularGrid ... 3 (Lebedev-194)
Angular grid pruning method      GridPruning ... 4 (adaptive)
Weight generation scheme         WeightScheme... mBecke (2022)
Basis function cutoff            BFCut       ... 1.0000e-10
Integration weight cutoff        WCut        ... 1.0000e-14
Partially contracted basis set               ... on
Rotationally invariant grid construction     ... off
Angular grids for H and He will be reduced by one unit
Core-polarized basis detected: some atoms will have their core
                               angular grid increased.

Total number of grid points                  ...    28592
Total number of batches                      ...      229
Average number of points per batch           ...      124
Average number of grid points per atom       ...     2859
UseSFitting                                  ... on
Grids setup in   0.4 sec
Initializing property integral containers    ... done (  0.0 sec)

SHARK setup successfully completed in   0.5 seconds

Maximum memory used throughout the entire STARTUP-calculation: 17.5 MB


           ************************************************************
           *        Program running with 8 parallel MPI-processes     *
           *              working on a common directory               *
           ************************************************************
-------------------------------------------------------------------------------
                                 ORCA GUESS
                   Start orbitals & Density for SCF / CASSCF
-------------------------------------------------------------------------------

------------
SCF SETTINGS
------------
Hamiltonian:
 Density Functional     Method          .... DFT(GTOs)
 Exchange Functional    Exchange        .... B88
   X-Alpha parameter    XAlpha          ....  0.666667
   Becke's b parameter  XBeta           ....  0.004200
 Correlation Functional Correlation     .... LYP
 LDA part of GGA corr.  LDAOpt          .... VWN-5
 Gradients option       PostSCFGGA      .... off
 Hybrid DFT is turned on
   Fraction HF Exchange ScalHFX         ....  0.200000
   Scaling of DF-GGA-X  ScalDFX         ....  0.720000
   Scaling of DF-GGA-C  ScalDFC         ....  0.810000
   Scaling of DF-LDA-C  ScalLDAC        ....  1.000000
   Perturbative correction              ....  0.000000
   NL short-range parameter             ....  4.800000
 RI-approximation to the Coulomb term is turned on
   Number of AuxJ basis functions       .... 271
   RIJ-COSX (HFX calculated with COS-X)).... on


General Settings:
 Integral files         IntName         .... radical_042
 Hartree-Fock type      HFTyp           .... UHF
 Total Charge           Charge          ....    0
 Multiplicity           Mult            ....    2
 Number of Electrons    NEL             ....   59
 Basis Dimension        Dim             ....  104
 Nuclear Repulsion      ENuc            ....    187.6795825069 Eh

Convergence Acceleration:
 AO-DIIS                CNVDIIS         .... on
   Start iteration      DIISMaxIt       ....    12
   Startup error        DIISStart       ....  0.200000
   # of expansion vecs  DIISMaxEq       ....     5
   Bias factor          DIISBfac        ....   1.050
   Max. coefficient     DIISMaxC        ....  10.000
 MO-DIIS                CNVKDIIS        .... off
 Trust-Rad. Augm. Hess. CNVTRAH         .... auto
   Auto Start mean grad. ratio tolernc. ....  1.125000
   Auto Start start iteration           ....    50
   Auto Start num. interpolation iter.  ....    10
   Max. Number of Micro iterations      ....    24
   Max. Number of Macro iterations      .... Maxiter - #DIIS iter
   Number of Davidson start vectors     ....     2
   Converg. threshold    (grad. norm)   ....   5.000e-05
   Grad. Scal. Fac. for Micro threshold ....   0.100
   Minimum threshold for Micro iter.    ....   1.000e-02
   NR start threshold (gradient norm)   ....   1.000e-04
   Initial trust radius                 ....   0.400
   Minimum AH scaling param. (alpha)    ....   1.000
   Maximum AH scaling param. (alpha)    .... 1000.000
   Quad. conv. algorithm                .... NR
   White noise on init. David. guess    .... on
   Maximum white noise                  ....   0.010
   Pseudo random numbers                .... off
   Inactive MOs                         .... canonical
   Orbital update algorithm             .... Taylor
   Preconditioner                       .... Diag
   Full preconditioner red. dimension   ....   250
 SOSCF                 CNVSOSCF           .... on
   Start iteration     SOSCFMaxIt         ....   150
   Startup grad/error  SOSCFStart         ....  0.003300
   Hessian update      SOSCFHessUp        .... L-BFGS
   Autom. constraints  SOSCFAutoConstrain .... off
 Level Shifting         CNVShift        .... on
   Level shift para.    LevelShift      ....    0.2500
   Turn off err/grad.   ShiftErr        ....    0.0010
 Zerner damping         CNVZerner       .... off
 Static damping         CNVDamp         .... on
   Fraction old density DampFac         ....    0.7000
   Max. Damping (<1)    DampMax         ....    0.9800
   Min. Damping (>=0)   DampMin         ....    0.0000
   Turn off err/grad.   DampErr         ....    0.1000

SCF Procedure:
 Maximum # iterations   MaxIter         ....   125
 SCF integral mode      SCFMode         .... Direct
   Integral package                     .... SHARK and LIBINT hybrid scheme
 Reset frequency        DirectResetFreq ....    20
 Integral Threshold     Thresh          ....  1.000e-10 Eh
 Primitive CutOff       TCut            ....  1.000e-11 Eh

Convergence Tolerance:
 Convergence Check Mode ConvCheckMode   .... Total+1el-Energy
 Convergence forced     ConvForced      .... 0
 Energy Change          TolE            ....  1.000e-06 Eh
 1-El. energy change                    ....  1.000e-03 Eh
 Orbital Gradient       TolG            ....  5.000e-05
 Orbital Rotation angle TolX            ....  5.000e-05
 DIIS Error             TolErr          ....  1.000e-06

------------------------------
INITIAL GUESS: MODEL POTENTIAL
------------------------------
Loading Hartree-Fock densities                     ... done
Calculating cut-offs                               ... done
Initializing the effective Hamiltonian             ... done
Setting up the integral package (SHARK)            ... done
Starting the Coulomb interaction                   ... done (   0.0 sec)
Making the grid                                    ... done (   0.1 sec)
Mapping shells                                     ... done
Starting the XC term evaluation                    ... done (   0.0 sec)
  promolecular density results
     # of electrons  =     58.997556062
     EX              =   -106.836987659
     EC              =     -2.446618255
     EX+EC           =   -109.283605914
Transforming the Hamiltonian                       ... done (   0.0 sec)
Diagonalizing the Hamiltonian                      ... done (   0.0 sec)
Back transforming the eigenvectors                 ... done (   0.0 sec)
Now organizing SCF variables                       ... done
                      ------------------
                      INITIAL GUESS DONE (   0.1 sec)
                      ------------------
             **** ENERGY FILE WAS UPDATED (radical_042.en.tmp) ****
Finished Guess after   0.4 sec
Maximum memory used throughout the entire GUESS-calculation: 8.8 MB


           ************************************************************
           *        Program running with 8 parallel MPI-processes     *
           *              working on a common directory               *
           ************************************************************

-------------------------------------------------------------------------------------------
                                      ORCA LEAN-SCF
                              memory conserving SCF solver
-------------------------------------------------------------------------------------------

----------------------------------------D-I-I-S--------------------------------------------
Iteration    Energy (Eh)           Delta-E    RMSDP     MaxDP     DIISErr   Damp  Time(sec)
-------------------------------------------------------------------------------------------
               ***  Starting incremental Fock matrix formation  ***
    1    -2691.3403991024533752     0.00e+00  4.14e-03  3.04e-02  6.90e-02  0.700   0.3
    2    -2691.3775737806877260    -3.72e-02  3.07e-03  2.05e-02  3.87e-02  0.700   0.2
                               ***Turning on AO-DIIS***
    3    -2691.3945239891318124    -1.70e-02  1.38e-03  9.57e-03  1.70e-02  0.700   0.2
    4    -2691.4043610592416371    -9.84e-03  2.73e-03  1.93e-02  1.09e-02  0.000   0.2
    5    -2691.4258741728663153    -2.15e-02  5.17e-04  4.45e-03  3.61e-03  0.000   0.2
                              *** Initializing SOSCF ***
---------------------------------------S-O-S-C-F--------------------------------------
Iteration    Energy (Eh)           Delta-E    RMSDP     MaxDP     MaxGrad    Time(sec)
--------------------------------------------------------------------------------------
    6    -2691.4261402030842874    -2.66e-04  3.60e-04  4.47e-03  2.48e-03     0.2
               *** Restarting incremental Fock matrix formation ***
    7    -2691.4261973278903497    -5.71e-05  3.04e-04  3.30e-03  2.45e-03     0.2
    8    -2691.4262443644943232    -4.70e-05  3.28e-04  4.45e-03  1.61e-03     0.2
    9    -2691.4262576552305291    -1.33e-05  1.21e-04  1.25e-03  1.09e-03     0.2
   10    -2691.4262633220077987    -5.67e-06  2.47e-05  1.96e-04  6.38e-05     0.2
   11    -2691.4262633214798370     5.28e-10  1.26e-05  1.14e-04  9.05e-05     0.2
                 **** Energy Check signals convergence ****

               *****************************************************
               *                     SUCCESS                       *
               *           SCF CONVERGED AFTER  11 CYCLES          *
               *****************************************************

Recomputing exchange energy using gridx3       ... done (    0.244 sec)
Old exchange energy                            :    -21.430126000 Eh
New exchange energy                            :    -21.430128638 Eh
Exchange energy change after final integration :     -0.000002639 Eh
Total energy after final integration           :  -2691.426266091 Eh
             **** ENERGY FILE WAS UPDATED (radical_042.en.tmp) ****

----------------
TOTAL SCF ENERGY
----------------

Total Energy       :      -2691.42626609095032 Eh          -73237.43202 eV

Components:
Nuclear Repulsion  :        187.67958250688605 Eh            5107.02108 eV
Electronic Energy  :      -2879.10584595903401 Eh          -78344.45302 eV
One Electron Energy:      -4112.51495056599015 Eh         -111907.22106 eV
Two Electron Energy:       1233.40910460695613 Eh           33562.76803 eV

Virial components:
Potential Energy   :      -5378.49208000744511 Eh         -146356.21010 eV
Kinetic Energy     :       2687.06581391649433 Eh           73118.77808 eV
Virial Ratio       :          2.00162275600094

DFT components:
N(Alpha)           :       29.999988599999 electrons
N(Beta)            :       28.999987442580 electrons
N(Total)           :       58.999976042579 electrons
E(X)               :      -85.240948444446 Eh       
E(C)               :       -2.869551405911 Eh       
E(XC)              :      -88.110499850356 Eh       

---------------
SCF CONVERGENCE
---------------

  Last Energy change         ...   -5.2796e-10  Tolerance :   1.0000e-06
  Last MAX-Density change    ...    1.1364e-04  Tolerance :   1.0000e-05
  Last RMS-Density change    ...    1.2620e-05  Tolerance :   1.0000e-06
  Last DIIS Error            ...    2.4753e-03  Tolerance :   1.0000e-06
  Last Orbital Gradient      ...    9.0517e-05  Tolerance :   5.0000e-05
  Last Orbital Rotation      ...    2.0333e-04  Tolerance :   5.0000e-05


----------------------
UHF SPIN CONTAMINATION
----------------------

Warning: in a DFT calculation there is little theoretical justification to 
         calculate <S**2> as in Hartree-Fock theory. We will do it anyways
         but you should keep in mind that the values have only limited relevance

Expectation value of <S**2>     :     0.778821
Ideal value S*(S+1) for S=0.5   :     0.750000
Deviation                       :     0.028821

----------------
ORBITAL ENERGIES
----------------
                 SPIN UP ORBITALS
  NO   OCC          E(Eh)            E(eV) 
   0   1.0000    -482.769770    -13136.8333 
   1   1.0000     -62.452839     -1699.4281 
   2   1.0000     -56.284604     -1531.5819 
   3   1.0000     -56.282425     -1531.5226 
   4   1.0000     -56.282403     -1531.5221 
   5   1.0000     -10.213706      -277.9291 
   6   1.0000     -10.212245      -277.8893 
   7   1.0000     -10.211846      -277.8785 
   8   1.0000      -8.670755      -235.9432 
   9   1.0000      -6.503600      -176.9719 
  10   1.0000      -6.491685      -176.6477 
  11   1.0000      -6.491653      -176.6468 
  12   1.0000      -2.618036       -71.2404 
  13   1.0000      -2.614496       -71.1440 
  14   1.0000      -2.614464       -71.1432 
  15   1.0000      -2.605009       -70.8859 
  16   1.0000      -2.605005       -70.8858 
  17   1.0000      -0.804195       -21.8833 
  18   1.0000      -0.763792       -20.7838 
  19   1.0000      -0.690890       -18.8001 
  20   1.0000      -0.566973       -15.4281 
  21   1.0000      -0.493303       -13.4235 
  22   1.0000      -0.453239       -12.3333 
  23   1.0000      -0.424580       -11.5534 
  24   1.0000      -0.402119       -10.9422 
  25   1.0000      -0.376104       -10.2343 
  26   1.0000      -0.336133        -9.1466 
  27   1.0000      -0.279363        -7.6018 
  28   1.0000      -0.279219        -7.5979 
  29   1.0000      -0.220104        -5.9893 
  30   0.0000       0.006828         0.1858 
  31   0.0000       0.060307         1.6410 
  32   0.0000       0.070011         1.9051 
  33   0.0000       0.082014         2.2317 
  34   0.0000       0.098874         2.6905 
  35   0.0000       0.143685         3.9099 
  36   0.0000       0.146517         3.9869 
  37   0.0000       0.264784         7.2051 
  38   0.0000       0.308358         8.3908 
  39   0.0000       0.337591         9.1863 
  40   0.0000       0.371363        10.1053 

                 SPIN DOWN ORBITALS
  NO   OCC          E(Eh)            E(eV) 
   0   1.0000    -482.769604    -13136.8288 
   1   1.0000     -62.452752     -1699.4258 
   2   1.0000     -56.284265     -1531.5727 
   3   1.0000     -56.282359     -1531.5209 
   4   1.0000     -56.282337     -1531.5203 
   5   1.0000     -10.215438      -277.9762 
   6   1.0000     -10.204874      -277.6887 
   7   1.0000     -10.202881      -277.6345 
   8   1.0000      -8.670508      -235.9365 
   9   1.0000      -6.502945      -176.9541 
  10   1.0000      -6.491569      -176.6446 
  11   1.0000      -6.491537      -176.6437 
  12   1.0000      -2.617577       -71.2279 
  13   1.0000      -2.614128       -71.1340 
  14   1.0000      -2.614097       -71.1332 
  15   1.0000      -2.604941       -70.8840 
  16   1.0000      -2.604937       -70.8840 
  17   1.0000      -0.794010       -21.6061 
  18   1.0000      -0.761434       -20.7197 
  19   1.0000      -0.667237       -18.1564 
  20   1.0000      -0.560405       -15.2494 
  21   1.0000      -0.488446       -13.2913 
  22   1.0000      -0.447395       -12.1742 
  23   1.0000      -0.418086       -11.3767 
  24   1.0000      -0.396292       -10.7836 
  25   1.0000      -0.373486       -10.1631 
  26   1.0000      -0.308199        -8.3865 
  27   1.0000      -0.278556        -7.5799 
  28   1.0000      -0.278361        -7.5746 
  29   0.0000      -0.106444        -2.8965 
  30   0.0000       0.023551         0.6409 
  31   0.0000       0.065144         1.7727 
  32   0.0000       0.083045         2.2598 
  33   0.0000       0.089614         2.4385 
  34   0.0000       0.105229         2.8634 
  35   0.0000       0.146959         3.9990 
  36   0.0000       0.148443         4.0393 
  37   0.0000       0.265242         7.2176 
  38   0.0000       0.310772         8.4565 
  39   0.0000       0.341949         9.3049 
*Only the first 10 virtual orbitals were printed.

                    ********************************
                    * MULLIKEN POPULATION ANALYSIS *
                    ********************************

--------------------------------------------
MULLIKEN ATOMIC CHARGES AND SPIN POPULATIONS
--------------------------------------------
   0 C :   -0.045608   -0.269975
   1 C :   -0.009014    0.684608
   2 H :    0.015027    0.009485
   3 H :    0.038531   -0.032067
   4 H :    0.031820   -0.029771
   5 C :   -0.055964    0.647593
   6 H :    0.043235   -0.027633
   7 H :    0.047146   -0.029394
   8 H :    0.108932   -0.003050
   9 Br:   -0.174104    0.050205
Sum of atomic charges         :   -0.0000000
Sum of atomic spin populations:    1.0000000

-----------------------------------------------------
MULLIKEN REDUCED ORBITAL CHARGES AND SPIN POPULATIONS
-----------------------------------------------------
CHARGE
  0 C s       :     3.139207  s :     3.139207
      pz      :     0.954287  p :     2.869210
      px      :     0.952299
      py      :     0.962624
      dz2     :     0.009098  d :     0.037191
      dxz     :     0.012361
      dyz     :     0.006102
      dx2y2   :     0.004995
      dxy     :     0.004636

  1 C s       :     3.134191  s :     3.134191
      pz      :     0.956988  p :     2.850301
      px      :     0.935604
      py      :     0.957709
      dz2     :     0.006392  d :     0.024522
      dxz     :     0.009596
      dyz     :     0.004210
      dx2y2   :     0.003045
      dxy     :     0.001279

  2 H s       :     0.962525  s :     0.962525
      pz      :     0.006084  p :     0.022448
      px      :     0.011824
      py      :     0.004540

  3 H s       :     0.937995  s :     0.937995
      pz      :     0.006239  p :     0.023474
      px      :     0.012393
      py      :     0.004842

  4 H s       :     0.944875  s :     0.944875
      pz      :     0.006884  p :     0.023306
      px      :     0.011259
      py      :     0.005162

  5 C s       :     3.132946  s :     3.132946
      pz      :     0.954442  p :     2.898378
      px      :     0.959540
      py      :     0.984396
      dz2     :     0.006155  d :     0.024640
      dxz     :     0.007518
      dyz     :     0.002474
      dx2y2   :     0.004933
      dxy     :     0.003560

  6 H s       :     0.933496  s :     0.933496
      pz      :     0.006027  p :     0.023269
      px      :     0.012394
      py      :     0.004848

  7 H s       :     0.929309  s :     0.929309
      pz      :     0.013226  p :     0.023544
      px      :     0.003761
      py      :     0.006557

  8 H s       :     0.853209  s :     0.853209
      pz      :     0.010844  p :     0.037859
      px      :     0.007601
      py      :     0.019415

  9 Brs       :     7.940991  s :     7.940991
      pz      :     5.814335  p :    17.214528
      px      :     5.952603
      py      :     5.447589
      dz2     :     2.000878  d :    10.018586
      dxz     :     2.000733
      dyz     :     2.008654
      dx2y2   :     2.006084
      dxy     :     2.002236


SPIN
  0 C s       :    -0.037637  s :    -0.037637
      pz      :    -0.054063  p :    -0.241210
      px      :    -0.023963
      py      :    -0.163184
      dz2     :     0.001996  d :     0.008873
      dxz     :     0.000224
      dyz     :     0.003963
      dx2y2   :     0.000635
      dxy     :     0.002055

  1 C s       :     0.068223  s :     0.068223
      pz      :     0.077709  p :     0.618683
      px      :     0.031075
      py      :     0.509899
      dz2     :    -0.000439  d :    -0.002297
      dxz     :    -0.000022
      dyz     :    -0.000891
      dx2y2   :    -0.000933
      dxy     :    -0.000012

  2 H s       :     0.010428  s :     0.010428
      pz      :    -0.000133  p :    -0.000943
      px      :    -0.000058
      py      :    -0.000752

  3 H s       :    -0.035376  s :    -0.035376
      pz      :     0.000307  p :     0.003309
      px      :     0.000185
      py      :     0.002817

  4 H s       :    -0.032713  s :    -0.032713
      pz      :     0.000272  p :     0.002942
      px      :     0.000151
      py      :     0.002520

  5 C s       :     0.061501  s :     0.061501
      pz      :     0.087605  p :     0.588349
      px      :     0.023032
      py      :     0.477712
      dz2     :    -0.000210  d :    -0.002258
      dxz     :    -0.000123
      dyz     :    -0.000612
      dx2y2   :    -0.000798
      dxy     :    -0.000516

  6 H s       :    -0.030355  s :    -0.030355
      pz      :     0.000281  p :     0.002721
      px      :     0.000103
      py      :     0.002337

  7 H s       :    -0.032485  s :    -0.032485
      pz      :     0.000677  p :     0.003091
      px      :    -0.000078
      py      :     0.002492

  8 H s       :    -0.006178  s :    -0.006178
      pz      :     0.000582  p :     0.003128
      px      :     0.000017
      py      :     0.002529

  9 Brs       :    -0.000070  s :    -0.000070
      pz      :     0.009550  p :     0.050529
      px      :     0.000750
      py      :     0.040229
      dz2     :     0.000003  d :    -0.000254
      dxz     :    -0.000009
      dyz     :    -0.000140
      dx2y2   :    -0.000091
      dxy     :    -0.000017



                     *******************************
                     * LOEWDIN POPULATION ANALYSIS *
                     *******************************

-------------------------------------------
LOEWDIN ATOMIC CHARGES AND SPIN POPULATIONS
-------------------------------------------
   0 C :   -0.044417   -0.150846
   1 C :   -0.006368    0.569665
   2 H :    0.034497    0.000598
   3 H :    0.027575   -0.001863
   4 H :    0.025815   -0.002065
   5 C :   -0.044000    0.528573
   6 H :    0.027301   -0.001000
   7 H :    0.029246   -0.000708
   8 H :    0.021646    0.011412
   9 Br:   -0.071296    0.046234

----------------------------------------------------
LOEWDIN REDUCED ORBITAL CHARGES AND SPIN POPULATIONS
----------------------------------------------------
CHARGE
  0 C s       :     2.872856  s :     2.872856
      pz      :     1.059605  p :     3.074966
      px      :     1.062115
      py      :     0.953247
      dz2     :     0.024756  d :     0.096595
      dxz     :     0.033526
      dyz     :     0.014589
      dx2y2   :     0.012989
      dxy     :     0.010734

  1 C s       :     2.903112  s :     2.903112
      pz      :     1.042518  p :     3.040542
      px      :     1.049509
      py      :     0.948514
      dz2     :     0.016997  d :     0.062714
      dxz     :     0.025441
      dyz     :     0.009477
      dx2y2   :     0.007496
      dxy     :     0.003303

  2 H s       :     0.900953  s :     0.900953
      pz      :     0.017503  p :     0.064549
      px      :     0.033436
      py      :     0.013610

  3 H s       :     0.902844  s :     0.902844
      pz      :     0.017402  p :     0.069580
      px      :     0.036476
      py      :     0.015703

  4 H s       :     0.905111  s :     0.905111
      pz      :     0.019222  p :     0.069074
      px      :     0.033211
      py      :     0.016641

  5 C s       :     2.907620  s :     2.907620
      pz      :     1.040175  p :     3.073783
      px      :     1.058704
      py      :     0.974905
      dz2     :     0.015567  d :     0.062597
      dxz     :     0.020751
      dyz     :     0.005841
      dx2y2   :     0.012911
      dxy     :     0.007526

  6 H s       :     0.902274  s :     0.902274
      pz      :     0.017809  p :     0.070425
      px      :     0.036070
      py      :     0.016547

  7 H s       :     0.899689  s :     0.899689
      pz      :     0.039359  p :     0.071065
      px      :     0.010432
      py      :     0.021274

  8 H s       :     0.876484  s :     0.876484
      pz      :     0.028525  p :     0.101870
      px      :     0.019108
      py      :     0.054237

  9 Brs       :     7.824583  s :     7.824583
      pz      :     5.813211  p :    17.216640
      px      :     5.946921
      py      :     5.456507
      dz2     :     2.000963  d :    10.030073
      dxz     :     2.001039
      dyz     :     2.014706
      dx2y2   :     2.010151
      dxy     :     2.003214


SPIN
  0 C s       :    -0.009488  s :    -0.009488
      pz      :    -0.025552  p :    -0.162964
      px      :    -0.008404
      py      :    -0.129008
      dz2     :     0.005019  d :     0.021606
      dxz     :     0.001127
      dyz     :     0.008967
      dx2y2   :     0.001421
      dxy     :     0.005071

  1 C s       :     0.018828  s :     0.018828
      pz      :     0.067488  p :     0.555545
      px      :     0.013386
      py      :     0.474671
      dz2     :    -0.001149  d :    -0.004708
      dxz     :    -0.000681
      dyz     :    -0.001678
      dx2y2   :    -0.001119
      dxy     :    -0.000082

  2 H s       :     0.004760  s :     0.004760
      pz      :    -0.000677  p :    -0.004163
      px      :    -0.000546
      py      :    -0.002939

  3 H s       :    -0.015823  s :    -0.015823
      pz      :     0.001821  p :     0.013960
      px      :     0.001684
      py      :     0.010456

  4 H s       :    -0.015166  s :    -0.015166
      pz      :     0.001844  p :     0.013102
      px      :     0.001451
      py      :     0.009806

  5 C s       :     0.017747  s :     0.017747
      pz      :     0.070689  p :     0.515327
      px      :     0.011695
      py      :     0.432944
      dz2     :    -0.000655  d :    -0.004502
      dxz     :    -0.000744
      dyz     :    -0.000805
      dx2y2   :    -0.000986
      dxy     :    -0.001312

  6 H s       :    -0.014184  s :    -0.014184
      pz      :     0.001848  p :     0.013185
      px      :     0.001551
      py      :     0.009786

  7 H s       :    -0.014756  s :    -0.014756
      pz      :     0.003230  p :     0.014049
      px      :     0.000218
      py      :     0.010601

  8 H s       :    -0.000703  s :    -0.000703
      pz      :     0.002493  p :     0.012115
      px      :     0.000193
      py      :     0.009429

  9 Brs       :     0.000335  s :     0.000335
      pz      :     0.008620  p :     0.045899
      px      :     0.000636
      py      :     0.036643
      dz2     :     0.000014  d :    -0.000000
      dxz     :    -0.000015
      dyz     :    -0.000015
      dx2y2   :     0.000038
      dxy     :    -0.000022



                      *****************************
                      * MAYER POPULATION ANALYSIS *
                      *****************************

  NA   - Mulliken gross atomic population
  ZA   - Total nuclear charge
  QA   - Mulliken gross atomic charge
  VA   - Mayer's total valence
  BVA  - Mayer's bonded valence
  FA   - Mayer's free valence

  ATOM       NA         ZA         QA         VA         BVA        FA
  0 C      6.0456     6.0000    -0.0456     4.1156     4.0813     0.0343
  1 C      6.0090     6.0000    -0.0090     3.9182     3.5855     0.3327
  2 H      0.9850     1.0000     0.0150     0.9786     0.9785     0.0001
  3 H      0.9615     1.0000     0.0385     0.9765     0.9752     0.0013
  4 H      0.9682     1.0000     0.0318     0.9851     0.9840     0.0011
  5 C      6.0560     6.0000    -0.0560     3.9118     3.6123     0.2995
  6 H      0.9568     1.0000     0.0432     0.9858     0.9849     0.0009
  7 H      0.9529     1.0000     0.0471     0.9776     0.9765     0.0011
  8 H      0.8911     1.0000     0.1089     1.0362     1.0360     0.0001
  9 Br    35.1741    35.0000    -0.1741     0.9651     0.9625     0.0026

  Mayer bond orders larger than 0.100000
B(  0-C ,  1-C ) :   1.5440 B(  0-C ,  2-H ) :   0.9630 B(  0-C ,  5-C ) :   1.4804 
B(  1-C ,  3-H ) :   0.9562 B(  1-C ,  4-H ) :   0.9597 B(  1-C ,  5-C ) :   0.1124 
B(  5-C ,  6-H ) :   0.9563 B(  5-C ,  7-H ) :   0.9490 B(  5-C ,  8-H ) :   0.1031 
B(  8-H ,  9-Br) :   0.9023 

-------
TIMINGS
-------

Total SCF time: 0 days 0 hours 0 min 2 sec 

Total time                  ....       2.833 sec
Sum of individual times     ....       2.652 sec  ( 93.6%)

SCF preparation             ....       0.309 sec  ( 10.9%)
Fock matrix formation       ....       2.183 sec  ( 77.1%)
  Startup                   ....       0.004 sec  (  0.2% of F)
  Split-RI-J                ....       0.131 sec  (  6.0% of F)
  Chain of spheres X        ....       1.622 sec  ( 74.3% of F)
  XC integration            ....       0.462 sec  ( 21.2% of F)
    XC Preparation          ....       0.000 sec  (  0.0% of XC)
    Basis function eval.    ....       0.104 sec  ( 22.4% of XC)
    Density eval.           ....       0.088 sec  ( 19.1% of XC)
    XC-Functional eval.     ....       0.036 sec  (  7.8% of XC)
    XC-Potential eval.      ....       0.115 sec  ( 24.8% of XC)
Diagonalization             ....       0.000 sec  (  0.0%)
Density matrix formation    ....       0.024 sec  (  0.9%)
Total Energy calculation    ....       0.012 sec  (  0.4%)
Population analysis         ....       0.009 sec  (  0.3%)
Orbital Transformation      ....       0.014 sec  (  0.5%)
Orbital Orthonormalization  ....       0.000 sec  (  0.0%)
DIIS solution               ....       0.061 sec  (  2.2%)
SOSCF solution              ....       0.040 sec  (  1.4%)
Finished LeanSCF after   2.8 sec

Maximum memory used throughout the entire LEANSCF-calculation: 9.1 MB

-------------------------   --------------------
FINAL SINGLE POINT ENERGY     -2691.426266090950
-------------------------   --------------------



           ************************************************************
           *        Program running with 8 parallel MPI-processes     *
           *              working on a common directory               *
           ************************************************************

------------------------------------------------------------------------------
                              ORCA PROPERTY CALCULATIONS
------------------------------------------------------------------------------

GBWName                                 ... radical_042.gbw
Number of atoms                         ...     10
Number of basis functions               ...    104
Max core memory                         ...   1200 MB

Electric properties:
Dipole moment                           ... YES
Quadrupole moment                       ...  NO
Static polarizability (Dipole/Dipole)   ...  NO
Static polarizability (Dipole/Quad.)    ...  NO
Static polarizability (Quad./Quad.)     ...  NO
Static polarizability (Velocity)        ...  NO
Static hyperpolarizability              ...  NO

Atomic electric properties:
Dipole moment                           ...  NO
Quadrupole moment                       ...  NO
Static polarizability                   ...  NO

Choice of electric origin               ... Center of mass
Position of electric origin             ...    -1.084903    -2.678022    -2.350126

General magnetic properties:
Magnetizability                         ...  NO

EPR properties:
g-Tensor (aka g-matrix)                 ...  NO
Zero-Field splitting spin-orbit         ...  NO
Zero-field splitting spin-spin          ...  NO
Hyperfine couplings                     ...  NO (   0 nuclei)
Quadrupole couplings                    ...  NO (   0 nuclei)
Contact density                         ...  NO (   0 nuclei)

NMR properties:
Chemical shifts                         ...  NO (   0 nuclei)
Spin-rotation constants                 ...  NO (   0 nuclei)
Spin-spin couplings                     ...  NO (   0 nuclei,    0 pairs)

Choice of magnetic origin               ... GIAO
Position of magnetic origin             ...     0.000000     0.000000     0.000000

Properties with geometric perturbations:
SCF Hessian                             ...  NO
IR spectrum                             ...  NO
VCD spectrum                            ...  NO
X-ray spectroscopy properties:
SCF XES/XAS/RIXS spectra                ...  NO

SCF SOC stabilization energy            ...  NO
Diagonal Born-Oppenheimer correction    ...  NO

-------------
DIPOLE MOMENT
-------------

Method             : SCF
Type of density    : Electron Density
Multiplicity       :   2
Irrep              :   0
Energy             : -2691.4262660909503211 Eh
Basis              : AO
                                X                 Y                 Z
Electronic contribution:     -7.054753671     -16.956408378     -15.068447798
Nuclear contribution   :      7.333340010      17.638044512      15.601469601
                        -----------------------------------------
Total Dipole Moment    :      0.278586339       0.681636134       0.533021803
                        -----------------------------------------
Magnitude (a.u.)       :      0.909038179
Magnitude (Debye)      :      2.310591424



--------------------
Rotational spectrum 
--------------------
 
Rotational constants in cm-1:             0.371133             0.038173             0.035965 
Rotational constants in MHz :         11126.281467          1144.400841          1078.194149 

Dipole components along the rotational axes: 
x,y,z [a.u.] :    -0.902960    -0.103955     0.014392 
x,y,z [Debye]:    -2.295142    -0.264233     0.036581 

 

Dipole moment calculation done in   0.0 sec 

Maximum memory used throughout the entire PROP-calculation: 5.2 MB

--------------------------------
SUGGESTED CITATIONS FOR THIS RUN
--------------------------------

Below you find a list of papers that are relevant to this ORCA run
We neither can nor want to force you to cite these papers, but we appreciate if you do
You receive ORCA, which is the product of decades of hard work by many enthusiastic individuals, for free
The only thing we kindly ask in return is that you cite our papers,
We deeply appreciate it, if you show your appreciation for ORCA by not just citing the generic ORCA reference.

Please note that relegating all ORCA citations to the supporting information does *not* help us.
SI sections are not indexed - citations you put there will not count into any citation statistics
But we need these citations in order to attract the funding resources that allow us to do what we are doing

Therefore, if you are a happy ORCA user, please consider citing a few of the papers listed below in the main body of your paper

In addition to the list printed below, the program has created the file radical_042.bibtex that contains the list in bibtex format
You can import this file easily into all common literature databanks and citation aid programs


List of essential papers. We consider these as the minimum necessary citations

  1. Neese, F.
     Software update: the ORCA program system, version 6.0
     WIRES Comput. Molec. Sci. 2025 15(1), e70019
     doi.org/10.1002/wcms.7019

List of papers to cite with high priority. The work reported in these papers was absolutely
necessary for this run to complete.
Our perspective: the developers of density functionals and basis sets usually get cited in chemistry papers
Good! But without the algorithms to do something with them, the functionals or basis sets would not do anything.
Hence, in our opinion, the algorithm design and method developments papers are equally worthy of getting cited

  1. Neese, F.
     An improvement of the resolution of the identity approximation for the formation of the Coulomb matrix
     J. Comp. Chem. 2003 24(14), 1740-1747
     doi.org/10.1002/jcc.10318
  2. Neese, F.; Wennmohs, F.; Hansen, A.; Becker, U.
     Efficient, approximate and parallel Hartree-Fock and hybrid DFT calculations. A 'chain-of-spheres' algorithm for the Hartree-Fock exchange
     Chem. Phys. 2009 356(1-3), 98-109
     doi.org/10.1016/j.chemphys.2008.10.036
  3. Helmich-Paris, B.; de Souza, B.; Neese, F.; Izsák, R.
     An improved chain of spheres for exchange algorithm
     J. Chem. Phys. 2021 155(10), 104109
     doi.org/10.1063/5.0058766
  4. Neese, F.
     The SHARK Integral Generation and Digestion System
     J. Comp. Chem. 2022 44(3), 381
     doi.org/10.1002/jcc.26942

List of suggested additional citations. These are papers that are important in the 'surrounding' of 
of this run, or papers that preceded the highly important papers. If you like your results we are grateful for a citation.

  1. Izsak, R.; Neese, F.
     An overlap fitted chain of spheres exchange method
     J. Chem. Phys. 2011 135 , 144105
     doi.org/10.1063/1.3646921
  2. Izsak, R.; Hansen, A.; Neese, F.
     The resolution of identity and chain of spheres approximations for the LPNO-CCSD singles Fock term
     Molec. Phys. 2012 110 , 2413-2417
     doi.org/10.1080/00268976.2012.687466
  3. Neese, F.
     The ORCA program system
     WIRES Comput. Molec. Sci. 2012 2(1), 73-78
     doi.org/10.1002/wcms.81
  4. Izsak, R.; Neese, F.; Klopper, W.
     Robust fitting techniques in the chain of spheres approximation to the Fock exchange: The role of the complementary space
     J. Chem. Phys. 2013 139 , 
     doi.org/10.1063/1.4819264
  5. Neese, F.
     Software update: the ORCA program system, version 4.0
     WIRES Comput. Molec. Sci. 2018 8(1), 1-6
     doi.org/10.1002/wcms.1327
  6. Neese, F.; Wennmohs, F.; Becker, U.; Riplinger, C.
     The ORCA quantum chemistry program package
     J. Chem. Phys. 2020 152(22), 224108
     doi.org/10.1063/5.0004608
  7. Neese, F.
     Software update: The ORCA program system—Version 5.0
     WIRES Comput. Molec. Sci. 2022 12(1), e1606
     doi.org/10.1002/wcms.1606

List of optional additional citations

  1. Neese, F.
     Approximate second-order SCF convergence for spin unrestricted wavefunctions
     Chem. Phys. Lett. 2000 325(1-3), 93-98
     doi.org/10.1016/s0009-2614(00)00662-x

Timings for individual modules:

Sum of individual times          ...        4.796 sec (=   0.080 min)
Startup calculation              ...        0.844 sec (=   0.014 min)  17.6 %
SCF iterations                   ...        3.472 sec (=   0.058 min)  72.4 %
Property calculations            ...        0.480 sec (=   0.008 min)  10.0 %
                             ****ORCA TERMINATED NORMALLY****
TOTAL RUN TIME: 0 days 0 hours 0 minutes 5 seconds 260 msec
