10
Energy: -2691.4265200808
C    0.64418700   0.42700400   0.19165400
C    0.69966400   0.06636100   1.48645600
H    1.57642900   0.67854900  -0.32882500
H    1.64761300   0.03458300   2.03047100
H   -0.20222900  -0.22122100   2.03731900
C   -0.59115300   0.43699300  -0.61889400
H   -1.51897800   0.49425300  -0.03131400
H   -0.59492000   1.17158500  -1.43778800
H   -0.65637000  -0.57745100  -1.17039100
Br  -0.99511600  -2.33308900  -2.07295900
10
Energy: -2691.4264715761
C    0.64356800   0.42779100   0.19139600
C    0.69957100   0.06556400   1.48575000
H    1.57598900   0.67904500  -0.32938400
H    1.64740200   0.03206800   2.02933100
H   -0.20270900  -0.22211900   2.03654500
C   -0.59121900   0.43770400  -0.61881200
H   -1.51983500   0.49423700  -0.03220400
H   -0.59530400   1.16939600  -1.44022800
H   -0.65550600  -0.57896900  -1.16846600
Br  -0.99283000  -2.32715100  -2.06819900
10
Energy: -2691.4264234271
C    0.64321500   0.42855600   0.19108500
C    0.69945900   0.06477800   1.48520300
H    1.57546400   0.67941400  -0.32990300
H    1.64718000   0.02970700   2.02821600
H   -0.20315500  -0.22290700   2.03584100
C   -0.59142400   0.43846800  -0.61885600
H   -1.52066200   0.49403400  -0.03308100
H   -0.59567100   1.16716600  -1.44251200
H   -0.65463000  -0.58047800  -1.16670200
Br  -0.99065000  -2.32117100  -2.06356300
10
Energy: -2691.4263686624
C    0.64283700   0.42904000   0.19126600
C    0.69859500   0.06419500   1.48415100
H    1.57511900   0.67970200  -0.33044100
H    1.64742300   0.02772900   2.02751600
H   -0.20329300  -0.22346000   2.03518700
C   -0.59159500   0.43891400  -0.61853800
H   -1.52128900   0.49372300  -0.03390500
H   -0.59598700   1.16537800  -1.44464600
H   -0.65387100  -0.58177800  -1.16528100
Br  -0.98881000  -2.31587600  -2.05957900
10
Energy: -2691.4263345533
C    0.64241500   0.42955100   0.19070800
C    0.69811400   0.06361500   1.48393800
H    1.57479900   0.67987200  -0.33079300
H    1.64748200   0.02624600   2.02691200
H   -0.20340800  -0.22385700   2.03468800
C   -0.59152900   0.43920100  -0.61810400
H   -1.52181500   0.49342200  -0.03454100
H   -0.59623100   1.16402800  -1.44632700
H   -0.65328900  -0.58278100  -1.16423500
Br  -0.98741200  -2.31173100  -2.05651600
10
Energy: -2691.4262043759
C    0.64184700   0.43069900   0.18994200
C    0.69836600   0.06216200   1.48336900
H    1.57375400   0.68013700  -0.33186700
H    1.64675800   0.02225400   2.02474300
H   -0.20432000  -0.22494200   2.03372900
C   -0.59193200   0.44061400  -0.61842000
H   -1.52343000   0.49175700  -0.03618600
H   -0.59679500   1.15921900  -1.45062100
H   -0.65175700  -0.58577400  -1.16165100
Br  -0.98336300  -2.29856000  -2.04730900
10
Energy: -2691.4260592338
C    0.64045400   0.43138000   0.18932800
C    0.69762800   0.06088200   1.48231200
H    1.57315500   0.68038400  -0.33307200
H    1.64666300   0.01880800   2.02317500
H   -0.20482100  -0.22569000   2.03287900
C   -0.59156400   0.44144800  -0.61766600
H   -1.52486500   0.48967500  -0.03771600
H   -0.59721700   1.15493900  -1.45508900
H   -0.65064000  -0.58858200  -1.15977800
Br  -0.97966500  -2.28567800  -2.03864500
10
Energy: -2691.4258910885
C    0.64078300   0.43203300   0.18871500
C    0.69709800   0.05962300   1.48149800
H    1.57182000   0.68042800  -0.33394500
H    1.64633500   0.01566100   2.02153000
H   -0.20541900  -0.22632800   2.03234800
C   -0.59231400   0.44276500  -0.61774700
H   -1.52591200   0.48694000  -0.03927400
H   -0.59735200   1.15000700  -1.45910200
H   -0.64994600  -0.59164700  -1.15857400
Br  -0.97596600  -2.27191700  -2.02971800
10
Energy: -2691.4256980229
C    0.63930800   0.43229100   0.18787600
C    0.69663600   0.05848600   1.48080300
H    1.57121300   0.68067000  -0.33512400
H    1.64603500   0.01283300   2.02013000
H   -0.20588800  -0.22679200   2.03195100
C   -0.59163400   0.44347600  -0.61702600
H   -1.52701800   0.48391400  -0.04052500
H   -0.59734900   1.14547400  -1.46337800
H   -0.64978200  -0.59487700  -1.15809800
Br  -0.97239300  -2.25790600  -2.02088100
10
Energy: -2691.4254619723
C    0.63911100   0.43258400   0.18754900
C    0.69603800   0.05757700   1.47977100
H    1.57006900   0.68079200  -0.33601400
H    1.64580300   0.01026500   2.01891900
H   -0.20632300  -0.22716700   2.03182800
C   -0.59187600   0.44451000  -0.61691400
H   -1.52761200   0.48062800  -0.04164800
H   -0.59704100   1.14080900  -1.46713900
H   -0.65015800  -0.59898500  -1.15863300
Br  -0.96888400  -2.24344600  -2.01199200
10
Energy: -2691.4251965110
C    0.63799000   0.43340200   0.18673400
C    0.69566800   0.05640900   1.47948500
H    1.56937700   0.68090700  -0.33703600
H    1.64563900   0.00803600   2.01794600
H   -0.20675300  -0.22740800   2.03183100
C   -0.59138200   0.44558500  -0.61625000
H   -1.52832000   0.47743700  -0.04219200
H   -0.59649700   1.13693400  -1.47096100
H   -0.65105100  -0.60460200  -1.16047000
Br  -0.96554400  -2.22913500  -2.00335800
10
Energy: -2691.4248970864
C    0.63761100   0.43454200   0.18681100
C    0.69530600   0.05518400   1.47878800
H    1.56871000   0.68087300  -0.33803000
H    1.64569600   0.00628900   2.01724100
H   -0.20735000  -0.22759000   2.03206500
C   -0.59116300   0.44841100  -0.61510000
H   -1.52908100   0.47445500  -0.04222900
H   -0.59575300   1.13374200  -1.47447600
H   -0.65229000  -0.61236000  -1.16382600
Br  -0.96255900  -2.21598100  -1.99551500
10
Energy: -2691.4245526421
C    0.63682700   0.43610600   0.18500100
C    0.69516500   0.05331900   1.48019300
H    1.56818500   0.68073600  -0.33884000
H    1.64544200   0.00517800   2.01647400
H   -0.20764800  -0.22759300   2.03208200
C   -0.58996600   0.45296200  -0.61219500
H   -1.53005900   0.47190100  -0.04196400
H   -0.59503500   1.13152600  -1.47774300
H   -0.65357800  -0.62107900  -1.16801100
Br  -0.96020700  -2.20548900  -1.98926700
10
Energy: -2691.4242843089
C    0.63572700   0.43705600   0.18334500
C    0.69516000   0.05202900   1.48157700
H    1.56808600   0.68067600  -0.33937100
H    1.64518700   0.00467000   2.01599300
H   -0.20772400  -0.22754100   2.03199800
C   -0.58856600   0.45610700  -0.60971100
H   -1.53079500   0.47045900  -0.04171300
H   -0.59464200   1.13049000  -1.47977200
H   -0.65435800  -0.62650700  -1.17070100
Br  -0.95894900  -2.19987300  -1.98591600
10
Energy: -2691.4235216214
C    0.63435100   0.43670900   0.18270700
C    0.69424800   0.05053100   1.47871900
H    1.56659200   0.68032500  -0.34007300
H    1.64528600   0.00411000   2.01547600
H   -0.20848700  -0.22774100   2.03248000
C   -0.58485600   0.47192600  -0.60037000
H   -1.53149000   0.46628300  -0.04210400
H   -0.59384400   1.12630400  -1.48324800
H   -0.65619400  -0.64180400  -1.17857600
Br  -0.95647900  -2.18907700  -1.97928200
10
Energy: -2691.4210291709
C    0.62963900   0.43752700   0.17681500
C    0.69430000   0.04855200   1.48141200
H    1.56342000   0.68196900  -0.34320200
H    1.64652800   0.00077600   2.01517400
H   -0.20859100  -0.22716800   2.03554700
C   -0.57880500   0.49302000  -0.58747700
H   -1.53333600   0.43879500  -0.05080000
H   -0.59108900   1.09282000  -1.50384700
H   -0.66550900  -0.77670300  -1.24408300
Br  -0.95655700  -2.18958800  -1.97953900
10
Energy: -2691.4209592952
C    0.62492700   0.43834600   0.17092200
C    0.69435100   0.04657300   1.48410500
H    1.56024800   0.68361300  -0.34633100
H    1.64777000  -0.00255700   2.01487200
H   -0.20869500  -0.22659500   2.03861400
C   -0.57275300   0.51411400  -0.57458400
H   -1.53518200   0.41130600  -0.05949600
H   -0.58833400   1.05933600  -1.52444600
H   -0.67482400  -0.91160300  -1.30959000
Br  -0.95663400  -2.19010000  -1.97979500
10
Energy: -2691.4222537846
C    0.62665500   0.44114100   0.17300900
C    0.69427000   0.04479400   1.48394600
H    1.55960900   0.68416500  -0.34689000
H    1.64918400  -0.00363200   2.01563900
H   -0.20897300  -0.22654700   2.04049800
C   -0.57355900   0.54446700  -0.56270600
H   -1.53356800   0.41000400  -0.06070900
H   -0.58783500   1.05604700  -1.52607100
H   -0.67055600  -0.90168700  -1.30233800
Br  -0.96435400  -2.22631900  -2.00010600
10
Energy: -2691.4224610252
C    0.62561600   0.44391900   0.17313100
C    0.69485900   0.04403000   1.48545100
H    1.56006100   0.68458600  -0.34709800
H    1.64941600  -0.00460000   2.01574000
H   -0.20874100  -0.22630800   2.04097100
C   -0.57222900   0.54921100  -0.56061400
H   -1.53452200   0.41079200  -0.05985400
H   -0.58765800   1.05668100  -1.52720000
H   -0.67170200  -0.90987200  -1.30581000
Br  -0.96422700  -2.22600500  -2.00044600
10
Energy: -2691.4230091850
C    0.62419600   0.45182600   0.17452400
C    0.69605300   0.04277700   1.48822700
H    1.56049900   0.68639500  -0.34703200
H    1.65086900  -0.00824900   2.01642500
H   -0.20813100  -0.22565600   2.04298500
C   -0.57069200   0.56791900  -0.55314800
H   -1.53556400   0.41385300  -0.05810000
H   -0.58689700   1.05784100  -1.52954900
H   -0.67463000  -0.93472800  -1.31608000
Br  -0.96482900  -2.22954300  -2.00398200
10
Energy: -2691.4235756215
C    0.62339700   0.45847000   0.17634800
C    0.69715800   0.04327000   1.48977800
H    1.55966500   0.68975400  -0.34568600
H    1.65212600  -0.01320600   2.01660000
H   -0.20709200  -0.22474300   2.04534800
C   -0.57021900   0.59063300  -0.54387000
H   -1.53483200   0.41866600  -0.05699800
H   -0.58590200   1.05855900  -1.53021500
H   -0.67573300  -0.95575400  -1.32413700
Br  -0.96769500  -2.24321500  -2.01289600
10
Energy: -2691.4240851366
C    0.62289300   0.46664200   0.17987800
C    0.69809300   0.04345000   1.49190500
H    1.55987200   0.69433900  -0.34455100
H    1.65402000  -0.01898500   2.01639000
H   -0.20631300  -0.22333800   2.04803200
C   -0.56999500   0.60775400  -0.53743300
H   -1.53573300   0.42572200  -0.05416200
H   -0.58464100   1.06158800  -1.53133900
H   -0.67749900  -0.98136600  -1.33456500
Br  -0.96982300  -2.25337200  -2.01988500
10
Energy: -2691.4245173343
C    0.62150700   0.47345900   0.18163900
C    0.69891200   0.04484800   1.49322100
H    1.55891300   0.69989100  -0.34190500
H    1.65582300  -0.02533500   2.01598500
H   -0.20514900  -0.22168100   2.05080600
C   -0.56958400   0.62464200  -0.53098900
H   -1.53488900   0.43428900  -0.05225000
H   -0.58341300   1.06424000  -1.52977800
H   -0.67747100  -1.00029000  -1.34131100
Br  -0.97377500  -2.27162900  -2.03114600
10
Energy: -2691.4248683868
C    0.62153900   0.48015600   0.18627200
C    0.69987400   0.04548500   1.49555800
H    1.55933900   0.70594700  -0.34025600
H    1.65693900  -0.03126800   2.01445000
H   -0.20400600  -0.21965100   2.05326600
C   -0.56894600   0.63495300  -0.52692500
H   -1.53692600   0.44332200  -0.04855000
H   -0.58217500   1.06948200  -1.53074700
H   -0.67932100  -1.02613000  -1.35191700
Br  -0.97544300  -2.27986100  -2.03688100
10
Energy: -2691.4249828186
C    0.62075400   0.48155900   0.18610600
C    0.70003800   0.04606000   1.49535000
H    1.55906300   0.70748000  -0.33927500
H    1.65775600  -0.03284300   2.01451800
H   -0.20400300  -0.21925100   2.05416300
C   -0.56898900   0.63843100  -0.52574300
H   -1.53625100   0.44577900  -0.04830600
H   -0.58181400   1.07013600  -1.52948400
H   -0.67882200  -1.02867600  -1.35239800
Br  -0.97685900  -2.28624100  -2.04065900
10
Energy: -2691.4250576921
C    0.62102600   0.48286900   0.18605200
C    0.70001800   0.04619500   1.49602000
H    1.55868100   0.70869500  -0.33849900
H    1.65809800  -0.03404900   2.01426800
H   -0.20366200  -0.21880300   2.05465100
C   -0.56933800   0.64077400  -0.52487000
H   -1.53602900   0.44777700  -0.04793100
H   -0.58151300   1.07098900  -1.52898500
H   -0.67878200  -1.03221900  -1.35359700
Br  -0.97762600  -2.28979600  -2.04283800
10
Energy: -2691.4251486963
C    0.62135400   0.48458300   0.18630200
C    0.70004700   0.04637800   1.49685700
H    1.55829300   0.71036500  -0.33755300
H    1.65849800  -0.03565400   2.01387500
H   -0.20321200  -0.21818700   2.05530300
C   -0.56968000   0.64375800  -0.52374900
H   -1.53592300   0.45046600  -0.04731300
H   -0.58111800   1.07227100  -1.52848700
H   -0.67885600  -1.03750900  -1.35548800
Br  -0.97853000  -2.29403900  -2.04547600
10
Energy: -2691.4252361806
C    0.62132800   0.48625800   0.18693500
C    0.70020000   0.04666500   1.49741200
H    1.55811600   0.71216300  -0.33669800
H    1.65893800  -0.03732300   2.01347700
H   -0.20286000  -0.21756500   2.05605500
C   -0.56972700   0.64675400  -0.52262900
H   -1.53599400   0.45327500  -0.04656000
H   -0.58072200   1.07371500  -1.52803600
H   -0.67899200  -1.04327700  -1.35758600
Br  -0.97941400  -2.29823200  -2.04810000
10
Energy: -2691.4253238506
C    0.62107400   0.48783400   0.18773600
C    0.70041400   0.04702000   1.49774300
H    1.55805000   0.71396600  -0.33590900
H    1.65940100  -0.03896600   2.01310800
H   -0.20258500  -0.21696600   2.05684500
C   -0.56960800   0.64967900  -0.52154200
H   -1.53612000   0.45605800  -0.04578300
H   -0.58034000   1.07518700  -1.52757400
H   -0.67912200  -1.04897200  -1.35964600
Br  -0.98029200  -2.30240500  -2.05070800
10
Energy: -2691.4254070437
C    0.62106000   0.48949000   0.18836400
C    0.70056400   0.04729800   1.49829100
H    1.55788400   0.71576200  -0.33504500
H    1.65985500  -0.04060500   2.01270000
H   -0.20224600  -0.21633800   2.05761000
C   -0.56967300   0.65257300  -0.52047200
H   -1.53620200   0.45890000  -0.04502500
H   -0.57993600   1.07672700  -1.52708200
H   -0.67925300  -1.05472200  -1.36171300
Br  -0.98118100  -2.30665100  -2.05335800
10
Energy: -2691.4254877069
C    0.62080300   0.49103000   0.18916200
C    0.70077400   0.04765000   1.49861000
H    1.55783100   0.71755300  -0.33424900
H    1.66031600  -0.04221000   2.01231800
H   -0.20197100  -0.21573300   2.05840500
C   -0.56954800   0.65539200  -0.51942700
H   -1.53634200   0.46170200  -0.04424700
H   -0.57955100   1.07829000  -1.52658200
H   -0.67937900  -1.06038400  -1.36373800
Br  -0.98205900  -2.31085500  -2.05598000
10
Energy: -2691.4255644854
C    0.62079900   0.49265300   0.18978900
C    0.70091800   0.04792800   1.49914800
H    1.55766900   0.71933500  -0.33337500
H    1.66076600  -0.04381300   2.01190000
H   -0.20163000  -0.21509900   2.05917400
C   -0.56962000   0.65820200  -0.51839600
H   -1.53642800   0.46456900  -0.04349100
H   -0.57914400   1.07992500  -1.52604400
H   -0.67950500  -1.06612500  -1.36578200
Br  -0.98295000  -2.31514000  -2.05865000
10
Energy: -2691.4256405898
C    0.62055300   0.49415600   0.19057200
C    0.70112400   0.04827400   1.49946800
H    1.55761500   0.72109900  -0.33257400
H    1.66121600  -0.04537200   2.01150500
H   -0.20135200  -0.21449100   2.05996300
C   -0.56949800   0.66093200  -0.51738300
H   -1.53657300   0.46737900  -0.04271900
H   -0.57876000   1.08157700  -1.52550600
H   -0.67962800  -1.07175500  -1.36777600
Br  -0.98382500  -2.31936400  -2.06127900
10
Energy: -2691.4257141879
C    0.62035100   0.49568600   0.19133400
C    0.70132000   0.04861500   1.49982300
H    1.55754300   0.72288100  -0.33174400
H    1.66167200  -0.04694100   2.01109700
H   -0.20105900  -0.21386700   2.06076500
C   -0.56941200   0.66368200  -0.51636600
H   -1.53670900   0.47025300  -0.04194000
H   -0.57836500   1.08330700  -1.52493200
H   -0.67975100  -1.07749300  -1.36979700
Br  -0.98471800  -2.32369100  -2.06397000
10
Energy: -2691.4257875595
C    0.62042900   0.49727600   0.19191000
C    0.70143800   0.04887100   1.50040900
H    1.55736100   0.72461800  -0.33084800
H    1.66210500  -0.04847400   2.01065400
H   -0.20069600  -0.21322100   2.06152000
C   -0.56954100   0.66639300  -0.51537500
H   -1.53678600   0.47314800  -0.04119400
H   -0.57795300   1.08509600  -1.52432600
H   -0.67987400  -1.08323400  -1.37180900
Br  -0.98561000  -2.32803800  -2.06667000
10
Energy: -2691.4258505717
C    0.62017000   0.49871400   0.19268500
C    0.70164600   0.04921500   1.50071000
H    1.55733300   0.72632700  -0.33006000
H    1.66254000  -0.04995500   2.01025400
H   -0.20042400  -0.21261700   2.06230500
C   -0.56941000   0.66901800  -0.51440900
H   -1.53693900   0.47594900  -0.04042600
H   -0.57757200   1.08687800  -1.52372700
H   -0.67999400  -1.08881700  -1.37375800
Br  -0.98647600  -2.33227900  -2.06930200
10
Energy: -2691.4259146932
C    0.61998600   0.50019300   0.19343000
C    0.70183400   0.04955100   1.50105700
H    1.55726300   0.72805300  -0.32923000
H    1.66298100  -0.05144700   2.00983800
H   -0.20012800  -0.21199200   2.06310000
C   -0.56932600   0.67168800  -0.51342100
H   -1.53707700   0.47883100  -0.03965300
H   -0.57718000   1.08875400  -1.52308700
H   -0.68011500  -1.09454700  -1.37575000
Br  -0.98736500  -2.33665000  -2.07201200
10
Energy: -2691.4259792661
C    0.62007300   0.50173300   0.19399600
C    0.70194800   0.04979900   1.50163600
H    1.55708800   0.72973200  -0.32834300
H    1.66340300  -0.05290600   2.00939400
H   -0.19976200  -0.21134500   2.06384900
C   -0.56946100   0.67433700  -0.51245900
H   -1.53715500   0.48173400  -0.03891200
H   -0.57677100   1.09069000  -1.52241600
H   -0.68023600  -1.10029300  -1.37773800
Br  -0.98825300  -2.34104800  -2.07473600
10
Energy: -2691.4260374863
C    0.61979600   0.50309700   0.19477000
C    0.70215900   0.05014400   1.50190000
H    1.55708200   0.73136200  -0.32758300
H    1.66382000  -0.05429300   2.00900100
H   -0.19950200  -0.21075000   2.06462200
C   -0.56931000   0.67687300  -0.51152500
H   -1.53731500   0.48450300  -0.03815400
H   -0.57640400   1.09259600  -1.52176200
H   -0.68034900  -1.10581200  -1.37963800
Br  -0.98910400  -2.34528600  -2.07735900
10
Energy: -2691.4260943299
C    0.61964800   0.50453400   0.19548600
C    0.70233800   0.05046800   1.50225300
H    1.55700900   0.73301500  -0.32676200
H    1.66424600  -0.05570500   2.00858500
H   -0.19920300  -0.21012500   2.06540500
C   -0.56924400   0.67949000  -0.51055800
H   -1.53745000   0.48738400  -0.03738400
H   -0.57601700   1.09462500  -1.52105900
H   -0.68046700  -1.11155100  -1.38160700
Br  -0.98998600  -2.34970200  -2.08008800
10
Energy: -2691.4261498227
C    0.61972000   0.50601900   0.19605200
C    0.70245400   0.05071700   1.50280400
H    1.55685500   0.73462200  -0.32589900
H    1.66465100  -0.05708100   2.00814800
H   -0.19884300  -0.20948100   2.06614600
C   -0.56936500   0.68209300  -0.50961300
H   -1.53753200   0.49028100  -0.03664000
H   -0.57561900   1.09670900  -1.52032500
H   -0.68058100  -1.11730100  -1.38357200
Br  -0.99086700  -2.35414400  -2.08283000
10
Energy: -2691.4262031017
C    0.61945800   0.50732300   0.19680200
C    0.70265900   0.05105200   1.50305500
H    1.55685300   0.73616200  -0.32516500
H    1.66505200  -0.05837500   2.00776700
H   -0.19858700  -0.20889400   2.06690200
C   -0.56921900   0.68457000  -0.50870200
H   -1.53768800   0.49302100  -0.03588900
H   -0.57526300   1.09874300  -1.51961200
H   -0.68068900  -1.12277900  -1.38543800
Br  -0.99170200  -2.35838900  -2.08544800
10
Energy: -2691.4262534674
C    0.61932800   0.50871000   0.19749800
C    0.70282800   0.05136500   1.50340400
H    1.55679100   0.73773100  -0.32437100
H    1.66545700  -0.05969700   2.00735800
H   -0.19828900  -0.20827200   2.06766800
C   -0.56916300   0.68714600  -0.50774700
H   -1.53781900   0.49589300  -0.03511900
H   -0.57488900   1.10092100  -1.51884400
H   -0.68079900  -1.12851900  -1.38738600
Br  -0.99257200  -2.36284200  -2.08819000
10
Energy: -2691.4263025399
C    0.61939200   0.51014000   0.19805900
C    0.70294400   0.05161200   1.50392500
H    1.55665600   0.73925100  -0.32354000
H    1.66584500  -0.06098500   2.00693500
H   -0.19793900  -0.20763500   2.06839600
C   -0.56927200   0.68971500  -0.50681400
H   -1.53790100   0.49877400  -0.03437000
H   -0.57450600   1.10315300  -1.51804500
H   -0.68090600  -1.13427000  -1.38933000
Br  -0.99344000  -2.36732100  -2.09094400
10
Energy: -2691.4263487884
C    0.61914600   0.51138700   0.19878600
C    0.70314500   0.05193900   1.50416200
H    1.55666100   0.74069400  -0.32283900
H    1.66622300  -0.06218600   2.00656900
H   -0.19769100  -0.20705500   2.06912600
C   -0.56912600   0.69215000  -0.50591800
H   -1.53805300   0.50148200  -0.03361900
H   -0.57416700   1.10531300  -1.51727500
H   -0.68100700  -1.13972000  -1.39116700
Br  -0.99425700  -2.37157000  -2.09355400
