[Molden Format]
[Title]
 Molden file created by orca_2mkl for BaseName=radical_007

[Atoms] AU
C    1   6          1.2109043813         0.8164240508         0.3566196674 
C    2   6          1.3173243085         0.1126711413         2.7996254880 
H    3   1          2.9703093318         1.2858225739        -0.6310645938 
H    4   1          3.1111222747         0.0295950010         3.8201380715 
H    5   1         -0.3881856527        -0.4276979364         3.8405811288 
C    6   6         -1.1193112453         0.8367045917        -1.1673726501 
H    7   1         -2.8835557845         0.9201832437        -0.0742171042 
H    8   1         -1.1288316856         2.1731982821        -2.7573031815 
H    9   1         -1.2282199418        -1.1180507980        -2.1893875659 
Br  10  35         -1.8443084560        -4.2933009290        -3.8356111491 
[GTO]
  1 0
s   5 1.0 
     1238.4016938000         0.8208956682
      186.2900499200         1.4766449896
       42.2511763460         2.1526124058
       11.6765579320         2.1081722461
        3.5930506482         0.8290999933
s   1 1.0 
        0.4024514736         0.3601183351
s   1 1.0 
        0.1309018267         0.1551027052
p   3 1.0 
        9.4680970621         1.3467645142
        2.0103545142         1.0678070931
        0.5477100471         0.5108735714
p   1 1.0 
        0.1526861379         0.1360471976
d   1 1.0 
        0.8000000000         1.9292013661

  2 0
s   5 1.0 
     1238.4016938000         0.8208956682
      186.2900499200         1.4766449896
       42.2511763460         2.1526124058
       11.6765579320         2.1081722461
        3.5930506482         0.8290999933
s   1 1.0 
        0.4024514736         0.3601183351
s   1 1.0 
        0.1309018267         0.1551027052
p   3 1.0 
        9.4680970621         1.3467645142
        2.0103545142         1.0678070931
        0.5477100471         0.5108735714
p   1 1.0 
        0.1526861379         0.1360471976
d   1 1.0 
        0.8000000000         1.9292013661

  3 0
s   3 1.0 
       13.0107010000         0.1634903809
        1.9622572000         0.2773515510
        0.4445379600         0.3157501452
s   1 1.0 
        0.1219496200         0.1470772262
p   1 1.0 
        0.8000000000         1.0784563492

  4 0
s   3 1.0 
       13.0107010000         0.1634903809
        1.9622572000         0.2773515510
        0.4445379600         0.3157501452
s   1 1.0 
        0.1219496200         0.1470772262
p   1 1.0 
        0.8000000000         1.0784563492

  5 0
s   3 1.0 
       13.0107010000         0.1634903809
        1.9622572000         0.2773515510
        0.4445379600         0.3157501452
s   1 1.0 
        0.1219496200         0.1470772262
p   1 1.0 
        0.8000000000         1.0784563492

  6 0
s   5 1.0 
     1238.4016938000         0.8208956682
      186.2900499200         1.4766449896
       42.2511763460         2.1526124058
       11.6765579320         2.1081722461
        3.5930506482         0.8290999933
s   1 1.0 
        0.4024514736         0.3601183351
s   1 1.0 
        0.1309018267         0.1551027052
p   3 1.0 
        9.4680970621         1.3467645142
        2.0103545142         1.0678070931
        0.5477100471         0.5108735714
p   1 1.0 
        0.1526861379         0.1360471976
d   1 1.0 
        0.8000000000         1.9292013661

  7 0
s   3 1.0 
       13.0107010000         0.1634903809
        1.9622572000         0.2773515510
        0.4445379600         0.3157501452
s   1 1.0 
        0.1219496200         0.1470772262
p   1 1.0 
        0.8000000000         1.0784563492

  8 0
s   3 1.0 
       13.0107010000         0.1634903809
        1.9622572000         0.2773515510
        0.4445379600         0.3157501452
s   1 1.0 
        0.1219496200         0.1470772262
p   1 1.0 
        0.8000000000         1.0784563492

  9 0
s   3 1.0 
       13.0107010000         0.1634903809
        1.9622572000         0.2773515510
        0.4445379600         0.3157501452
s   1 1.0 
        0.1219496200         0.1470772262
p   1 1.0 
        0.8000000000         1.0784563492

 10 0
s   6 1.0 
   113286.3877600000         7.5076141183
    17009.6263030000        13.8835270484
     3870.1842567000        22.7307285566
     1093.0357227000        30.8227297499
      356.3972179700        27.2481937511
      123.1253964300         9.6953381145
s   3 1.0 
      236.7408400700        -4.7631125758
       28.4686610700         5.6113863182
       11.8834437220         1.9900291396
s   3 1.0 
       21.2696333120        -1.5429794477
        3.6129226841         1.3310800628
        1.6626648969         0.4300130345
s   1 1.0 
        0.3482379323         0.3230852630
s   1 1.0 
        0.1301903139         0.1544699827
p   5 1.0 
     1560.2801881000       115.0180051576
      368.4785920500       143.9035925417
      117.2297884900       137.5255986684
       42.6489092480        78.9578527439
       16.0872250960        15.8580577654
p   3 1.0 
        8.6352810058         6.8437546680
        3.5613665502         3.7974971038
        1.5292626609         0.5585414278
p   1 1.0 
        0.5306429485         0.6455696201
p   1 1.0 
        0.1570275896         0.1408996918
d   4 1.0 
      104.8551864200       261.4493931636
       30.2811436880       176.6993802449
       10.6513942670        76.9545600188
        3.8699456233        17.5937671387
d   1 1.0 
        1.3240876762         4.6593398042
d   1 1.0 
        0.3890000000         0.5462379705

[5D]
[7F]
[9G]
[MO]
 Sym=     1a
 Ene= -4.82764042863747E+02
 Spin= Alpha
 Occup= 1.000000
  1       0.000005880721
  2      -0.000081947468
  3       0.000221222098
  4       0.000009031539
  5       0.000015543946
  6       0.000005930531
  7      -0.000010432502
  8      -0.000069213403
  9       0.000135412369
 10      -0.000001642619
 11       0.000002209546
 12       0.000001500620
 13      -0.000001408852
 14      -0.000005281427
 15       0.000001482708
 16      -0.000009418237
 17      -0.000210294456
 18       0.000000256869
 19       0.000003364283
 20       0.000002937452
 21       0.000018949848
 22      -0.000027916350
 23       0.000101205274
 24      -0.000000040034
 25      -0.000002179524
 26      -0.000001478219
 27      -0.000004633086
 28      -0.000000726729
 29      -0.000004329799
 30       0.000004434963
 31      -0.000001893727
 32       0.000002481237
 33       0.000001105139
 34       0.000001552170
 35      -0.000008070496
 36       0.000000870479
 37       0.000002162442
 38      -0.000003304951
 39      -0.000000488042
 40       0.000008732769
 41      -0.000000596794
 42       0.000000248484
 43      -0.000001636916
 44       0.000007582144
 45      -0.000152621505
 46       0.001092330315
 47      -0.000009517878
 48       0.000009882252
 49       0.000004396718
 50       0.000044654123
 51      -0.000395058641
 52      -0.000260300663
 53      -0.000004627530
 54       0.000005362754
 55       0.000015049707
 56      -0.000015309308
 57       0.000004950093
 58      -0.000009751733
 59       0.000006648519
 60       0.000005412674
 61       0.000002399184
 62      -0.000004516624
 63      -0.000042279629
 64      -0.000032573817
 65      -0.000006590654
 66      -0.000000466139
 67       0.000006512379
 68       0.000002650352
 69      -0.001547591163
 70       0.000007307178
 71      -0.000002707418
 72      -0.000000272467
 73      -0.994982668608
 74      -0.015687312987
 75       0.003908872710
 76      -0.002347763795
 77       0.001740592477
 78      -0.000001752022
 79      -0.000007638139
 80      -0.000003907700
 81       0.000005956048
 82       0.000025557020
 83       0.000013119221
 84      -0.000028937461
 85      -0.000126288848
 86      -0.000065009934
 87       0.000099571171
 88       0.000465219869
 89       0.000240603523
 90      -0.000003248495
 91       0.000002511522
 92       0.000011499352
 93      -0.000010553953
 94       0.000004964068
 95       0.000012585517
 96      -0.000009672110
 97      -0.000044539179
 98       0.000040914182
 99      -0.000019092915
100      -0.000030573355
101       0.000023280185
102       0.000108507664
103      -0.000099778645
104       0.000045687177
 Sym=     1a
 Ene= -6.24470293174234E+01
 Spin= Alpha
 Occup= 1.000000
  1      -0.000013983495
  2       0.000197235368
  3      -0.000522120912
  4      -0.000021601843
  5      -0.000037160167
  6      -0.000014281465
  7       0.000018605463
  8       0.000166400881
  9      -0.000329089105
 10       0.000004146841
 11      -0.000005142875
 12      -0.000003743440
 13       0.000003591950
 14       0.000012665758
 15      -0.000003556780
 16       0.000023174570
 17       0.000504393157
 18      -0.000000813811
 19      -0.000008085971
 20      -0.000007124156
 21      -0.000042431171
 22       0.000067822377
 23      -0.000243287582
 24       0.000000103510
 25       0.000005163491
 26       0.000003468603
 27       0.000010958088
 28       0.000001707904
 29       0.000011056924
 30      -0.000010930108
 31       0.000004645990
 32      -0.000005738787
 33      -0.000002363112
 34      -0.000004041918
 35       0.000018780381
 36      -0.000002099813
 37      -0.000005140998
 38       0.000007769746
 39       0.000001874429
 40      -0.000019667774
 41       0.000001414308
 42      -0.000000544699
 43       0.000003783255
 44      -0.000017169463
 45       0.000363657080
 46      -0.002683313369
 47       0.000023381426
 48      -0.000017196652
 49      -0.000007421126
 50      -0.000113773933
 51       0.000966982939
 52       0.000632875442
 53       0.000012087963
 54      -0.000013094056
 55      -0.000040216188
 56       0.000040450542
 57      -0.000011642960
 58       0.000022475266
 59      -0.000014754763
 60      -0.000012855284
 61      -0.000005689305
 62       0.000011253463
 63       0.000101651502
 64       0.000080316188
 65       0.000016364047
 66       0.000001420129
 67      -0.000015630309
 68      -0.000005823427
 69       0.003804282838
 70      -0.000015122045
 71       0.000022285956
 72       0.000008823185
 73       0.347189391497
 74      -1.046963241982
 75      -0.018555107594
 76       0.006347082813
 77      -0.004425291432
 78      -0.000013242090
 79      -0.000097532875
 80      -0.000046068543
 81      -0.000016131093
 82      -0.000072214092
 83      -0.000036766552
 84       0.000071402466
 85       0.000313035662
 86       0.000161029284
 87      -0.000244422819
 88      -0.001143204120
 89      -0.000591167174
 90       0.000021832721
 91      -0.000011865888
 92      -0.000070631069
 93       0.000068568805
 94      -0.000023995676
 95      -0.000034763088
 96       0.000024901952
 97       0.000120344407
 98      -0.000111944684
 99       0.000049410783
100       0.000075299913
101      -0.000056727634
102      -0.000265981320
103       0.000245093580
104      -0.000111472969
 Sym=     1a
 Ene= -5.62804777923195E+01
 Spin= Alpha
 Occup= 1.000000
  1       0.000015805069
  2      -0.000237983006
  3       0.000657490468
  4       0.000024239326
  5       0.000043363039
  6       0.000015949352
  7      -0.000078295610
  8      -0.000219922360
  9       0.000297606261
 10      -0.000003601218
 11       0.000008069246
 12       0.000009083001
 13      -0.000004030071
 14      -0.000008070230
 15       0.000004900870
 16      -0.000037335556
 17      -0.000514958519
 18       0.000002963798
 19       0.000011631226
 20       0.000011104931
 21       0.000043542562
 22      -0.000063284719
 23       0.000239132283
 24       0.000001318737
 25      -0.000007908622
 26      -0.000006348000
 27      -0.000011973126
 28       0.000000365863
 29      -0.000017900684
 30       0.000020926729
 31      -0.000004059051
 32       0.000008159967
 33       0.000008047225
 34       0.000007521177
 35      -0.000016685821
 36       0.000000040565
 37       0.000005900842
 38      -0.000008423217
 39      -0.000007731486
 40       0.000027150038
 41       0.000000439401
 42      -0.000000787632
 43      -0.000001621329
 44       0.000008613294
 45      -0.000303181099
 46       0.002890797873
 47      -0.000029582187
 48      -0.000032383214
 49      -0.000016212413
 50       0.000123666620
 51      -0.001085940333
 52      -0.000741721068
 53      -0.000019184292
 54       0.000017510701
 55       0.000067391429
 56      -0.000068097829
 57       0.000012031046
 58       0.000002857588
 59       0.000075504918
 60       0.000017164381
 61      -0.000009259455
 62      -0.000022853426
 63      -0.000096739132
 64      -0.000043903519
 65      -0.000021884222
 66      -0.000018822229
 67       0.000011878630
 68      -0.000104161792
 69      -0.004658969324
 70       0.000017057139
 71      -0.000055850718
 72      -0.000023855223
 73       0.000056635174
 74      -0.000163514853
 75       0.000163985270
 76      -0.001063593354
 77       0.002317954921
 78       0.123059688824
 79       0.882976716710
 80       0.432140173512
 81       0.002964368081
 82       0.021217451911
 83       0.010386038473
 84      -0.000806868677
 85      -0.005542671459
 86      -0.002723385509
 87       0.000576348326
 88       0.003378513935
 89       0.001694972378
 90      -0.000012949542
 91       0.000008886751
 92       0.000044564962
 93      -0.000041783658
 94       0.000017739158
 95       0.000041901530
 96      -0.000030776067
 97      -0.000148091091
 98       0.000136966134
 99      -0.000061079323
100      -0.000100200419
101       0.000074145777
102       0.000356553515
103      -0.000329081427
104       0.000145993869
 Sym=     1a
 Ene= -5.62763265545165E+01
 Spin= Alpha
 Occup= 1.000000
  1      -0.000006075720
  2       0.000057100230
  3      -0.000210880899
  4      -0.000013001315
  5      -0.000024011470
  6      -0.000001977883
  7       0.000014219601
  8       0.000212186637
  9      -0.000311533800
 10      -0.000006310606
 11       0.000001939163
 12       0.000003072460
 13      -0.000003195337
 14      -0.000010881179
 15      -0.000001499519
 16       0.000011033164
 17       0.000412327743
 18      -0.000006017832
 19       0.000003542732
 20      -0.000006337440
 21       0.000021586670
 22       0.000003387989
 23      -0.000172720661
 24       0.000003629528
 25       0.000003448301
 26       0.000004320776
 27       0.000005000461
 28      -0.000001520563
 29      -0.000018794290
 30      -0.000067679924
 31       0.000008848255
 32      -0.000018173135
 33       0.000001542320
 34      -0.000013529507
 35      -0.000026578093
 36      -0.000000815427
 37       0.000002575787
 38       0.000008891338
 39       0.000002182734
 40      -0.000018634725
 41       0.000002838083
 42       0.000003671415
 43       0.000008315468
 44       0.000003569457
 45      -0.000077785520
 46       0.000429748080
 47       0.000041732358
 48       0.000024887621
 49       0.000004625375
 50      -0.000314963255
 51      -0.000360149234
 52      -0.000028226931
 53      -0.000002225197
 54      -0.000024429654
 55       0.000019768551
 56      -0.000003946178
 57      -0.000015986380
 58      -0.000135343452
 59      -0.000030008050
 60       0.000010580383
 61       0.000017765373
 62       0.000014787722
 63       0.000025904337
 64       0.000047487407
 65       0.000032721289
 66       0.000005355949
 67       0.000011304211
 68      -0.000027460913
 69      -0.000655927116
 70      -0.000049678729
 71      -0.000003228259
 72       0.000004199923
 73       0.000001368420
 74      -0.000003435716
 75       0.000012721451
 76      -0.000095502324
 77       0.000252245439
 78       0.968131306864
 79      -0.033146923367
 80      -0.207973842860
 81       0.023122927016
 82      -0.000785749316
 83      -0.004963558223
 84      -0.005607821154
 85       0.000160361915
 86       0.001185786116
 87       0.002107743112
 88       0.000080367623
 89      -0.000366360928
 90      -0.000003033638
 91       0.000005900927
 92       0.000000314148
 93      -0.000000596616
 94       0.000012639141
 95       0.000006234628
 96      -0.000009523908
 97      -0.000008445450
 98       0.000008189633
 99      -0.000019093870
100      -0.000013765058
101       0.000018035125
102       0.000026514187
103      -0.000025177713
104       0.000035332647
 Sym=     1a
 Ene= -5.62763156861883E+01
 Spin= Alpha
 Occup= 1.000000
  1       0.000006739037
  2      -0.000056756928
  3      -0.000067936176
  4       0.000010332805
  5       0.000018426651
  6       0.000026149446
  7       0.000098437337
  8       0.000004320606
  9      -0.000218032209
 10       0.000006295162
 11      -0.000001581516
 12      -0.000002489217
 13      -0.000001068753
 14       0.000002051712
 15      -0.000001254239
 16       0.000027464618
 17       0.000151546707
 18      -0.000008799197
 19       0.000008283834
 20      -0.000006671140
 21       0.000068063843
 22       0.000027042871
 23      -0.000015538286
 24      -0.000004391048
 25       0.000003202384
 26      -0.000002657536
 27      -0.000003016008
 28      -0.000002268923
 29      -0.000035910619
 30      -0.000082951151
 31       0.000005514566
 32       0.000009425437
 33       0.000008299761
 34      -0.000017737217
 35      -0.000054897313
 36       0.000003653600
 37      -0.000000607693
 38       0.000003551114
 39       0.000009333549
 40       0.000011257787
 41       0.000001072863
 42       0.000001201241
 43      -0.000001457004
 44       0.000002406602
 45      -0.000013246541
 46      -0.000116487649
 47      -0.000011454058
 48       0.000013492480
 49      -0.000046083310
 50      -0.000024864723
 51      -0.000047013047
 52       0.000382735515
 53       0.000004528064
 54      -0.000000923313
 55       0.000024653001
 56       0.000029571317
 57       0.000002413063
 58      -0.000066333501
 59      -0.000051687363
 60      -0.000021867499
 61       0.000012070116
 62      -0.000027230771
 63       0.000132595062
 64       0.000067289106
 65      -0.000004595972
 66      -0.000016554406
 67      -0.000001875976
 68       0.000018870589
 69       0.000200627667
 70       0.000010910223
 71      -0.000021034514
 72       0.000046572842
 73      -0.000000030443
 74      -0.000000200490
 75      -0.000005245048
 76       0.000035295040
 77      -0.000083819549
 78      -0.170896505399
 79       0.448119444576
 80      -0.866956937468
 81      -0.004082174325
 82       0.010699190465
 83      -0.020705431653
 84       0.000991852114
 85      -0.002577420611
 86       0.005018234699
 87      -0.000377174988
 88       0.000906062098
 89      -0.001879090543
 90      -0.000008014499
 91      -0.000002765054
 92      -0.000008502357
 93      -0.000004470045
 94      -0.000001575591
 95       0.000008657534
 96       0.000004076101
 97       0.000012700032
 98       0.000002527611
 99       0.000002913445
100      -0.000012127969
101      -0.000007170160
102      -0.000023679647
103       0.000000227919
104      -0.000006110605
 Sym=     1a
 Ene= -1.02191973567198E+01
 Spin= Alpha
 Occup= 1.000000
  1       0.060681403084
  2       0.001826648842
  3       0.003043169158
  4       0.001309474777
  5      -0.000365431985
  6       0.000949046913
  7       0.000541715957
  8       0.001638012600
  9      -0.005177490745
 10       0.000039958867
 11      -0.001314193568
 12       0.000093450330
 13      -0.000997004906
 14       0.000126239046
 15       0.005331174294
 16      -0.000271732546
 17       0.006041347974
 18       0.000266375115
 19      -0.000030499456
 20       0.000072172695
 21      -0.004645627817
 22       0.000266806285
 23      -0.003191806496
 24       0.000112284408
 25      -0.000039360334
 26      -0.000088846115
 27       0.000224168441
 28       0.000126507695
 29      -0.000704622517
 30      -0.001000060413
 31      -0.000164919596
 32      -0.000050664884
 33      -0.000212746507
 34       0.000747009648
 35       0.001860713292
 36      -0.000056034996
 37       0.000000562484
 38      -0.000019597557
 39      -0.000894989483
 40      -0.001787968415
 41      -0.000010111073
 42      -0.000068050181
 43       0.000135289678
 44       0.985844100673
 45       0.053601371388
 46      -0.055320242183
 47      -0.000729017779
 48      -0.000792268882
 49      -0.000872839000
 50      -0.001982077495
 51       0.006721436141
 52       0.003132098661
 53       0.000258556220
 54      -0.000511917454
 55      -0.000512392544
 56       0.000076081104
 57      -0.000110465707
 58      -0.002804336371
 59       0.007417980506
 60      -0.002234854289
 61      -0.000090205676
 62       0.001621158074
 63      -0.002689462783
 64       0.008021311021
 65       0.000251526563
 66       0.001696781912
 67      -0.002226739374
 68      -0.002233483990
 69       0.024499840684
 70       0.000032868025
 71      -0.002326116722
 72      -0.001009316798
 73      -0.000010713445
 74       0.000018932111
 75      -0.000187256290
 76       0.002093359890
 77      -0.007338489499
 78       0.000004778875
 79       0.000013374490
 80       0.000001813175
 81      -0.000017420918
 82      -0.000049842131
 83      -0.000008362174
 84       0.000136222705
 85       0.000460573879
 86       0.000162182409
 87      -0.000933484596
 88      -0.004121840246
 89      -0.001992995528
 90       0.000019859057
 91      -0.000014747437
 92      -0.000050037963
 93       0.000048919468
 94      -0.000031729988
 95      -0.000092975498
 96       0.000068962737
 97       0.000238293749
 98      -0.000232355287
 99       0.000147800835
100       0.000275933917
101      -0.000202604658
102      -0.000767908823
103       0.000739450607
104      -0.000425485580
 Sym=     1a
 Ene= -1.02176120904824E+01
 Spin= Alpha
 Occup= 1.000000
  1       0.984771620409
  2       0.047674103047
  3      -0.042293506647
  4       0.000487509436
  5      -0.000292800137
  6      -0.000356836989
  7       0.004405159680
  8       0.002180973582
  9      -0.004580086217
 10       0.001013816357
 11      -0.000296533141
 12      -0.000954624484
 13       0.001625824040
 14       0.000709712388
 15       0.056820662350
 16      -0.001991211633
 17       0.016769243117
 18       0.000151042269
 19      -0.000802524122
 20       0.002611397501
 21      -0.002618100896
 22       0.001163355534
 23      -0.005082744437
 24      -0.001047453692
 25      -0.000046387505
 26       0.000716232295
 27      -0.000257349044
 28      -0.000073373563
 29      -0.004703350498
 30       0.006259291493
 31       0.002548903923
 32       0.000580378378
 33      -0.001334273676
 34       0.000310345954
 35       0.000099473257
 36      -0.000174023136
 37       0.000081732928
 38      -0.000374903231
 39      -0.000342884523
 40      -0.001430745818
 41       0.000127792206
 42       0.000135105733
 43      -0.000411341630
 44      -0.060232538264
 45      -0.003612619386
 46       0.002288469936
 47      -0.001616358624
 48      -0.000391991305
 49      -0.001271971931
 50       0.001152057686
 51       0.004609726778
 52       0.005946595103
 53       0.000185258057
 54      -0.001213507626
 55      -0.000073902248
 56      -0.001029402000
 57      -0.000109556005
 58       0.000226171868
 59      -0.001549943402
 60       0.000435419097
 61      -0.000200120444
 62       0.000031521676
 63       0.000801435222
 64      -0.000171662609
 65       0.000312655538
 66      -0.000378403544
 67       0.000085718902
 68       0.000295433776
 69       0.013003710582
 70       0.000523739496
 71       0.000342221725
 72       0.000423462057
 73      -0.000008868723
 74       0.000016341604
 75      -0.000152582214
 76       0.001562493602
 77      -0.004784680009
 78      -0.000007948442
 79       0.000024145258
 80       0.000002134216
 81       0.000026493282
 82      -0.000084287938
 83      -0.000008465224
 84      -0.000073397148
 85       0.000515520674
 86       0.000123967751
 87      -0.000317822279
 88      -0.002990896782
 89      -0.001329412856
 90       0.000013053613
 91       0.000000166819
 92      -0.000038619356
 93       0.000042016183
 94      -0.000013100064
 95      -0.000061412865
 96       0.000002292818
 97       0.000184834091
 98      -0.000198484721
 99       0.000063432080
100       0.000186671588
101      -0.000046778358
102      -0.000601474691
103       0.000613091716
104      -0.000215547209
 Sym=     1a
 Ene= -1.02120906688771E+01
 Spin= Alpha
 Occup= 1.000000
  1      -0.056121650098
  2      -0.006972960982
  3       0.011866828421
  4      -0.000400509946
  5       0.000721490386
  6      -0.002653306009
  7      -0.000641247753
  8       0.000411782861
  9      -0.002140929369
 10      -0.001336485321
 11      -0.000000389008
 12       0.000884313620
 13      -0.000405787859
 14      -0.000132681628
 15       0.986490437879
 16       0.048504644766
 17      -0.030415637141
 18      -0.000039536011
 19      -0.000138317770
 20       0.000297796027
 21       0.000931159890
 22       0.000244161498
 23       0.000094935597
 24       0.001092137195
 25       0.000207618802
 26      -0.001316411559
 27       0.002111363415
 28       0.000534596507
 29       0.000269470933
 30      -0.001636115188
 31      -0.000276697970
 32      -0.000270251945
 33       0.000833084861
 34      -0.004650152617
 35       0.006864335327
 36       0.002700467791
 37      -0.000108072481
 38       0.001402769722
 39      -0.004199528503
 40       0.007430880131
 41      -0.002562540120
 42      -0.000775354562
 43       0.001393381354
 44      -0.001956566282
 45       0.000309196518
 46      -0.005012431007
 47       0.000287747168
 48      -0.000006953850
 49       0.000003828928
 50      -0.002733203228
 51      -0.000143377893
 52       0.002250700830
 53       0.000194300352
 54       0.000200444283
 55      -0.000076722081
 56       0.000183379979
 57      -0.000069970299
 58      -0.000447185190
 59      -0.001173094152
 60      -0.000005329594
 61       0.000100469157
 62       0.000049177785
 63       0.000657318358
 64       0.000987674709
 65       0.000069195005
 66      -0.000104643607
 67      -0.000147662810
 68      -0.000060782415
 69       0.002666432777
 70       0.000055443003
 71       0.000173023542
 72      -0.000218422497
 73      -0.000002666902
 74       0.000005114420
 75      -0.000045178313
 76       0.000377576746
 77      -0.001016708934
 78       0.000000288434
 79       0.000006320151
 80       0.000004755186
 81      -0.000001103506
 82      -0.000021906613
 83      -0.000016507814
 84       0.000011741812
 85       0.000120549408
 86       0.000090264015
 87      -0.000100644668
 88      -0.000596010333
 89      -0.000378974980
 90      -0.000000035641
 91      -0.000002264494
 92      -0.000012054654
 93       0.000005681176
 94      -0.000002364316
 95      -0.000000125500
 96       0.000010579437
 97       0.000055987867
 98      -0.000027260951
 99       0.000011226286
100       0.000005927866
101      -0.000030720003
102      -0.000158788637
103       0.000089865990
104      -0.000035986554
 Sym=     1a
 Ene= -8.66525461308818E+00
 Spin= Alpha
 Occup= 1.000000
  1      -0.000034215456
  2       0.000422436926
  3      -0.000965730758
  4      -0.000043826806
  5      -0.000073982369
  6      -0.000029571816
  7      -0.000071583548
  8       0.000355773505
  9      -0.000772672496
 10       0.000011595484
 11      -0.000008878231
 12      -0.000010140997
 13       0.000010856514
 14       0.000026895058
 15      -0.000010080307
 16       0.000056906425
 17       0.001074557696
 18      -0.000004348870
 19      -0.000016644969
 20      -0.000015637099
 21      -0.000039613866
 22       0.000157903600
 23      -0.000527283082
 24       0.000000184180
 25       0.000009355224
 26       0.000005795689
 27       0.000021477529
 28       0.000003364300
 29       0.000030701825
 30      -0.000021365759
 31       0.000011671116
 32      -0.000008899333
 33       0.000000780936
 34      -0.000013636527
 35       0.000028278896
 36      -0.000004753163
 37      -0.000010281329
 38       0.000014769774
 39       0.000012992786
 40      -0.000018559608
 41       0.000003191632
 42      -0.000000442776
 43       0.000006719808
 44      -0.000027808981
 45       0.000736736558
 46      -0.006706851139
 47       0.000056455079
 48       0.000059722077
 49       0.000030093925
 50      -0.000344345144
 51       0.002343191533
 52       0.001469376806
 53       0.000039645870
 54      -0.000030436020
 55      -0.000143330109
 56       0.000139186120
 57      -0.000020781605
 58       0.000032589259
 59       0.000001106758
 60      -0.000024755182
 61      -0.000010596064
 62       0.000028891123
 63       0.000218709414
 64       0.000215444536
 65       0.000042082984
 66       0.000006755848
 67      -0.000032009352
 68      -0.000042543547
 69       0.009541631220
 70       0.000007147631
 71       0.000299503536
 72       0.000148996589
 73       0.136666035143
 74      -0.516893002160
 75       1.093488369938
 76       0.032352761901
 77      -0.014059325993
 78      -0.000053615290
 79      -0.000358969888
 80      -0.000170482807
 81       0.000118158405
 82       0.000818057726
 83       0.000386520956
 84       0.000188069308
 85       0.000848768036
 86       0.000435267572
 87      -0.000606001257
 88      -0.002852293430
 89      -0.001474270913
 90      -0.000321696023
 91       0.000128086802
 92       0.000965700089
 93      -0.000979968014
 94       0.000265707309
 95      -0.000277985480
 96       0.000132610398
 97       0.000856841990
 98      -0.000852076746
 99       0.000270031971
100       0.000178828093
101      -0.000128644120
102      -0.000616266397
103       0.000573440298
104      -0.000253087831
 Sym=     1a
 Ene= -6.50205376484601E+00
 Spin= Alpha
 Occup= 1.000000
  1      -0.000017698363
  2       0.000254660253
  3      -0.000651513480
  4      -0.000026020279
  5      -0.000044767537
  6      -0.000018199179
  7       0.000059500557
  8       0.000239922738
  9      -0.000321648000
 10       0.000004622188
 11      -0.000007072265
 12      -0.000009373576
 13       0.000005150945
 14       0.000008410730
 15      -0.000005896542