
                                 *****************
                                 * O   R   C   A *
                                 *****************

                                            #,                                       
                                            ###                                      
                                            ####                                     
                                            #####                                    
                                            ######                                   
                                           ########,                                 
                                     ,,################,,,,,                         
                               ,,#################################,,                 
                          ,,##########################################,,             
                       ,#########################################, ''#####,          
                    ,#############################################,,   '####,        
                  ,##################################################,,,,####,       
                ,###########''''           ''''###############################       
              ,#####''   ,,,,##########,,,,          '''####'''          '####       
            ,##' ,,,,###########################,,,                        '##       
           ' ,,###''''                  '''############,,,                           
         ,,##''                                '''############,,,,        ,,,,,,###''
      ,#''                                            '''#######################'''  
     '                                                          ''''####''''         
             ,#######,   #######,   ,#######,      ##                                
            ,#'     '#,  ##    ##  ,#'     '#,    #''#        ,####,    ,#,          
            ##       ##  ##   ,#'  ##            #'  '#       #'       ,# #          
            ##       ##  #######   ##           ,######,      #####,      #          
            '#,     ,#'  ##    ##  '#,     ,#' ,#      #,     #,   #      #          
             '#######'   ##     ##  '#######'  #'      '#     '####' #    #          



                #########################################################
                #                        -***-                          #
                #          Department of theory and spectroscopy        #
                #                                                       #
                #                      Frank Neese                      #
                #                                                       #
                #     Directorship, Architecture, Infrastructure        #
                #                    SHARK, DRIVERS                     #
                #        Core code/Algorithms in most modules           #
                #                                                       #
                #        Max Planck Institute fuer Kohlenforschung      #
                #                Kaiser Wilhelm Platz 1                 #
                #                 D-45470 Muelheim/Ruhr                 #
                #                      Germany                          #
                #                                                       #
                #                  All rights reserved                  #
                #                        -***-                          #
                #########################################################


                         Program Version 6.1.0  -  RELEASE   -
                                (GIT: $679e74b$)
                          ($2025-06-10 18:02:51 +0200$)


 With contributions from (in alphabetic order):
[Max-Planck-Institut fuer Kohlenforschung]                               
  Daniel Aravena         : Magnetic Suceptibility                        
  Michael Atanasov       : Ab Initio Ligand Field Theory (pilot matlab implementation)
  Alexander A. Auer      : GIAO ZORA, VPT2 properties, NMR spectrum      
  Ute Becker             : All parallelization in ORCA, NUMFREQ, NUMCALC 
  Giovanni Bistoni       : ED, misc. LED, open-shell LED, HFLD           
  Dmytro Bykov           : pre 5.0 version of the SCF Hessian            
  Marcos Casanova-Páez   : Triplet and SCS-CIS(D). UHF-(DLPNO)-IP/EA/STEOM-CCSD. UHF-CVS-IP/STEOM-CCSD   
  Vijay G. Chilkuri      : MRCI spin determinant printing, contributions to CSF-ICE 
  Pauline Colinet        : FMM embedding                                 
  Dipayan Datta          : RHF DLPNO-CCSD density                        
  Achintya Kumar Dutta   : EOM-CC, STEOM-CC                              
  Nicolas Foglia         : Exact transition moments, OPA infrastructure, MCD improvements    
  Dmitry Ganyushin       : Spin-Orbit,Spin-Spin,Magnetic field MRCI      
  Miquel Garcia-Rates    : C-PCM and meta-GGA Hessian, CCSD/C-PCM, Gaussian charge scheme 
  Tiago L. C. Gouveia    : GS-ROHF, GS-ROCIS                             
  Yang Guo               : DLPNO-NEVPT2, F12-NEVPT2, CIM, IAO-localization        
  Andreas Hansen         : Spin unrestricted coupled pair/coupled cluster methods 
  Ingolf Harden          : AUTO-CI MPn and infrastructure                
  Benjamin Helmich-Paris : MC-RPA, TRAH-(SCF,CASSCF), AVAS, COSX integrals, SCF dyn. polar., MC-PDFT, srDFT 
  Lee Huntington         : MR-EOM, pCC                                   
  Robert Izsak           : Overlap fitted RIJCOSX, COSX-SCS-MP3, EOM     
  Riya Kayal             : Wick's Theorem for AUTO-CI, AUTO-CI UHF-CCSDT 
  Emily Kempfer          : AUTO-CI RHF CISDT and CCSDT, approximate NEVPT4
  Christian Kollmar      : KDIIS, OOCD, Brueckner-CCSD(T), CCSD density, CASPT2, CASPT2-K, improved NEVPT2 
  Axel Koslowski         : Symmetry handling                             
  Simone Kossmann        : meta-GGA functionals, TD-DFT gradient, OOMP2, (MP2 Hessian; deprecated post 5.0) 
  Lucas Lang             : DCDCAS, Hyperfine gauge corrections, ICE-SOC+SSC
  Marvin Lechner         : AUTO-CI (C++ implementation), FIC-MRCC        
  Spencer Leger          : CASSCF response                               
  Dagmar Lenk            : GEPOL surface, SMD, ORCA-2-JSON               
  Dimitrios Liakos       : Extrapolation schemes; Compound Job, Property file
  Dimitrios Manganas     : Further ROCIS development; embedding schemes. LFT, Crystal Embedding 
  Dimitrios Pantazis     : SARC Basis sets                               
  Anastasios Papadopoulos: AUTO-CI, single reference methods and gradients 
  Taras Petrenko         : pre 6.0 DFT Hessian and TD-DFT gradient,  ECA, NRVS 
  Petra Pikulova         : Analytic Raman intensities                    
  Peter Pinski           : DLPNO-MP2, DLPNO-MP2 Gradient                 
  Shashank Vittal Rao    : ES-AILFT, MagRelax                            
  Christoph Reimann      : Effective Core Potentials                     
  Marius Retegan         : Local ZFS, SOC                                
  Christoph Riplinger    : Optimizer, TS searches, QM/MM, DLPNO-CCSD(T), (RO)-DLPNO pert. Triples 
  Michael Roemelt        : Original ROCIS implementation, recursive CI coupling coefficients
  Masaaki Saitow         : Open-shell DLPNO-CCSD energy and density      
  Barbara Sandhoefer     : DKH picture change effects                    
  Yorick L. A. Schmerwitz: GMF and freeze-and-release deltaSCF, NEB S-IDPP initial path                    
  Kantharuban Sivalingam : CASSCF convergence/infrastructure, NEVPT2, NEVPT3, NEVPT4(SD), FIC-MRCI and CEPA variants
  Bernardo de Souza      : ESD, SOC TD-DFT                               
  Georgi L. Stoychev     : AutoAux, RI-MP2 NMR, DLPNO-MP2 response, X2C  
  Van Anh Tran           : RI-MP2 g-tensors                              
  Willem Van den Heuvel  : Paramagnetic NMR                              
  Zikuan Wang            : NOTCH, Electric field optimization            
  Frank Wennmohs         : Technical directorship and infrastructure     
  Hang Xu                : AUTO-CI-Response properties                   
                                                                         
[FACCTs GmbH]                                                            
  Markus Bursch, Nicolas Foglia, Miquel Garcia-Rates, Ingolf Harden, Hagen Neugebauer, Anastasios Papadopoulos, 
  Christoph Riplinger, Bernardo de Souza, Georgi L. Stoychev                                                    
                                                                 
  APM, various basis sets, CI-OPT, improved COSX, DLPNO-Multilevel,           
  DOCKER, DRACO, updates on ESD, Fragmentator, GOAT, IRC, LR-CPCM, L-BFGS, MBIS, meta-GGA TD-DFT gradient, ML-optimized integration grids, 
  MM, NACMEs, nearIR, NEB, NEB-TS, NL-DFT gradient (VV10), 2- and 3-layer-ONIOM, interface openCOSMO-RS, QMMM,   
  Crystal-QMMM, RESP, rigid body optimization, SF, symmetry and pop. for TD-DFT, various functionals, SOLVATOR                                   
                                                                         
[Other institutions]                                                     
  V. Asgeirsson          : NEB                                           
  Christoph Bannwarth    : sTDA-DFT, sTD-DFT, PBEh-3c, B97-3c, D3        
  Giovanni Bistoni       : ETS/NOCV, ADLD/ADEX, COVALED                  
  Martin Brehm           : Molecular dynamics                            
  Ronald Cardenas        : ETS/NOCV                                      
  Martina Colucci        : COVALED                                       
  Sebastian Ehlert       : rSCAN, r2SCAN, r2SCAN-3c, D4, dhf basis sets  
  Marvin Friede          : D4 for Fr, Ra, Ac-Lr                          
  Lars Goerigk           : TD-DFT with DH, B97 family of functionals     
  Stefan Grimme          : VdW corrections, initial TS optimization, DFT functionals, gCP, sTDA/sTD-DF 
  Waldemar Hujo          : DFT-NL                                        
  H. Jonsson             : NEB                                           
  Holger Kruse           : gCP                                           
  Marcel Mueller         : wB97X-3c, vDZP basis set                      
  Hagen Neugebauer       : wr2SCAN, Native XTB                           
  Gianluca Regni         : ADLD/ADEX                                     
  Tobias Risthaus        : pre 6.0 range-separated hybrid DFT and stability analysis
  Lukas Wittmann         : regularized MP2, r2SCAN double-hybrids, wr2SCAN        
                                                                         
We gratefully acknowledge several colleagues who have allowed us to      
interface, adapt or use parts of their codes:                            
  Ed Valeev, F. Pavosevic, A. Kumar             : LibInt (2-el integral package), F12 methods 
  Garnet Chan, S. Sharma, J. Yang, R. Olivares  : DMRG                   
  Ulf Ekstrom                                   : XCFun DFT Library      
  Mihaly Kallay                                 : mrcc  (arbitrary order and MRCC methods)
  Frank Weinhold                                : gennbo (NPA and NBO analysis)           
  Simon Mueller                                 : openCOSMO-RS                            
  Christopher J. Cramer and Donald G. Truhlar   : smd solvation model                     
  S Lehtola, MJT Oliveira, MAL Marques          : LibXC Library                           
  Liviu Ungur et al                             : ANISO software                          


 Your calculation uses the libint2 library for the computation of 2-el integrals
 For citations please refer to: http://libint.valeyev.net

 Your ORCA version has been built with support for libXC version: 7.0.0
 For citations please refer to: https://libxc.gitlab.io

 This ORCA versions uses:
   CBLAS   interface :  Fast vector & matrix operations
   LAPACKE interface :  Fast linear algebra routines
   SCALAPACK package :  Parallel linear algebra routines
   Shared memory     :  Shared parallel matrices
   BLAS/LAPACK       :  OpenBLAS 0.3.29  USE64BITINT DYNAMIC_ARCH NO_AFFINITY Zen SINGLE_THREADED
        Core in use  :  Zen
   Copyright (c) 2011-2014, The OpenBLAS Project


  ***********************************
  * Starting time: Sun Apr  5 14:29:32 2026
  * Host name:     QC1
  * Process ID:    24720
  * Working dir.:  /home/user/QC/radical/allyl/split-ts1_2
  ***********************************

NOTE: MaxCore=1200 MB was set to SCF,MP2,MDCI,CIPSI,MRCI,RASCI and CIS
      => If you want to overwrite this, your respective input block should be placed after the MaxCore statement
Warning: RI is on but no J-basis has been assigned. Assigning Def2/J (nothing to worry about!)
================================================================================

----- Orbital basis set information -----
Your calculation utilizes the basis: def-SVP
   H-Kr: A. Schäfer, H. Horn, R. Ahlrichs; J. Chem. Phys. 97, 2571 (1992)
   Rb-At: K. Eichkorn, F. Weigend, O. Treutler, R. Ahlrichs; Theor. Chem. Acc. 97, 119 (1997)
   Rn: F. Weigend, R. Ahlrichs; Phys. Chem. Chem. Phys. 7, 3297 (2005)
   Fr-Ra: I. S. Lim, P. Schwerdtfeger, B. Metz, H. Stoll, J. Chem. Phys. 122, 104103 (2005)
   Ac-Lr: X. Cao, M. Dolg, J. Molec. Struct. Theochem. 673 (2004)
----- AuxJ basis set information -----
Your calculation utilizes the auxiliary basis: def2/J
   H-Rn: F. Weigend, Phys. Chem. Chem. Phys. 8, 1057 (2006).
   Fr-Lr: K. Eichkorn, F. Weigend, O. Treutler, R. Ahlrichs; Theor. Chem. Acc. 97, 119 (1997).

================================================================================
                                        WARNINGS
                       Please study these warnings very carefully!
================================================================================


WARNING: your system is open-shell and RHF/RKS was chosen
  ===> : WILL SWITCH to UHF/UKS


================================================================================
                                       INPUT FILE
================================================================================
NAME = radical_003.inp
|  1> ! B3LYP def-SVP 
|  2> %maxcore 1200
|  3> %pal nprocs 8 end
|  4> * xyz 0 2
|  5> C    0.64283700   0.42904000   0.19126600
|  6> C    0.69859500   0.06419500   1.48415100
|  7> H    1.57511900   0.67970200  -0.33044100
|  8> H    1.64742300   0.02772900   2.02751600
|  9> H   -0.20329300  -0.22346000   2.03518700
| 10> C   -0.59159500   0.43891400  -0.61853800
| 11> H   -1.52128900   0.49372300  -0.03390500
| 12> H   -0.59598700   1.16537800  -1.44464600
| 13> H   -0.65387100  -0.58177800  -1.16528100
| 14> Br  -0.98881000  -2.31587600  -2.05957900
| 15> *
| 16> 
| 17>                          ****END OF INPUT****
================================================================================

                       ****************************
                       * Single Point Calculation *
                       ****************************

---------------------------------
CARTESIAN COORDINATES (ANGSTROEM)
---------------------------------
  C      0.642837    0.429040    0.191266
  C      0.698595    0.064195    1.484151
  H      1.575119    0.679702   -0.330441
  H      1.647423    0.027729    2.027516
  H     -0.203293   -0.223460    2.035187
  C     -0.591595    0.438914   -0.618538
  H     -1.521289    0.493723   -0.033905
  H     -0.595987    1.165378   -1.444646
  H     -0.653871   -0.581778   -1.165281
  Br    -0.988810   -2.315876   -2.059579

----------------------------
CARTESIAN COORDINATES (A.U.)
----------------------------
  NO LB      ZA    FRAG     MASS         X           Y           Z
   0 C     6.0000    0    12.011    1.214786    0.810768    0.361440
   1 C     6.0000    0    12.011    1.320153    0.121311    2.804639
   2 H     1.0000    0     1.008    2.976544    1.284451   -0.624443
   3 H     1.0000    0     1.008    3.113178    0.052400    3.831450
   4 H     1.0000    0     1.008   -0.384168   -0.422278    3.845946
   5 C     6.0000    0    12.011   -1.117953    0.829427   -1.168867
   6 H     1.0000    0     1.008   -2.874820    0.933001   -0.064071
   7 H     1.0000    0     1.008   -1.126252    2.202245   -2.729985
   8 H     1.0000    0     1.008   -1.235637   -1.099401   -2.202062
   9 Br   35.0000    0    79.900   -1.868580   -4.376371   -3.892040

--------------------------------
INTERNAL COORDINATES (ANGSTROEM)
--------------------------------
 C      0   0   0     0.000000000000     0.00000000     0.00000000
 C      1   0   0     1.344534288077     0.00000000     0.00000000
 H      1   2   0     1.097341951999   118.94153682     0.00000000
 H      2   1   3     1.094006337260   121.50727957     0.97573071
 H      2   1   3     1.095348363246   121.38996819   181.86754257
 C      1   2   3     1.476381514689   124.32762436   176.01181856
 H      6   1   2     1.099604794827   114.55893016    21.87273735
 H      6   1   2     1.100101659222   114.81239365   152.48385313
 H      6   1   2     1.159576805170   107.31586837   266.44271171
 Br     9   6   1     1.979658788814   173.27876937   141.79006827

---------------------------
INTERNAL COORDINATES (A.U.)
---------------------------
 C      0   0   0     0.000000000000     0.00000000     0.00000000
 C      1   0   0     2.540801582132     0.00000000     0.00000000
 H      1   2   0     2.073675764541   118.94153682     0.00000000
 H      2   1   3     2.067372366196   121.50727957     0.97573071
 H      2   1   3     2.069908427773   121.38996819   181.86754257
 C      1   2   3     2.789956731946   124.32762436   176.01181856
 H      6   1   2     2.077951917769   114.55893016    21.87273735
 H      6   1   2     2.078890855403   114.81239365   152.48385313
 H      6   1   2     2.191282593019   107.31586837   266.44271171
 Br     9   6   1     3.741012949469   173.27876937   141.79006827

---------------------
BASIS SET INFORMATION
---------------------
There are 3 groups of distinct atoms

 Group   1 Type C   : 7s4p1d contracted to 3s2p1d pattern {511/31/1}
 Group   2 Type H   : 4s1p contracted to 2s1p pattern {31/1}
 Group   3 Type Br  : 14s10p6d contracted to 5s4p3d pattern {63311/5311/411}

Atom   0C    basis set group =>   1
Atom   1C    basis set group =>   1
Atom   2H    basis set group =>   2
Atom   3H    basis set group =>   2
Atom   4H    basis set group =>   2
Atom   5C    basis set group =>   1
Atom   6H    basis set group =>   2
Atom   7H    basis set group =>   2
Atom   8H    basis set group =>   2
Atom   9Br   basis set group =>   3
---------------------------------
AUXILIARY/J BASIS SET INFORMATION
---------------------------------
There are 3 groups of distinct atoms

 Group   1 Type C   : 12s5p4d2f1g contracted to 6s4p3d1f1g pattern {711111/2111/211/2/1}
 Group   2 Type H   : 5s2p1d contracted to 3s1p1d pattern {311/2/1}
 Group   3 Type Br  : 19s5p5d3f1g contracted to 8s4p3d2f1g pattern {121111111/2111/311/21/1}

Atom   0C    basis set group =>   1
Atom   1C    basis set group =>   1
Atom   2H    basis set group =>   2
Atom   3H    basis set group =>   2
Atom   4H    basis set group =>   2
Atom   5C    basis set group =>   1
Atom   6H    basis set group =>   2
Atom   7H    basis set group =>   2
Atom   8H    basis set group =>   2
Atom   9Br   basis set group =>   3


           ************************************************************
           *        Program running with 8 parallel MPI-processes     *
           *              working on a common directory               *
           ************************************************************
------------------------------------------------------------------------------
                             ORCA STARTUP CALCULATIONS
                           -- RI-GTO INTEGRALS CHOSEN --
------------------------------------------------------------------------------
------------------------------------------------------------------------------
                   ___                                                        
                  /   \      - P O W E R E D   B Y -                         
                 /     \                                                     
                 |  |  |   _    _      __       _____    __    __             
                 |  |  |  | |  | |    /  \     |  _  \  |  |  /  |          
                  \  \/   | |  | |   /    \    | | | |  |  | /  /          
                 / \  \   | |__| |  /  /\  \   | |_| |  |  |/  /          
                |  |  |   |  __  | /  /__\  \  |    /   |      \           
                |  |  |   | |  | | |   __   |  |    \   |  |\   \          
                \     /   | |  | | |  |  |  |  | |\  \  |  | \   \       
                 \___/    |_|  |_| |__|  |__|  |_| \__\ |__|  \__/        
                                                                              
                      - O R C A' S   B I G   F R I E N D -                    
                                      &                                       
                       - I N T E G R A L  F E E D E R -                       
                                                                              
 v1 FN, 2020, v2 2021, v3 2022-2024                                           
------------------------------------------------------------------------------


----------------------
SHARK INTEGRAL PACKAGE
----------------------

Number of atoms                             ...     10
Number of basis functions                   ...    104
Number of shells                            ...     48
Maximum angular momentum                    ...      2
Integral batch strategy                     ... SHARK/LIBINT Hybrid
RI-J (if used) integral strategy            ... SPLIT-RIJ (Revised 2003 algorithm where possible)
Printlevel                                  ...      1
Contraction scheme used                     ... SEGMENTED contraction
Prescreening option                         ... SCHWARTZ
   Thresh                                   ... 1.000e-10
   Tcut                                     ... 1.000e-11
   Tpresel                                  ... 1.000e-11 
Coulomb Range Separation                    ... NOT USED
Exchange Range Separation                   ... NOT USED
Multipole approximations                    ... NOT USED
Finite Nucleus Model                        ... NOT USED
CABS basis                                  ... NOT available
Auxiliary Coulomb fitting basis             ... AVAILABLE
   # of basis functions in Aux-J            ...    271
   # of shells in Aux-J                     ...     93
   Maximum angular momentum in Aux-J        ...      4
Auxiliary J/K fitting basis                 ... NOT available
Auxiliary Correlation fitting basis         ... NOT available
Auxiliary 'external' fitting basis          ... NOT available

Checking pre-screening integrals            ... done (  0.0 sec) Dimension = 48
   => SHARK Basis and OBASIS are compatible. Storing Pre-screening
Shell pair information
Shell pair cut-off parameter TPreSel        ...   1.0e-11
Total number of shell pairs                 ...      1176
Shell pairs after pre-screening             ...      1077
Total number of primitive shell pairs       ...      4753
Primitive shell pairs kept                  ...      3280
          la=0 lb=0:    330 shell pairs
          la=1 lb=0:    383 shell pairs
          la=1 lb=1:    124 shell pairs
          la=2 lb=0:    138 shell pairs
          la=2 lb=1:     84 shell pairs
          la=2 lb=2:     18 shell pairs

Checking whether 4 symmetric matrices of dimension 104 fit in memory
:Max Core in MB      =   1200.00
 MB in use           =      4.71
 MB left             =   1195.29
 MB needed           =      0.17
 Data fit in memory  = YES
Calculating RI/J V-Matrix + Cholesky decomp.... done (  0.0 sec)
Calculating Nuclear repulsion               ... done (  0.0 sec) ENN=    190.155866079280 Eh

Diagonalization of the overlap matrix:
Smallest eigenvalue                        ... 2.764e-03
Time for diagonalization                   ...    0.001 sec
Threshold for overlap eigenvalues          ... 1.000e-07
Number of eigenvalues below threshold      ... 0
Time for construction of square roots      ...    0.000 sec
Total time needed                          ...    0.002 sec

-------------------
DFT GRID GENERATION
-------------------

General Integration Accuracy     IntAcc      ... 4.388
Radial Grid Type                 RadialGrid  ... OptM3 with GC (2021)
Angular Grid (max. ang.)         AngularGrid ... 4 (Lebedev-302)
Angular grid pruning method      GridPruning ... 4 (adaptive)
Weight generation scheme         WeightScheme... mBecke (2022)
Basis function cutoff            BFCut       ... 1.0000e-10
Integration weight cutoff        WCut        ... 1.0000e-14
Partially contracted basis set               ... off
Rotationally invariant grid construction     ... off
Angular grids for H and He will be reduced by one unit
Core-polarized basis detected: some atoms will have their core
                               angular grid increased.

Total number of grid points                  ...    48997
Total number of batches                      ...      773
Average number of points per batch           ...       63
Average number of grid points per atom       ...     4900

--------------------
COSX GRID GENERATION
--------------------

GRIDX 1
-------
General Integration Accuracy     IntAcc      ... 3.816
Radial Grid Type                 RadialGrid  ... OptM3 with GC (2021)
Angular Grid (max. ang.)         AngularGrid ... 1 (Lebedev-50)
Angular grid pruning method      GridPruning ... 4 (adaptive)
Weight generation scheme         WeightScheme... mBecke (2022)
Basis function cutoff            BFCut       ... 1.0000e-10
Integration weight cutoff        WCut        ... 1.0000e-14
Partially contracted basis set               ... on
Rotationally invariant grid construction     ... off
Angular grids for H and He will be reduced by one unit
Core-polarized basis detected: some atoms will have their core
                               angular grid increased.

Total number of grid points                  ...    11060
Total number of batches                      ...       91
Average number of points per batch           ...      121
Average number of grid points per atom       ...     1106
UseSFitting                                  ... on

GRIDX 2
-------
General Integration Accuracy     IntAcc      ... 4.020
Radial Grid Type                 RadialGrid  ... OptM3 with GC (2021)
Angular Grid (max. ang.)         AngularGrid ... 2 (Lebedev-110)
Angular grid pruning method      GridPruning ... 4 (adaptive)
Weight generation scheme         WeightScheme... mBecke (2022)
Basis function cutoff            BFCut       ... 1.0000e-10
Integration weight cutoff        WCut        ... 1.0000e-14
Partially contracted basis set               ... on
Rotationally invariant grid construction     ... off
Angular grids for H and He will be reduced by one unit
Core-polarized basis detected: some atoms will have their core
                               angular grid increased.

Total number of grid points                  ...    16374
Total number of batches                      ...      132
Average number of points per batch           ...      124
Average number of grid points per atom       ...     1637
UseSFitting                                  ... on

GRIDX 3
-------
General Integration Accuracy     IntAcc      ... 4.338
Radial Grid Type                 RadialGrid  ... OptM3 with GC (2021)
Angular Grid (max. ang.)         AngularGrid ... 3 (Lebedev-194)
Angular grid pruning method      GridPruning ... 4 (adaptive)
Weight generation scheme         WeightScheme... mBecke (2022)
Basis function cutoff            BFCut       ... 1.0000e-10
Integration weight cutoff        WCut        ... 1.0000e-14
Partially contracted basis set               ... on
Rotationally invariant grid construction     ... off
Angular grids for H and He will be reduced by one unit
Core-polarized basis detected: some atoms will have their core
                               angular grid increased.

Total number of grid points                  ...    28553
Total number of batches                      ...      229
Average number of points per batch           ...      124
Average number of grid points per atom       ...     2855
UseSFitting                                  ... on
Grids setup in   0.4 sec
Initializing property integral containers    ... done (  0.0 sec)

SHARK setup successfully completed in   0.4 seconds

Maximum memory used throughout the entire STARTUP-calculation: 17.7 MB


           ************************************************************
           *        Program running with 8 parallel MPI-processes     *
           *              working on a common directory               *
           ************************************************************
-------------------------------------------------------------------------------
                                 ORCA GUESS
                   Start orbitals & Density for SCF / CASSCF
-------------------------------------------------------------------------------

------------
SCF SETTINGS
------------
Hamiltonian:
 Density Functional     Method          .... DFT(GTOs)
 Exchange Functional    Exchange        .... B88
   X-Alpha parameter    XAlpha          ....  0.666667
   Becke's b parameter  XBeta           ....  0.004200
 Correlation Functional Correlation     .... LYP
 LDA part of GGA corr.  LDAOpt          .... VWN-5
 Gradients option       PostSCFGGA      .... off
 Hybrid DFT is turned on
   Fraction HF Exchange ScalHFX         ....  0.200000
   Scaling of DF-GGA-X  ScalDFX         ....  0.720000
   Scaling of DF-GGA-C  ScalDFC         ....  0.810000
   Scaling of DF-LDA-C  ScalLDAC        ....  1.000000
   Perturbative correction              ....  0.000000
   NL short-range parameter             ....  4.800000
 RI-approximation to the Coulomb term is turned on
   Number of AuxJ basis functions       .... 271
   RIJ-COSX (HFX calculated with COS-X)).... on


General Settings:
 Integral files         IntName         .... radical_003
 Hartree-Fock type      HFTyp           .... UHF
 Total Charge           Charge          ....    0
 Multiplicity           Mult            ....    2
 Number of Electrons    NEL             ....   59
 Basis Dimension        Dim             ....  104
 Nuclear Repulsion      ENuc            ....    190.1558660793 Eh

Convergence Acceleration:
 AO-DIIS                CNVDIIS         .... on
   Start iteration      DIISMaxIt       ....    12
   Startup error        DIISStart       ....  0.200000
   # of expansion vecs  DIISMaxEq       ....     5
   Bias factor          DIISBfac        ....   1.050
   Max. coefficient     DIISMaxC        ....  10.000
 MO-DIIS                CNVKDIIS        .... off
 Trust-Rad. Augm. Hess. CNVTRAH         .... auto
   Auto Start mean grad. ratio tolernc. ....  1.125000
   Auto Start start iteration           ....    50
   Auto Start num. interpolation iter.  ....    10
   Max. Number of Micro iterations      ....    24
   Max. Number of Macro iterations      .... Maxiter - #DIIS iter
   Number of Davidson start vectors     ....     2
   Converg. threshold    (grad. norm)   ....   5.000e-05
   Grad. Scal. Fac. for Micro threshold ....   0.100
   Minimum threshold for Micro iter.    ....   1.000e-02
   NR start threshold (gradient norm)   ....   1.000e-04
   Initial trust radius                 ....   0.400
   Minimum AH scaling param. (alpha)    ....   1.000
   Maximum AH scaling param. (alpha)    .... 1000.000
   Quad. conv. algorithm                .... NR
   White noise on init. David. guess    .... on
   Maximum white noise                  ....   0.010
   Pseudo random numbers                .... off
   Inactive MOs                         .... canonical
   Orbital update algorithm             .... Taylor
   Preconditioner                       .... Diag
   Full preconditioner red. dimension   ....   250
 SOSCF                 CNVSOSCF           .... on
   Start iteration     SOSCFMaxIt         ....   150
   Startup grad/error  SOSCFStart         ....  0.003300
   Hessian update      SOSCFHessUp        .... L-BFGS
   Autom. constraints  SOSCFAutoConstrain .... off
 Level Shifting         CNVShift        .... on
   Level shift para.    LevelShift      ....    0.2500
   Turn off err/grad.   ShiftErr        ....    0.0010
 Zerner damping         CNVZerner       .... off
 Static damping         CNVDamp         .... on
   Fraction old density DampFac         ....    0.7000
   Max. Damping (<1)    DampMax         ....    0.9800
   Min. Damping (>=0)   DampMin         ....    0.0000
   Turn off err/grad.   DampErr         ....    0.1000

SCF Procedure:
 Maximum # iterations   MaxIter         ....   125
 SCF integral mode      SCFMode         .... Direct
   Integral package                     .... SHARK and LIBINT hybrid scheme
 Reset frequency        DirectResetFreq ....    20
 Integral Threshold     Thresh          ....  1.000e-10 Eh
 Primitive CutOff       TCut            ....  1.000e-11 Eh

Convergence Tolerance:
 Convergence Check Mode ConvCheckMode   .... Total+1el-Energy
 Convergence forced     ConvForced      .... 0
 Energy Change          TolE            ....  1.000e-06 Eh
 1-El. energy change                    ....  1.000e-03 Eh
 Orbital Gradient       TolG            ....  5.000e-05
 Orbital Rotation angle TolX            ....  5.000e-05
 DIIS Error             TolErr          ....  1.000e-06

------------------------------
INITIAL GUESS: MODEL POTENTIAL
------------------------------
Loading Hartree-Fock densities                     ... done
Calculating cut-offs                               ... done
Initializing the effective Hamiltonian             ... done
Setting up the integral package (SHARK)            ... done
Starting the Coulomb interaction                   ... done (   0.0 sec)
Making the grid                                    ... done (   0.1 sec)
Mapping shells                                     ... done
Starting the XC term evaluation                    ... done (   0.0 sec)
  promolecular density results
     # of electrons  =     58.997554741
     EX              =   -106.839573288
     EC              =     -2.448572361
     EX+EC           =   -109.288145649
Transforming the Hamiltonian                       ... done (   0.0 sec)
Diagonalizing the Hamiltonian                      ... done (   0.0 sec)
Back transforming the eigenvectors                 ... done (   0.0 sec)
Now organizing SCF variables                       ... done
                      ------------------
                      INITIAL GUESS DONE (   0.1 sec)
                      ------------------
             **** ENERGY FILE WAS UPDATED (radical_003.en.tmp) ****
Finished Guess after   0.4 sec
Maximum memory used throughout the entire GUESS-calculation: 8.9 MB


           ************************************************************
           *        Program running with 8 parallel MPI-processes     *
           *              working on a common directory               *
           ************************************************************

-------------------------------------------------------------------------------------------
                                      ORCA LEAN-SCF
                              memory conserving SCF solver
-------------------------------------------------------------------------------------------

----------------------------------------D-I-I-S--------------------------------------------
Iteration    Energy (Eh)           Delta-E    RMSDP     MaxDP     DIISErr   Damp  Time(sec)
-------------------------------------------------------------------------------------------
               ***  Starting incremental Fock matrix formation  ***
    1    -2691.3216171054828010     0.00e+00  4.61e-03  3.62e-02  7.71e-02  0.700   0.2
Warning: op=1 Small HOMO/LUMO gap (   0.061) - skipping pre-diagonalization
         Will do a full diagonalization
    2    -2691.3705008217498289    -4.89e-02  3.53e-03  2.15e-02  4.12e-02  0.700   0.2
                               ***Turning on AO-DIIS***
    3    -2691.3904029584537057    -1.99e-02  1.57e-03  1.26e-02  1.65e-02  0.700   0.2
    4    -2691.4013662337088135    -1.10e-02  3.00e-03  2.99e-02  8.49e-03  0.000   0.2
    5    -2691.4257730949029792    -2.44e-02  7.24e-04  5.27e-03  3.85e-03  0.000   0.2
                              *** Initializing SOSCF ***
---------------------------------------S-O-S-C-F--------------------------------------
Iteration    Energy (Eh)           Delta-E    RMSDP     MaxDP     MaxGrad    Time(sec)
--------------------------------------------------------------------------------------
    6    -2691.4262077861685611    -4.35e-04  3.24e-04  2.59e-03  1.98e-03     0.2
               *** Restarting incremental Fock matrix formation ***
    7    -2691.4262972700357750    -8.95e-05  4.83e-04  3.90e-03  2.39e-03     0.2
    8    -2691.4263611509354632    -6.39e-05  4.53e-04  2.78e-03  1.47e-03     0.2
    9    -2691.4263771154928691    -1.60e-05  1.47e-04  1.18e-03  7.01e-04     0.2
   10    -2691.4263872956885280    -1.02e-05  8.16e-05  5.98e-04  3.02e-04     0.2
   11    -2691.4263880706162126    -7.75e-07  4.74e-05  3.71e-04  2.32e-04     0.2
                 **** Energy Check signals convergence ****

               *****************************************************
               *                     SUCCESS                       *
               *           SCF CONVERGED AFTER  11 CYCLES          *
               *****************************************************

Recomputing exchange energy using gridx3       ... done (    0.236 sec)
Old exchange energy                            :    -21.428012276 Eh
New exchange energy                            :    -21.427974840 Eh
Exchange energy change after final integration :      0.000037435 Eh
Total energy after final integration           :  -2691.426351745 Eh
             **** ENERGY FILE WAS UPDATED (radical_003.en.tmp) ****

----------------
TOTAL SCF ENERGY
----------------

Total Energy       :      -2691.42635174549923 Eh          -73237.43435 eV

Components:
Nuclear Repulsion  :        190.15586607927980 Eh            5174.40418 eV
Electronic Energy  :      -2881.58225526025308 Eh          -78411.83955 eV
One Electron Energy:      -4117.56616201867928 Eh         -112044.67151 eV
Two Electron Energy:       1235.98390675842643 Eh           33632.83196 eV

Virial components:
Potential Energy   :      -5378.50643722603581 Eh         -146356.60078 eV
Kinetic Energy     :       2687.08008548053658 Eh           73119.16643 eV
Virial Ratio       :          2.00161746807937

DFT components:
N(Alpha)           :       29.999999459656 electrons
N(Beta)            :       28.999997187392 electrons
N(Total)           :       58.999996647048 electrons
E(X)               :      -85.243653352532 Eh       
E(C)               :       -2.872804010885 Eh       
E(XC)              :      -88.116457363417 Eh       

---------------
SCF CONVERGENCE
---------------

  Last Energy change         ...    7.7493e-07  Tolerance :   1.0000e-06
  Last MAX-Density change    ...    3.7147e-04  Tolerance :   1.0000e-05
  Last RMS-Density change    ...    4.7365e-05  Tolerance :   1.0000e-06
  Last DIIS Error            ...    1.9844e-03  Tolerance :   1.0000e-06
  Last Orbital Gradient      ...    2.3214e-04  Tolerance :   5.0000e-05
  Last Orbital Rotation      ...    1.0009e-03  Tolerance :   5.0000e-05


----------------------
UHF SPIN CONTAMINATION
----------------------

Warning: in a DFT calculation there is little theoretical justification to 
         calculate <S**2> as in Hartree-Fock theory. We will do it anyways
         but you should keep in mind that the values have only limited relevance

Expectation value of <S**2>     :     0.757457
Ideal value S*(S+1) for S=0.5   :     0.750000
Deviation                       :     0.007457

----------------
ORBITAL ENERGIES
----------------
                 SPIN UP ORBITALS
  NO   OCC          E(Eh)            E(eV) 
   0   1.0000    -482.767154    -13136.7621 
   1   1.0000     -62.450072     -1699.3528 
   2   1.0000     -56.283582     -1531.5541 
   3   1.0000     -56.279373     -1531.4396 
   4   1.0000     -56.279361     -1531.4393 
   5   1.0000     -10.217470      -278.0315 
   6   1.0000     -10.216486      -278.0047 
   7   1.0000     -10.210599      -277.8445 
   8   1.0000      -8.668237      -235.8747 
   9   1.0000      -6.505367      -177.0200 
  10   1.0000      -6.487289      -176.5281 
  11   1.0000      -6.487244      -176.5269 
  12   1.0000      -2.617710       -71.2315 
  13   1.0000      -2.613274       -71.1108 
  14   1.0000      -2.613243       -71.1100 
  15   1.0000      -2.599853       -70.7456 
  16   1.0000      -2.599852       -70.7456 
  17   1.0000      -0.807836       -21.9823 
  18   1.0000      -0.745329       -20.2814 
  19   1.0000      -0.702217       -19.1083 
  20   1.0000      -0.571950       -15.5635 
  21   1.0000      -0.491936       -13.3863 
  22   1.0000      -0.451587       -12.2883 
  23   1.0000      -0.446454       -12.1486 
  24   1.0000      -0.400089       -10.8870 
  25   1.0000      -0.373390       -10.1605 
  26   1.0000      -0.311480        -8.4758 
  27   1.0000      -0.274890        -7.4801 
  28   1.0000      -0.274671        -7.4742 
  29   1.0000      -0.266736        -7.2583 
  30   0.0000      -0.012584        -0.3424 
  31   0.0000       0.063350         1.7238 
  32   0.0000       0.080930         2.2022 
  33   0.0000       0.098446         2.6789 
  34   0.0000       0.136089         3.7032 
  35   0.0000       0.140825         3.8320 
  36   0.0000       0.181846         4.9483 
  37   0.0000       0.242002         6.5852 
  38   0.0000       0.318589         8.6692 
  39   0.0000       0.355485         9.6733 
  40   0.0000       0.377354        10.2683 

                 SPIN DOWN ORBITALS
  NO   OCC          E(Eh)            E(eV) 
   0   1.0000    -482.765164    -13136.7080 
   1   1.0000     -62.449019     -1699.3242 
   2   1.0000     -56.279380     -1531.4398 
   3   1.0000     -56.278603     -1531.4187 
   4   1.0000     -56.278592     -1531.4183 
   5   1.0000     -10.217335      -278.0278 
   6   1.0000     -10.213858      -277.9332 
   7   1.0000     -10.208014      -277.7742 
   8   1.0000      -8.665271      -235.7940 
   9   1.0000      -6.497246      -176.7991 
  10   1.0000      -6.485949      -176.4916 
  11   1.0000      -6.485904      -176.4904 
  12   1.0000      -2.611930       -71.0742 
  13   1.0000      -2.608791       -70.9888 
  14   1.0000      -2.608759       -70.9879 
  15   1.0000      -2.599090       -70.7248 
  16   1.0000      -2.599089       -70.7248 
  17   1.0000      -0.803136       -21.8544 
  18   1.0000      -0.717763       -19.5313 
  19   1.0000      -0.689940       -18.7742 
  20   1.0000      -0.569185       -15.4883 
  21   1.0000      -0.489622       -13.3233 
  22   1.0000      -0.447737       -12.1835 
  23   1.0000      -0.427931       -11.6446 
  24   1.0000      -0.397257       -10.8099 
  25   1.0000      -0.371793       -10.1170 
  26   1.0000      -0.280358        -7.6289 
  27   1.0000      -0.264701        -7.2029 
  28   1.0000      -0.264398        -7.1946 
  29   0.0000      -0.181845        -4.9483 
  30   0.0000      -0.004931        -0.1342 
  31   0.0000       0.064518         1.7556 
  32   0.0000       0.082077         2.2334 
  33   0.0000       0.100385         2.7316 
  34   0.0000       0.137901         3.7525 
  35   0.0000       0.141710         3.8561 
  36   0.0000       0.193850         5.2749 
  37   0.0000       0.243523         6.6266 
  38   0.0000       0.321130         8.7384 
  39   0.0000       0.365304         9.9404 
*Only the first 10 virtual orbitals were printed.

                    ********************************
                    * MULLIKEN POPULATION ANALYSIS *
                    ********************************

--------------------------------------------
MULLIKEN ATOMIC CHARGES AND SPIN POPULATIONS
--------------------------------------------
   0 C :   -0.091691   -0.065814
   1 C :   -0.004839    0.197602
   2 H :    0.023638    0.002390
   3 H :    0.039067   -0.008447
   4 H :    0.031760   -0.008326
   5 C :    0.066421    0.186685
   6 H :    0.041788   -0.002403
   7 H :    0.040323    0.001226
   8 H :    0.040139   -0.021793
   9 Br:   -0.186606    0.718880
Sum of atomic charges         :    0.0000000
Sum of atomic spin populations:    1.0000000

-----------------------------------------------------
MULLIKEN REDUCED ORBITAL CHARGES AND SPIN POPULATIONS
-----------------------------------------------------
CHARGE
  0 C s       :     3.161425  s :     3.161425
      pz      :     0.976745  p :     2.894273
      px      :     0.965058
      py      :     0.952470
      dz2     :     0.008776  d :     0.035993
      dxz     :     0.013029
      dyz     :     0.006729
      dx2y2   :     0.004443
      dxy     :     0.003017

  1 C s       :     3.121887  s :     3.121887
      pz      :     0.976602  p :     2.856682
      px      :     0.930521
      py      :     0.949560
      dz2     :     0.006894  d :     0.026270
      dxz     :     0.010635
      dyz     :     0.004896
      dx2y2   :     0.002763
      dxy     :     0.001082

  2 H s       :     0.954006  s :     0.954006
      pz      :     0.006028  p :     0.022356
      px      :     0.011607
      py      :     0.004722

  3 H s       :     0.937573  s :     0.937573
      pz      :     0.006663  p :     0.023360
      px      :     0.012242
      py      :     0.004455

  4 H s       :     0.944930  s :     0.944930
      pz      :     0.006822  p :     0.023310
      px      :     0.011358
      py      :     0.005130

  5 C s       :     2.966861  s :     2.966861
      pz      :     0.983353  p :     2.937571
      px      :     0.975810
      py      :     0.978408
      dz2     :     0.002850  d :     0.029146
      dxz     :     0.007808
      dyz     :     0.008017
      dx2y2   :     0.008297
      dxy     :     0.002175

  6 H s       :     0.935231  s :     0.935231
      pz      :     0.007028  p :     0.022982
      px      :     0.011314
      py      :     0.004640

  7 H s       :     0.936483  s :     0.936483
      pz      :     0.009769  p :     0.023194
      px      :     0.003970
      py      :     0.009455

  8 H s       :     0.929298  s :     0.929298
      pz      :     0.008626  p :     0.030563
      px      :     0.005498
      py      :     0.016439

  9 Brs       :     7.981741  s :     7.981741
      pz      :     5.849505  p :    17.196459
      px      :     5.981833
      py      :     5.365120
      dz2     :     2.000421  d :    10.008406
      dxz     :     2.000164
      dyz     :     2.003786
      dx2y2   :     2.003422
      dxy     :     2.000613


SPIN
  0 C s       :    -0.009702  s :    -0.009702
      pz      :    -0.009071  p :    -0.058593
      px      :    -0.007030
      py      :    -0.042492
      dz2     :     0.000533  d :     0.002480
      dxz     :    -0.000004
      dyz     :     0.001366
      dx2y2   :     0.000149
      dxy     :     0.000436

  1 C s       :     0.019228  s :     0.019228
      pz      :     0.015496  p :     0.178905
      px      :     0.011941
      py      :     0.151469
      dz2     :    -0.000128  d :    -0.000530
      dxz     :    -0.000003
      dyz     :    -0.000152
      dx2y2   :    -0.000218
      dxy     :    -0.000030

  2 H s       :     0.002641  s :     0.002641
      pz      :    -0.000012  p :    -0.000251
      px      :    -0.000013
      py      :    -0.000226

  3 H s       :    -0.009256  s :    -0.009256
      pz      :     0.000048  p :     0.000809
      px      :     0.000043
      py      :     0.000718

  4 H s       :    -0.009064  s :    -0.009064
      pz      :     0.000023  p :     0.000738
      px      :     0.000040
      py      :     0.000675

  5 C s       :     0.015502  s :     0.015502
      pz      :     0.035113  p :     0.171524
      px      :     0.007104
      py      :     0.129306
      dz2     :     0.000032  d :    -0.000340
      dxz     :    -0.000159
      dyz     :    -0.000027
      dx2y2   :    -0.000005
      dxy     :    -0.000180

  6 H s       :    -0.003099  s :    -0.003099
      pz      :     0.000021  p :     0.000696
      px      :     0.000090
      py      :     0.000585

  7 H s       :     0.000420  s :     0.000420
      pz      :     0.000485  p :     0.000806
      px      :    -0.000010
      py      :     0.000331

  8 H s       :    -0.030856  s :    -0.030856
      pz      :     0.001905  p :     0.009063
      px      :     0.000170
      py      :     0.006988

  9 Brs       :     0.000038  s :     0.000038
      pz      :     0.133216  p :     0.718936
      px      :     0.009265
      py      :     0.576455
      dz2     :     0.000010  d :    -0.000094
      dxz     :    -0.000001
      dyz     :    -0.000066
      dx2y2   :    -0.000033
      dxy     :    -0.000004



                     *******************************
                     * LOEWDIN POPULATION ANALYSIS *
                     *******************************

-------------------------------------------
LOEWDIN ATOMIC CHARGES AND SPIN POPULATIONS
-------------------------------------------
   0 C :   -0.015950   -0.039813
   1 C :   -0.013656    0.163392
   2 H :    0.033158    0.000152
   3 H :    0.031389   -0.000451
   4 H :    0.028553   -0.000724
   5 C :   -0.024087    0.151093
   6 H :    0.040281    0.001429
   7 H :    0.042343    0.003748
   8 H :    0.028097    0.034463
   9 Br:   -0.150129    0.686712

----------------------------------------------------
LOEWDIN REDUCED ORBITAL CHARGES AND SPIN POPULATIONS
----------------------------------------------------
CHARGE
  0 C s       :     2.879666  s :     2.879666
      pz      :     1.071286  p :     3.046546
      px      :     1.037653
      py      :     0.937607
      dz2     :     0.023584  d :     0.089739
      dxz     :     0.034926
      dyz     :     0.014491
      dx2y2   :     0.010253
      dxy     :     0.006485

  1 C s       :     2.893837  s :     2.893837
      pz      :     1.063129  p :     3.051817
      px      :     1.043482
      py      :     0.945206
      dz2     :     0.018863  d :     0.068001
      dxz     :     0.028885
      dyz     :     0.010613
      dx2y2   :     0.006785
      dxy     :     0.002855

  2 H s       :     0.900896  s :     0.900896
      pz      :     0.017133  p :     0.065946
      px      :     0.034362
      py      :     0.014451

  3 H s       :     0.901229  s :     0.901229
      pz      :     0.017999  p :     0.067383
      px      :     0.035816
      py      :     0.013567

  4 H s       :     0.904248  s :     0.904248
      pz      :     0.018316  p :     0.067198
      px      :     0.033348
      py      :     0.015534

  5 C s       :     2.853635  s :     2.853635
      pz      :     1.041013  p :     3.098143
      px      :     1.049682
      py      :     1.007449
      dz2     :     0.005851  d :     0.072309
      dxz     :     0.021320
      dyz     :     0.019664
      dx2y2   :     0.021119
      dxy     :     0.004355

  6 H s       :     0.894025  s :     0.894025
      pz      :     0.020071  p :     0.065694
      px      :     0.033316
      py      :     0.012307

  7 H s       :     0.891707  s :     0.891707
      pz      :     0.028677  p :     0.065950
      px      :     0.011220
      py      :     0.026053

  8 H s       :     0.879680  s :     0.879680
      pz      :     0.024272  p :     0.092223
      px      :     0.012741
      py      :     0.055210

  9 Brs       :     7.959687  s :     7.959687
      pz      :     5.844376  p :    17.178228
      px      :     5.982019
      py      :     5.351833
      dz2     :     2.000555  d :    10.012214
      dxz     :     2.000219
      dyz     :     2.005569
      dx2y2   :     2.005031
      dxy     :     2.000840


SPIN
  0 C s       :    -0.002667  s :    -0.002667
      pz      :    -0.003871  p :    -0.042963
      px      :    -0.003193
      py      :    -0.035899
      dz2     :     0.001300  d :     0.005817
      dxz     :     0.000182
      dyz     :     0.002951
      dx2y2   :     0.000279
      dxy     :     0.001106

  1 C s       :     0.005108  s :     0.005108
      pz      :     0.012620  p :     0.159534
      px      :     0.006612
      py      :     0.140302
      dz2     :    -0.000321  d :    -0.001250
      dxz     :    -0.000170
      dyz     :    -0.000472
      dx2y2   :    -0.000246
      dxy     :    -0.000041

  2 H s       :     0.001253  s :     0.001253
      pz      :    -0.000037  p :    -0.001101
      px      :    -0.000179
      py      :    -0.000886

  3 H s       :    -0.004014  s :    -0.004014
      pz      :     0.000359  p :     0.003564
      px      :     0.000468
      py      :     0.002736

  4 H s       :    -0.004107  s :    -0.004107
      pz      :     0.000350  p :     0.003384
      px      :     0.000413
      py      :     0.002621

  5 C s       :     0.009453  s :     0.009453
      pz      :     0.028120  p :     0.143290
      px      :     0.004077
      py      :     0.111093
      dz2     :    -0.000024  d :    -0.001651
      dxz     :    -0.000365
      dyz     :    -0.000535
      dx2y2   :    -0.000369
      dxy     :    -0.000358

  6 H s       :    -0.002152  s :    -0.002152
      pz      :     0.000510  p :     0.003581
      px      :     0.000464
      py      :     0.002607

  7 H s       :    -0.000108  s :    -0.000108
      pz      :     0.001385  p :     0.003856
      px      :     0.000058
      py      :     0.002413

  8 H s       :     0.004739  s :     0.004739
      pz      :     0.006207  p :     0.029724
      px      :     0.000411
      py      :     0.023107

  9 Brs       :    -0.000160  s :    -0.000160
      pz      :     0.126924  p :     0.686397
      px      :     0.008653
      py      :     0.550820
      dz2     :     0.000030  d :     0.000475
      dxz     :     0.000003
      dyz     :     0.000211
      dx2y2   :     0.000213
      dxy     :     0.000019



                      *****************************
                      * MAYER POPULATION ANALYSIS *
                      *****************************

  NA   - Mulliken gross atomic population
  ZA   - Total nuclear charge
  QA   - Mulliken gross atomic charge
  VA   - Mayer's total valence
  BVA  - Mayer's bonded valence
  FA   - Mayer's free valence

  ATOM       NA         ZA         QA         VA         BVA        FA
  0 C      6.0917     6.0000    -0.0917     4.1249     4.1222     0.0027
  1 C      6.0048     6.0000    -0.0048     3.9541     3.9261     0.0280
  2 H      0.9764     1.0000     0.0236     0.9797     0.9797     0.0000
  3 H      0.9609     1.0000     0.0391     0.9753     0.9752     0.0001
  4 H      0.9682     1.0000     0.0318     0.9848     0.9847     0.0001
  5 C      5.9336     6.0000     0.0664     3.9018     3.8739     0.0279
  6 H      0.9582     1.0000     0.0418     0.9944     0.9944     0.0000
  7 H      0.9597     1.0000     0.0403     0.9857     0.9857     0.0000
  8 H      0.9599     1.0000     0.0401     1.0672     1.0625     0.0047
  9 Br    35.1866    35.0000    -0.1866     0.9963     0.4763     0.5200

  Mayer bond orders larger than 0.100000
B(  0-C ,  1-C ) :   1.9087 B(  0-C ,  2-H ) :   0.9614 B(  0-C ,  5-C ) :   1.1200 
B(  1-C ,  3-H ) :   0.9535 B(  1-C ,  4-H ) :   0.9558 B(  5-C ,  6-H ) :   0.9542 
B(  5-C ,  7-H ) :   0.9398 B(  5-C ,  8-H ) :   0.7820 B(  8-H ,  9-Br) :   0.2336 


-------
TIMINGS
-------

Total SCF time: 0 days 0 hours 0 min 2 sec 

Total time                  ....       2.792 sec
Sum of individual times     ....       2.611 sec  ( 93.5%)

SCF preparation             ....       0.301 sec  ( 10.8%)
Fock matrix formation       ....       2.144 sec  ( 76.8%)
  Startup                   ....       0.004 sec  (  0.2% of F)
  Split-RI-J                ....       0.131 sec  (  6.1% of F)
  Chain of spheres X        ....       1.629 sec  ( 76.0% of F)
  XC integration            ....       0.468 sec  ( 21.8% of F)
    XC Preparation          ....       0.000 sec  (  0.0% of XC)
    Basis function eval.    ....       0.106 sec  ( 22.7% of XC)
    Density eval.           ....       0.097 sec  ( 20.8% of XC)
    XC-Functional eval.     ....       0.035 sec  (  7.5% of XC)
    XC-Potential eval.      ....       0.126 sec  ( 26.9% of XC)
Diagonalization             ....       0.000 sec  (  0.0%)
Density matrix formation    ....       0.024 sec  (  0.9%)
Total Energy calculation    ....       0.012 sec  (  0.4%)
Population analysis         ....       0.009 sec  (  0.3%)
Orbital Transformation      ....       0.017 sec  (  0.6%)
Orbital Orthonormalization  ....       0.000 sec  (  0.0%)
DIIS solution               ....       0.064 sec  (  2.3%)
SOSCF solution              ....       0.040 sec  (  1.4%)
Finished LeanSCF after   2.8 sec

Maximum memory used throughout the entire LEANSCF-calculation: 9.1 MB

-------------------------   --------------------
FINAL SINGLE POINT ENERGY     -2691.426351745499
-------------------------   --------------------



           ************************************************************
           *        Program running with 8 parallel MPI-processes     *
           *              working on a common directory               *
           ************************************************************

------------------------------------------------------------------------------
                              ORCA PROPERTY CALCULATIONS
------------------------------------------------------------------------------

GBWName                                 ... radical_003.gbw
Number of atoms                         ...     10
Number of basis functions               ...    104
Max core memory                         ...   1200 MB

Electric properties:
Dipole moment                           ... YES
Quadrupole moment                       ...  NO
Static polarizability (Dipole/Dipole)   ...  NO
Static polarizability (Dipole/Quad.)    ...  NO
Static polarizability (Quad./Quad.)     ...  NO
Static polarizability (Velocity)        ...  NO
Static hyperpolarizability              ...  NO

Atomic electric properties:
Dipole moment                           ...  NO
Quadrupole moment                       ...  NO
Static polarizability                   ...  NO

Choice of electric origin               ... Center of mass
Position of electric origin             ...    -1.080558    -2.668781    -2.335710

General magnetic properties:
Magnetizability                         ...  NO

EPR properties:
g-Tensor (aka g-matrix)                 ...  NO
Zero-Field splitting spin-orbit         ...  NO
Zero-field splitting spin-spin          ...  NO
Hyperfine couplings                     ...  NO (   0 nuclei)
Quadrupole couplings                    ...  NO (   0 nuclei)
Contact density                         ...  NO (   0 nuclei)

NMR properties:
Chemical shifts                         ...  NO (   0 nuclei)
Spin-rotation constants                 ...  NO (   0 nuclei)
Spin-spin couplings                     ...  NO (   0 nuclei,    0 pairs)

Choice of magnetic origin               ... GIAO
Position of magnetic origin             ...     0.000000     0.000000     0.000000

Properties with geometric perturbations:
SCF Hessian                             ...  NO
IR spectrum                             ...  NO
VCD spectrum                            ...  NO
X-ray spectroscopy properties:
SCF XES/XAS/RIXS spectra                ...  NO

SCF SOC stabilization energy            ...  NO
Diagonal Born-Oppenheimer correction    ...  NO

-------------
DIPOLE MOMENT
-------------

Method             : SCF
Type of density    : Electron Density
Multiplicity       :   2
Irrep              :   0
Energy             : -2691.4263517454992325 Eh
Basis              : AO
                                X                 Y                 Z
Electronic contribution:     -7.007432287     -16.949394541     -14.970262725
Nuclear contribution   :      7.323374675      17.804548509      15.625574261
                        -----------------------------------------
Total Dipole Moment    :      0.315942388       0.855153968       0.655311536
                        -----------------------------------------
Magnitude (a.u.)       :      1.122738220
Magnitude (Debye)      :      2.853773762



--------------------
Rotational spectrum 
--------------------
 
Rotational constants in cm-1:             0.407220             0.040363             0.038244 
Rotational constants in MHz :         12208.152901          1210.056344          1146.516961 

Dipole components along the rotational axes: 
x,y,z [a.u.] :     1.108915    -0.175225     0.012025 
x,y,z [Debye]:     2.818638    -0.445386     0.030564 

 

Dipole moment calculation done in   0.0 sec 

Maximum memory used throughout the entire PROP-calculation: 5.2 MB

--------------------------------
SUGGESTED CITATIONS FOR THIS RUN
--------------------------------

Below you find a list of papers that are relevant to this ORCA run
We neither can nor want to force you to cite these papers, but we appreciate if you do
You receive ORCA, which is the product of decades of hard work by many enthusiastic individuals, for free
The only thing we kindly ask in return is that you cite our papers,
We deeply appreciate it, if you show your appreciation for ORCA by not just citing the generic ORCA reference.

Please note that relegating all ORCA citations to the supporting information does *not* help us.
SI sections are not indexed - citations you put there will not count into any citation statistics
But we need these citations in order to attract the funding resources that allow us to do what we are doing

Therefore, if you are a happy ORCA user, please consider citing a few of the papers listed below in the main body of your paper

In addition to the list printed below, the program has created the file radical_003.bibtex that contains the list in bibtex format
You can import this file easily into all common literature databanks and citation aid programs


List of essential papers. We consider these as the minimum necessary citations

  1. Neese, F.
     Software update: the ORCA program system, version 6.0
     WIRES Comput. Molec. Sci. 2025 15(1), e70019
     doi.org/10.1002/wcms.7019

List of papers to cite with high priority. The work reported in these papers was absolutely
necessary for this run to complete.
Our perspective: the developers of density functionals and basis sets usually get cited in chemistry papers
Good! But without the algorithms to do something with them, the functionals or basis sets would not do anything.
Hence, in our opinion, the algorithm design and method developments papers are equally worthy of getting cited

  1. Neese, F.
     An improvement of the resolution of the identity approximation for the formation of the Coulomb matrix
     J. Comp. Chem. 2003 24(14), 1740-1747
     doi.org/10.1002/jcc.10318
  2. Neese, F.; Wennmohs, F.; Hansen, A.; Becker, U.
     Efficient, approximate and parallel Hartree-Fock and hybrid DFT calculations. A 'chain-of-spheres' algorithm for the Hartree-Fock exchange
     Chem. Phys. 2009 356(1-3), 98-109
     doi.org/10.1016/j.chemphys.2008.10.036
  3. Helmich-Paris, B.; de Souza, B.; Neese, F.; Izsák, R.
     An improved chain of spheres for exchange algorithm
     J. Chem. Phys. 2021 155(10), 104109
     doi.org/10.1063/5.0058766
  4. Neese, F.
     The SHARK Integral Generation and Digestion System
     J. Comp. Chem. 2022 44(3), 381
     doi.org/10.1002/jcc.26942

List of suggested additional citations. These are papers that are important in the 'surrounding' of 
of this run, or papers that preceded the highly important papers. If you like your results we are grateful for a citation.

  1. Izsak, R.; Neese, F.
     An overlap fitted chain of spheres exchange method
     J. Chem. Phys. 2011 135 , 144105
     doi.org/10.1063/1.3646921
  2. Izsak, R.; Hansen, A.; Neese, F.
     The resolution of identity and chain of spheres approximations for the LPNO-CCSD singles Fock term
     Molec. Phys. 2012 110 , 2413-2417
     doi.org/10.1080/00268976.2012.687466
  3. Neese, F.
     The ORCA program system
     WIRES Comput. Molec. Sci. 2012 2(1), 73-78
     doi.org/10.1002/wcms.81
  4. Izsak, R.; Neese, F.; Klopper, W.
     Robust fitting techniques in the chain of spheres approximation to the Fock exchange: The role of the complementary space
     J. Chem. Phys. 2013 139 , 
     doi.org/10.1063/1.4819264
  5. Neese, F.
     Software update: the ORCA program system, version 4.0
     WIRES Comput. Molec. Sci. 2018 8(1), 1-6
     doi.org/10.1002/wcms.1327
  6. Neese, F.; Wennmohs, F.; Becker, U.; Riplinger, C.
     The ORCA quantum chemistry program package
     J. Chem. Phys. 2020 152(22), 224108
     doi.org/10.1063/5.0004608
  7. Neese, F.
     Software update: The ORCA program system—Version 5.0
     WIRES Comput. Molec. Sci. 2022 12(1), e1606
     doi.org/10.1002/wcms.1606

List of optional additional citations

  1. Neese, F.
     Approximate second-order SCF convergence for spin unrestricted wavefunctions
     Chem. Phys. Lett. 2000 325(1-3), 93-98
     doi.org/10.1016/s0009-2614(00)00662-x

Timings for individual modules:

Sum of individual times          ...        4.637 sec (=   0.077 min)
Startup calculation              ...        0.809 sec (=   0.013 min)  17.5 %
SCF iterations                   ...        3.400 sec (=   0.057 min)  73.3 %
Property calculations            ...        0.427 sec (=   0.007 min)   9.2 %
                             ****ORCA TERMINATED NORMALLY****
TOTAL RUN TIME: 0 days 0 hours 0 minutes 5 seconds 113 msec
