[Molden Format]
[Title]
 Molden file created by orca_2mkl for BaseName=radical_008

[Atoms] AU
C    1   6          1.2081170352         0.8169116002         0.3550341871 
C    2   6          1.3164512550         0.1105225227         2.7983121283 
H    3   1          2.9691622681         1.2862798876        -0.6332925809 
H    4   1          3.1105553568         0.0242508555         3.8174924549 
H    5   1         -0.3890719343        -0.4285747694         3.8398309075 
C    6   6         -1.1180262315         0.8380481870        -1.1660101575 
H    7   1         -2.8856458216         0.9144649324        -0.0765811516 
H    8   1         -1.1288260164         2.1646321535        -2.7653836504 
H    9   1         -1.2279100268        -1.1241546134        -2.1884880562 
Br  10  35         -1.8375564645        -4.2668239761        -3.8189116392 
[GTO]
  1 0
s   5 1.0 
     1238.4016938000         0.8208956682
      186.2900499200         1.4766449896
       42.2511763460         2.1526124058
       11.6765579320         2.1081722461
        3.5930506482         0.8290999933
s   1 1.0 
        0.4024514736         0.3601183351
s   1 1.0 
        0.1309018267         0.1551027052
p   3 1.0 
        9.4680970621         1.3467645142
        2.0103545142         1.0678070931
        0.5477100471         0.5108735714
p   1 1.0 
        0.1526861379         0.1360471976
d   1 1.0 
        0.8000000000         1.9292013661

  2 0
s   5 1.0 
     1238.4016938000         0.8208956682
      186.2900499200         1.4766449896
       42.2511763460         2.1526124058
       11.6765579320         2.1081722461
        3.5930506482         0.8290999933
s   1 1.0 
        0.4024514736         0.3601183351
s   1 1.0 
        0.1309018267         0.1551027052
p   3 1.0 
        9.4680970621         1.3467645142
        2.0103545142         1.0678070931
        0.5477100471         0.5108735714
p   1 1.0 
        0.1526861379         0.1360471976
d   1 1.0 
        0.8000000000         1.9292013661

  3 0
s   3 1.0 
       13.0107010000         0.1634903809
        1.9622572000         0.2773515510
        0.4445379600         0.3157501452
s   1 1.0 
        0.1219496200         0.1470772262
p   1 1.0 
        0.8000000000         1.0784563492

  4 0
s   3 1.0 
       13.0107010000         0.1634903809
        1.9622572000         0.2773515510
        0.4445379600         0.3157501452
s   1 1.0 
        0.1219496200         0.1470772262
p   1 1.0 
        0.8000000000         1.0784563492

  5 0
s   3 1.0 
       13.0107010000         0.1634903809
        1.9622572000         0.2773515510
        0.4445379600         0.3157501452
s   1 1.0 
        0.1219496200         0.1470772262
p   1 1.0 
        0.8000000000         1.0784563492

  6 0
s   5 1.0 
     1238.4016938000         0.8208956682
      186.2900499200         1.4766449896
       42.2511763460         2.1526124058
       11.6765579320         2.1081722461
        3.5930506482         0.8290999933
s   1 1.0 
        0.4024514736         0.3601183351
s   1 1.0 
        0.1309018267         0.1551027052
p   3 1.0 
        9.4680970621         1.3467645142
        2.0103545142         1.0678070931
        0.5477100471         0.5108735714
p   1 1.0 
        0.1526861379         0.1360471976
d   1 1.0 
        0.8000000000         1.9292013661

  7 0
s   3 1.0 
       13.0107010000         0.1634903809
        1.9622572000         0.2773515510
        0.4445379600         0.3157501452
s   1 1.0 
        0.1219496200         0.1470772262
p   1 1.0 
        0.8000000000         1.0784563492

  8 0
s   3 1.0 
       13.0107010000         0.1634903809
        1.9622572000         0.2773515510
        0.4445379600         0.3157501452
s   1 1.0 
        0.1219496200         0.1470772262
p   1 1.0 
        0.8000000000         1.0784563492

  9 0
s   3 1.0 
       13.0107010000         0.1634903809
        1.9622572000         0.2773515510
        0.4445379600         0.3157501452
s   1 1.0 
        0.1219496200         0.1470772262
p   1 1.0 
        0.8000000000         1.0784563492

 10 0
s   6 1.0 
   113286.3877600000         7.5076141183
    17009.6263030000        13.8835270484
     3870.1842567000        22.7307285566
     1093.0357227000        30.8227297499
      356.3972179700        27.2481937511
      123.1253964300         9.6953381145
s   3 1.0 
      236.7408400700        -4.7631125758
       28.4686610700         5.6113863182
       11.8834437220         1.9900291396
s   3 1.0 
       21.2696333120        -1.5429794477
        3.6129226841         1.3310800628
        1.6626648969         0.4300130345
s   1 1.0 
        0.3482379323         0.3230852630
s   1 1.0 
        0.1301903139         0.1544699827
p   5 1.0 
     1560.2801881000       115.0180051576
      368.4785920500       143.9035925417
      117.2297884900       137.5255986684
       42.6489092480        78.9578527439
       16.0872250960        15.8580577654
p   3 1.0 
        8.6352810058         6.8437546680
        3.5613665502         3.7974971038
        1.5292626609         0.5585414278
p   1 1.0 
        0.5306429485         0.6455696201
p   1 1.0 
        0.1570275896         0.1408996918
d   4 1.0 
      104.8551864200       261.4493931636
       30.2811436880       176.6993802449
       10.6513942670        76.9545600188
        3.8699456233        17.5937671387
d   1 1.0 
        1.3240876762         4.6593398042
d   1 1.0 
        0.3890000000         0.5462379705

[5D]
[7F]
[9G]
[MO]
 Sym=     1a
 Ene= -4.82762979879199E+02
 Spin= Alpha
 Occup= 1.000000
  1       0.000005886768
  2      -0.000082661168
  3       0.000220893065
  4       0.000008982481
  5       0.000015559374
  6       0.000005906814
  7      -0.000009869219
  8      -0.000069807147
  9       0.000134511756
 10      -0.000001673955
 11       0.000002341011
 12       0.000001652973
 13      -0.000001464935
 14      -0.000005191931
 15       0.000001509381
 16      -0.000009748223
 17      -0.000208928803
 18       0.000000292345
 19       0.000003435698
 20       0.000002999961
 21       0.000018580100
 22      -0.000028074150
 23       0.000100596887
 24      -0.000000005650
 25      -0.000002190221
 26      -0.000001483879
 27      -0.000004682305
 28      -0.000000689134
 29      -0.000004622100
 30       0.000004170068
 31      -0.000001864627
 32       0.000002471387
 33       0.000001149324
 34       0.000001628533
 35      -0.000008013624
 36       0.000000834741
 37       0.000002198187
 38      -0.000003290422
 39      -0.000000657019
 40       0.000008593718
 41      -0.000000555130
 42       0.000000227811
 43      -0.000001576279
 44       0.000007318991
 45      -0.000151237409
 46       0.001101899128
 47      -0.000009545954
 48       0.000008252523
 49       0.000003526253
 50       0.000045017633
 51      -0.000399168230
 52      -0.000261070288
 53      -0.000004950650
 54       0.000005397548
 55       0.000016134910
 56      -0.000016299656
 57       0.000004797057
 58      -0.000009539079
 59       0.000006568207
 60       0.000005294565
 61       0.000001963580
 62      -0.000004797547
 63      -0.000041941430
 64      -0.000032340317
 65      -0.000006699995
 66      -0.000001069374
 67       0.000006159466
 68       0.000000892227
 69      -0.001575610122
 70       0.000006873855
 71      -0.000005716099
 72      -0.000001718005
 73      -0.994982639025
 74      -0.015687375242
 75       0.003909370568
 76      -0.002352347451
 77       0.001761704296
 78      -0.000001768531
 79      -0.000007711108
 80      -0.000003951553
 81       0.000006003561
 82       0.000025754492
 83       0.000013242687
 84      -0.000029179861
 85      -0.000127280586
 86      -0.000065624207
 87       0.000101776832
 88       0.000475654400
 89       0.000246308507
 90      -0.000003253528
 91       0.000002528174
 92       0.000011568401
 93      -0.000010600677
 94       0.000004993854
 95       0.000012610799
 96      -0.000009741325
 97      -0.000044827228
 98       0.000041114245
 99      -0.000019217867
100      -0.000030773813
101       0.000023546794
102       0.000109682482
103      -0.000100710955
104       0.000046178571
 Sym=     1a
 Ene= -6.24459899601927E+01
 Spin= Alpha
 Occup= 1.000000
  1      -0.000013979188
  2       0.000198733940
  3      -0.000520482060
  4      -0.000021456452
  5      -0.000037156959
  6      -0.000014195613
  7       0.000016982539
  8       0.000167676131
  9      -0.000326954688
 10       0.000004221264
 11      -0.000005454530
 12      -0.000004096633
 13       0.000003718294
 14       0.000012451364
 15      -0.000003619918
 16       0.000023977649
 17       0.000500771988
 18      -0.000000901522
 19      -0.000008245022
 20      -0.000007268841
 21      -0.000041415126
 22       0.000068197298
 23      -0.000241694245
 24       0.000000023101
 25       0.000005178221
 26       0.000003470556
 27       0.000011069148
 28       0.000001620878
 29       0.000011741515
 30      -0.000010309300
 31       0.000004578576
 32      -0.000005703010
 33      -0.000002440723
 34      -0.000004230428
 35       0.000018611483
 36      -0.000002015390
 37      -0.000005223389
 38       0.000007729978
 39       0.000002284538
 40      -0.000019258187
 41       0.000001315351
 42      -0.000000496276
 43       0.000003639895
 44      -0.000016474773
 45       0.000359812328
 46      -0.002705485139
 47       0.000023427728
 48      -0.000012940665
 49      -0.000005172227
 50      -0.000114855525
 51       0.000976421974
 52       0.000634307115
 53       0.000012933652
 54      -0.000013192988
 55      -0.000043005999
 56       0.000043030230
 57      -0.000011259801
 58       0.000021866537
 59      -0.000014514372
 60      -0.000012590432
 61      -0.000004651234
 62       0.000011932876
 63       0.000100731685
 64       0.000079822716
 65       0.000016627810
 66       0.000002847926
 67      -0.000014798161
 68      -0.000001865339
 69       0.003870609452
 70      -0.000013872368
 71       0.000030644750
 72       0.000012867737
 73       0.347189303909
 74      -1.046963041807
 75      -0.018556393278
 76       0.006357799060
 77      -0.004475730615
 78      -0.000014253946
 79      -0.000103146363
 80      -0.000048960341
 81      -0.000016339802
 82      -0.000073237627
 83      -0.000037356990
 84       0.000071969906
 85       0.000315481037
 86       0.000162565640
 87      -0.000249608659
 88      -0.001167850395
 89      -0.000604694982
 90       0.000021684375
 91      -0.000011939916
 92      -0.000070474682
 93       0.000068252308
 94      -0.000024101797
 95      -0.000034718397
 96       0.000025058521
 97       0.000120701796
 98      -0.000112068547
 99       0.000049635166
100       0.000075635280
101      -0.000057298306
102      -0.000268249298
103       0.000246802463
104      -0.000112442495
 Sym=     1a
 Ene= -5.62794138374782E+01
 Spin= Alpha
 Occup= 1.000000
  1       0.000015601528
  2      -0.000237887786
  3       0.000653595449
  4       0.000023566136
  5       0.000043007838
  6       0.000015538012
  7      -0.000077151195
  8      -0.000219642691
  9       0.000291034623
 10      -0.000003631587
 11       0.000008607070
 12       0.000009403426
 13      -0.000003881375
 14      -0.000007668167
 15       0.000004971478
 16      -0.000038437718
 17      -0.000505148764
 18       0.000003118811
 19       0.000011765633
 20       0.000011290727
 21       0.000041280736
 22      -0.000063225031
 23       0.000234593682
 24       0.000001424473
 25      -0.000007885884
 26      -0.000006311114
 27      -0.000011988296
 28       0.000000502145
 29      -0.000018828196
 30       0.000019984876
 31      -0.000003892893
 32       0.000007979628
 33       0.000008096226
 34       0.000007825596
 35      -0.000016088695
 36      -0.000000105097
 37       0.000005987106
 38      -0.000008310292
 39      -0.000008388889
 40       0.000026109615
 41       0.000000598064
 42      -0.000000871450
 43      -0.000001349735
 44       0.000006567280
 45      -0.000287771806
 46       0.002890294030
 47      -0.000029357808
 48      -0.000044315918
 49      -0.000022147285
 50       0.000124392140
 51      -0.001091674081
 52      -0.000739523915
 53      -0.000021395939
 54       0.000017626210
 55       0.000074998196
 56      -0.000075341300
 57       0.000011385161
 58       0.000005227001
 59       0.000077547389
 60       0.000017409971
 61      -0.000010485245
 62      -0.000024026002
 63      -0.000093331844
 64      -0.000040494254
 65      -0.000022175240
 66      -0.000020939990
 67       0.000011512286
 68      -0.000112338479
 69      -0.004718708765
 70       0.000012622006
 71      -0.000082452678
 72      -0.000037388904
 73       0.000059101642
 74      -0.000170982025
 75       0.000165423098
 76      -0.001072756355
 77       0.002369648294
 78       0.124485517952
 79       0.882479899224
 80       0.432745781926
 81       0.002998581312
 82       0.021206069351
 83       0.010400859496
 84      -0.000815362238
 85      -0.005541117233
 86      -0.002727872143
 87       0.000584032454
 88       0.003400480725
 89       0.001709058835
 90      -0.000012943367
 91       0.000008904199
 92       0.000044664568
 93      -0.000041839371
 94       0.000017753007
 95       0.000041445623
 96      -0.000030566387
 97      -0.000146965032
 98       0.000135761428
 99      -0.000060602645
100      -0.000099575896
101       0.000073992665
102       0.000355600569
103      -0.000327796748
104       0.000145567533
 Sym=     1a
 Ene= -5.62752869041675E+01
 Spin= Alpha
 Occup= 1.000000
  1      -0.000006147279
  2       0.000058502630
  3      -0.000220860992
  4      -0.000013142091
  5      -0.000024439197
  6      -0.000001663561
  7       0.000018514119
  8       0.000217809573
  9      -0.000320939601
 10      -0.000006205419
 11       0.000001871387
 12       0.000003177575
 13      -0.000003490017
 14      -0.000010948118
 15      -0.000001570257
 16       0.000011862035
 17       0.000424400900
 18      -0.000006332971
 19       0.000003798633
 20      -0.000006621653
 21       0.000022587432
 22       0.000003652852
 23      -0.000176602534
 24       0.000003596515
 25       0.000003615292
 26       0.000004452403
 27       0.000005091078
 28      -0.000001612979
 29      -0.000019533331
 30      -0.000070580385
 31       0.000008984242
 32      -0.000018460690
 33       0.000001492143
 34      -0.000014168315
 35      -0.000028160380
 36      -0.000000720060
 37       0.000002642115
 38       0.000009201437
 39       0.000002312215
 40      -0.000019350707
 41       0.000002910419
 42       0.000003773573
 43       0.000008490169
 44       0.000003491040
 45      -0.000077686067
 46       0.000429999913
 47       0.000041925335
 48       0.000024865517
 49       0.000003294344
 50      -0.000320215982
 51      -0.000365857446
 52      -0.000017754149
 53      -0.000002581193
 54      -0.000024142994
 55       0.000020591274
 56      -0.000003770684
 57      -0.000015177032
 58      -0.000139364170
 59      -0.000029964093
 60       0.000010435339
 61       0.000017805489
 62       0.000013976824
 63       0.000029344815
 64       0.000049975186
 65       0.000033233760
 66       0.000005143184
 67       0.000011299997
 68      -0.000028233837
 69      -0.000658122441
 70      -0.000048426431
 71      -0.000004716699
 72       0.000004431605
 73       0.000001368641
 74      -0.000003450433
 75       0.000012477142
 76      -0.000094384529
 77       0.000254818759
 78       0.964323682657
 79      -0.025212547693
 80      -0.225995363752
 81       0.023032442588
 82      -0.000596454732
 83      -0.005394105309
 84      -0.005586575574
 85       0.000115381752
 86       0.001290477601
 87       0.002101366169
 88       0.000097409782
 89      -0.000404918967
 90      -0.000003292069
 91       0.000006115748
 92      -0.000000055084
 93      -0.000000498795
 94       0.000013148629
 95       0.000006435996
 96      -0.000009744728
 97      -0.000007837956
 98       0.000007874071
 99      -0.000019578000
100      -0.000014050115
101       0.000018400346
102       0.000025472751
103      -0.000024584534
104       0.000036100869
 Sym=     1a
 Ene= -5.62752760938180E+01
 Spin= Alpha
 Occup= 1.000000
  1       0.000007032948
  2      -0.000059959609
  3      -0.000062065631
  4       0.000010936417
  5       0.000019392311
  6       0.000026699669
  7       0.000096399112
  8      -0.000000606934
  9      -0.000219506441
 10       0.000006559661
 11      -0.000001430903
 12      -0.000002524388
 13      -0.000000869419
 14       0.000002435602
 15      -0.000001190164
 16       0.000027215372
 17       0.000148631159
 18      -0.000008769705
 19       0.000008584295
 20      -0.000006469134
 21       0.000069376201
 22       0.000027870846
 23      -0.000014217959
 24      -0.000004468885
 25       0.000003071318
 26      -0.000002940008
 27      -0.000003166224
 28      -0.000002193353
 29      -0.000036193701
 30      -0.000082595467
 31       0.000005527861
 32       0.000010096277
 33       0.000008667812
 34      -0.000017741768
 35      -0.000055372320
 36       0.000003606118
 37      -0.000000643676
 38       0.000003464542
 39       0.000009334684
 40       0.000012299728
 41       0.000001128295
 42       0.000001162329
 43      -0.000001490367
 44       0.000002365764
 45      -0.000011152446
 46      -0.000133859272
 47      -0.000012347503
 48       0.000013115297
 49      -0.000046651726
 50      -0.000021244934
 51      -0.000037328538
 52       0.000389519879
 53       0.000003769594
 54      -0.000000577248
 55       0.000023391352
 56       0.000029627854
 57       0.000002637560
 58      -0.000064417809
 59      -0.000051555931
 60      -0.000022382054
 61       0.000011416472
 62      -0.000028144344
 63       0.000134895509
 64       0.000064824582
 65      -0.000005163948
 66      -0.000016297307
 67      -0.000002444931
 68       0.000020486756
 69       0.000220326615
 70       0.000011846193
 71      -0.000019422520
 72       0.000046039786
 73      -0.000000076353
 74      -0.000000074047
 75      -0.000005491982
 76       0.000037332254
 77      -0.000091363808
 78      -0.190290177221
 79       0.449611953356
 80      -0.862130722275
 81      -0.004545485709
 82       0.010734956315
 83      -0.020590627016
 84       0.001104423317
 85      -0.002585968442
 86       0.004991300776
 87      -0.000420033117
 88       0.000906009256
 89      -0.001872115186
 90      -0.000008395772
 91      -0.000003033374
 92      -0.000008832360
 93      -0.000004780577
 94      -0.000001891531
 95       0.000009008619
 96       0.000004428701
 97       0.000013129195
 98       0.000002793532
 99       0.000003359269
100      -0.000012598424
101      -0.000007791839
102      -0.000024662500
103       0.000000076096
104      -0.000006926901
 Sym=     1a
 Ene= -1.02197930968104E+01
 Spin= Alpha
 Occup= 1.000000
  1       0.055336359558
  2       0.001558314752
  3       0.003261103344
  4       0.001319328824
  5      -0.000369689341
  6       0.000959463365
  7       0.000548220140
  8       0.001632368578
  9      -0.005138328982
 10       0.000033237965
 11      -0.001311609758
 12       0.000100975568
 13      -0.001008637209
 14       0.000122382173
 15       0.005068273724
 16      -0.000253060040
 17       0.005943311302
 18       0.000265481047
 19      -0.000027574514
 20       0.000054001399
 21      -0.004657474740
 22       0.000268267377
 23      -0.003159418055
 24       0.000119219397
 25      -0.000035312575
 26      -0.000092610396
 27       0.000225955849
 28       0.000125873568
 29      -0.000672564220
 30      -0.001034457399
 31      -0.000184455121
 32      -0.000054145605
 33      -0.000209216934
 34       0.000747738126
 35       0.001869168585
 36      -0.000053527700
 37      -0.000000171996
 38      -0.000017546110
 39      -0.000894710546
 40      -0.001788411422
 41      -0.000010806262
 42      -0.000068664815
 43       0.000136697881
 44       0.986151622771
 45       0.053637349849
 46      -0.055408574331
 47      -0.000711472695
 48      -0.000809348661
 49      -0.000864295412
 50      -0.001978020845
 51       0.006811619727
 52       0.003142596470
 53       0.000267280377
 54      -0.000491671926
 55      -0.000522573521
 56       0.000106077048
 57      -0.000103316638
 58      -0.002798370622
 59       0.007410230452
 60      -0.002242426460
 61      -0.000096606721
 62       0.001619046953
 63      -0.002687898118
 64       0.007996544661
 65       0.000248969254
 66       0.001690638162
 67      -0.002239594203
 68      -0.002178900694
 69       0.024702335860
 70       0.000027292467
 71      -0.002343296366
 72      -0.001015372071
 73      -0.000010458032
 74       0.000018331800
 75      -0.000183324708
 76       0.002090224524
 77      -0.007502580879
 78       0.000004476431
 79       0.000012040951
 80       0.000001205896
 81      -0.000016424359
 82      -0.000045388013
 83      -0.000006345403
 84       0.000133692148
 85       0.000446493588
 86       0.000156353577
 87      -0.000947889756
 88      -0.004179245069
 89      -0.002026539230
 90       0.000019683665
 91      -0.000014913115
 92      -0.000049935858
 93       0.000048553681
 94      -0.000031946296
 95      -0.000092383972
 96       0.000069872880
 97       0.000238535482
 98      -0.000231347140
 99       0.000149101711
100       0.000275564480
101      -0.000205571317
102      -0.000771946347
103       0.000740283602
104      -0.000430268338
 Sym=     1a
 Ene= -1.02179961231985E+01
 Spin= Alpha
 Occup= 1.000000
  1       0.985003130452
  2       0.047696480785
  3      -0.042337341613
  4       0.000475497162
  5      -0.000303144994
  6      -0.000363831659
  7       0.004402779635
  8       0.002220011781
  9      -0.004652916232
 10       0.001009059381
 11      -0.000289561720
 12      -0.000953533531
 13       0.001626787366
 14       0.000708095560
 15       0.058251172320
 16      -0.001913513852
 17       0.016810562394
 18       0.000153833813
 19      -0.000806435366
 20       0.002607789543
 21      -0.002642634042
 22       0.001182393330
 23      -0.005131220717
 24      -0.001046598872
 25      -0.000044673758
 26       0.000718359665
 27      -0.000250198137
 28      -0.000071345015
 29      -0.004691016214
 30       0.006243519538
 31       0.002548364419
 32       0.000577195439
 33      -0.001334955568
 34       0.000304414679
 35       0.000120746809
 36      -0.000170307099
 37       0.000081146596
 38      -0.000370266042
 39      -0.000352640712
 40      -0.001424817282
 41       0.000124906139
 42       0.000133644499
 43      -0.000407224227
 44      -0.054886261812
 45      -0.003318942383
 46       0.001845778895
 47      -0.001630485436
 48      -0.000405549827
 49      -0.001287512254
 50       0.001118290895
 51       0.004720684028
 52       0.006003782581
 53       0.000185678239
 54      -0.001215435634
 55      -0.000073192023
 56      -0.001032738232
 57      -0.000111324780
 58       0.000222022120
 59      -0.001527259279
 60       0.000427495263
 61      -0.000200364237
 62       0.000040331666
 63       0.000806346320
 64      -0.000139969755
 65       0.000315280740
 66      -0.000369788660
 67       0.000077705764
 68       0.000289516148
 69       0.013443443964
 70       0.000521624342
 71       0.000317466129
 72       0.000410227466
 73      -0.000008948991
 74       0.000016469485
 75      -0.000154028596
 76       0.001595272026
 77      -0.004994007861
 78      -0.000008223534
 79       0.000024218015
 80       0.000001959956
 81       0.000027418909
 82      -0.000084565472
 83      -0.000007889383
 84      -0.000076525042
 85       0.000519537334
 86       0.000123129354
 87      -0.000332528173
 88      -0.003095842877
 89      -0.001379976966
 90       0.000013263439
 91       0.000000293081
 92      -0.000039242142
 93       0.000042734993
 94      -0.000013366656
 95      -0.000062381098
 96       0.000001794929
 97       0.000187824894
 98      -0.000201848515
 99       0.000064726911
100       0.000190228333
101      -0.000046955788
102      -0.000614110107
103       0.000625803178
104      -0.000220803083
 Sym=     1a
 Ene= -1.02126358546661E+01
 Spin= Alpha
 Occup= 1.000000
  1      -0.057524432327
  2      -0.007025317615
  3       0.011902362931
  4      -0.000399690285
  5       0.000722733360
  6      -0.002647581010
  7      -0.000651789975
  8       0.000428166376
  9      -0.002192423166
 10      -0.001339290789
 11      -0.000003362487
 12       0.000889734821
 13      -0.000406687361
 14      -0.000131600974
 15       0.986406749767
 16       0.048515374399
 17      -0.030387861921
 18      -0.000040152918
 19      -0.000137901299
 20       0.000294696895
 21       0.000940911725
 22       0.000250310648
 23       0.000078570150
 24       0.001088274383
 25       0.000208778017
 26      -0.001319087016
 27       0.002110158008
 28       0.000526921031
 29       0.000268599224
 30      -0.001648407294
 31      -0.000277045940
 32      -0.000271632961
 33       0.000834364273
 34      -0.004654499385
 35       0.006863649519
 36       0.002701463267
 37      -0.000113284885
 38       0.001401966310
 39      -0.004196756194
 40       0.007435705160
 41      -0.002561702138
 42      -0.000773420922
 43       0.001394748524
 44      -0.001925777781
 45       0.000325747672
 46      -0.005111476771
 47       0.000292847824
 48      -0.000007901050
 49       0.000004429920
 50      -0.002768713581
 51      -0.000139104360
 52       0.002282064212
 53       0.000193488558
 54       0.000201264238
 55      -0.000076359432
 56       0.000186901326
 57      -0.000069892196
 58      -0.000452961897
 59      -0.001189828960
 60      -0.000008932811
 61       0.000101277922
 62       0.000049322777
 63       0.000668392079
 64       0.001006979937
 65       0.000071381773
 66      -0.000103634241
 67      -0.000145594350
 68      -0.000061818259
 69       0.002745784189
 70       0.000055005620
 71       0.000169990401
 72      -0.000221532268
 73      -0.000002704650
 74       0.000005177421
 75      -0.000045851410
 76       0.000386573423
 77      -0.001060048026
 78       0.000000275876
 79       0.000006417161
 80       0.000004767831
 81      -0.000001065725
 82      -0.000022250730
 83      -0.000016560484
 84       0.000011828139
 85       0.000122806928
 86       0.000091119509
 87      -0.000104601771
 88      -0.000618105193
 89      -0.000391372835
 90       0.000000004600
 91      -0.000002318055
 92      -0.000012367594
 93       0.000005816766
 94      -0.000002444620
 95      -0.000000303641
 96       0.000010834736
 97       0.000057435501
 98      -0.000027907217
 99       0.000011595098
100       0.000006325667
101      -0.000031562827
102      -0.000163184758
103       0.000092112963
104      -0.000037089602
 Sym=     1a
 Ene= -8.66423546222490E+00
 Spin= Alpha
 Occup= 1.000000
  1      -0.000033877746
  2       0.000422428427
  3      -0.000947887843
  4      -0.000043074065
  5      -0.000073196846
  6      -0.000029010204
  7      -0.000079789853
  8       0.000355891770
  9      -0.000767454256
 10       0.000011793424
 11      -0.000009489233
 12      -0.000010819275
 13       0.000011110598
 14       0.000026453135
 15      -0.000010188762
 16       0.000058481304
 17       0.001060626536
 18      -0.000004527948
 19      -0.000016803938
 20      -0.000015792441
 21      -0.000035532693
 22       0.000158440840
 23      -0.000521412825
 24       0.000000018144
 25       0.000009229858
 26       0.000005653880
 27       0.000021612994
 28       0.000003215017
 29       0.000031942634
 30      -0.000019983459
 31       0.000011609386
 32      -0.000008623084
 33       0.000000964525
 34      -0.000014088515
 35       0.000027462292
 36      -0.000004606955
 37      -0.000010401139
 38       0.000014597819
 39       0.000013985953
 40      -0.000016673053
 41       0.000003013804
 42      -0.000000346200
 43       0.000006436626
 44      -0.000025697281
 45       0.000724591832
 46      -0.006745729282
 47       0.000056260042
 48       0.000070466271
 49       0.000035550595
 50      -0.000348835841
 51       0.002356995021
 52       0.001465050333
 53       0.000041798034
 54      -0.000030509153
 55      -0.000149768690
 56       0.000145449229
 57      -0.000019925833
 58       0.000030590669
 59       0.000003820612
 60      -0.000024107135
 61      -0.000008992305
 62       0.000030145246
 63       0.000215263475
 64       0.000215704625
 65       0.000042704495
 66       0.000009369510
 67      -0.000030242132
 68      -0.000042061393
 69       0.009672114093
 70       0.000011886902
 71       0.000327702858
 72       0.000162893582
 73       0.136665798846
 74      -0.516892432721
 75       1.093484626894
 76       0.032374096451
 77      -0.014166677470
 78      -0.000057620689
 79      -0.000380641047
 80      -0.000181676494
 81       0.000127734152
 82       0.000869848147
 83       0.000413212428
 84       0.000189531904
 85       0.000856733671
 86       0.000440234246
 87      -0.000615963214
 88      -0.002900601261
 89      -0.001501337432
 90      -0.000317612147
 91       0.000128567169
 92       0.000956948728
 93      -0.000968792452
 94       0.000266199540
 95      -0.000274489535
 96       0.000132865916
 97       0.000848656143
 98      -0.000842011999
 99       0.000269547584
100       0.000177501499
101      -0.000128743886
102      -0.000613525051
103       0.000569866885
104      -0.000252329185
 Sym=     1a
 Ene= -6.50091510199020E+00
 Spin= Alpha
 Occup= 1.000000
  1      -0.000017296478
  2       0.000252458974
  3      -0.000638707982
  4      -0.000025180816
  5      -0.000043793969
  6      -0.000017540483
  7       0.000056552801
  8       0.000238167012
  9      -0.000312657559
 10       0.000004684217
 11      -0.000007525003
 12      -0.000009791897
 13       0.000005143467
 14       0.000007943047
 15      -0.000005971247