[Molden Format]
[Title]
 Molden file created by orca_2mkl for BaseName=radical_022

[Atoms] AU
C    1   6          1.1744780203         0.8947078456         0.3432479652 
C    2   6          1.3207522717         0.0847504377         2.8217787474 
H    3   1          2.9459186366         1.3226023136        -0.6461068138 
H    4   1          3.1290519962        -0.0478762116         3.8096595401 
H    5   1         -0.3876754266        -0.4189163791         3.8754616938 
C    6   6         -1.0763577703         1.1804023117        -1.0034237901 
H    7   1         -2.9005198560         0.8206872730        -0.0987381905 
H    8   1         -1.1024907930         2.0111221408        -2.8908614657 
H    9   1         -1.2802346537        -1.8902741545        -2.5347104504 
Br  10  35         -1.8401680661        -4.2927566879        -3.8383096780 
[GTO]
  1 0
s   5 1.0 
     1238.4016938000         0.8208956682
      186.2900499200         1.4766449896
       42.2511763460         2.1526124058
       11.6765579320         2.1081722461
        3.5930506482         0.8290999933
s   1 1.0 
        0.4024514736         0.3601183351
s   1 1.0 
        0.1309018267         0.1551027052
p   3 1.0 
        9.4680970621         1.3467645142
        2.0103545142         1.0678070931
        0.5477100471         0.5108735714
p   1 1.0 
        0.1526861379         0.1360471976
d   1 1.0 
        0.8000000000         1.9292013661

  2 0
s   5 1.0 
     1238.4016938000         0.8208956682
      186.2900499200         1.4766449896
       42.2511763460         2.1526124058
       11.6765579320         2.1081722461
        3.5930506482         0.8290999933
s   1 1.0 
        0.4024514736         0.3601183351
s   1 1.0 
        0.1309018267         0.1551027052
p   3 1.0 
        9.4680970621         1.3467645142
        2.0103545142         1.0678070931
        0.5477100471         0.5108735714
p   1 1.0 
        0.1526861379         0.1360471976
d   1 1.0 
        0.8000000000         1.9292013661

  3 0
s   3 1.0 
       13.0107010000         0.1634903809
        1.9622572000         0.2773515510
        0.4445379600         0.3157501452
s   1 1.0 
        0.1219496200         0.1470772262
p   1 1.0 
        0.8000000000         1.0784563492

  4 0
s   3 1.0 
       13.0107010000         0.1634903809
        1.9622572000         0.2773515510
        0.4445379600         0.3157501452
s   1 1.0 
        0.1219496200         0.1470772262
p   1 1.0 
        0.8000000000         1.0784563492

  5 0
s   3 1.0 
       13.0107010000         0.1634903809
        1.9622572000         0.2773515510
        0.4445379600         0.3157501452
s   1 1.0 
        0.1219496200         0.1470772262
p   1 1.0 
        0.8000000000         1.0784563492

  6 0
s   5 1.0 
     1238.4016938000         0.8208956682
      186.2900499200         1.4766449896
       42.2511763460         2.1526124058
       11.6765579320         2.1081722461
        3.5930506482         0.8290999933
s   1 1.0 
        0.4024514736         0.3601183351
s   1 1.0 
        0.1309018267         0.1551027052
p   3 1.0 
        9.4680970621         1.3467645142
        2.0103545142         1.0678070931
        0.5477100471         0.5108735714
p   1 1.0 
        0.1526861379         0.1360471976
d   1 1.0 
        0.8000000000         1.9292013661

  7 0
s   3 1.0 
       13.0107010000         0.1634903809
        1.9622572000         0.2773515510
        0.4445379600         0.3157501452
s   1 1.0 
        0.1219496200         0.1470772262
p   1 1.0 
        0.8000000000         1.0784563492

  8 0
s   3 1.0 
       13.0107010000         0.1634903809
        1.9622572000         0.2773515510
        0.4445379600         0.3157501452
s   1 1.0 
        0.1219496200         0.1470772262
p   1 1.0 
        0.8000000000         1.0784563492

  9 0
s   3 1.0 
       13.0107010000         0.1634903809
        1.9622572000         0.2773515510
        0.4445379600         0.3157501452
s   1 1.0 
        0.1219496200         0.1470772262
p   1 1.0 
        0.8000000000         1.0784563492

 10 0
s   6 1.0 
   113286.3877600000         7.5076141183
    17009.6263030000        13.8835270484
     3870.1842567000        22.7307285566
     1093.0357227000        30.8227297499
      356.3972179700        27.2481937511
      123.1253964300         9.6953381145
s   3 1.0 
      236.7408400700        -4.7631125758
       28.4686610700         5.6113863182
       11.8834437220         1.9900291396
s   3 1.0 
       21.2696333120        -1.5429794477
        3.6129226841         1.3310800628
        1.6626648969         0.4300130345
s   1 1.0 
        0.3482379323         0.3230852630
s   1 1.0 
        0.1301903139         0.1544699827
p   5 1.0 
     1560.2801881000       115.0180051576
      368.4785920500       143.9035925417
      117.2297884900       137.5255986684
       42.6489092480        78.9578527439
       16.0872250960        15.8580577654
p   3 1.0 
        8.6352810058         6.8437546680
        3.5613665502         3.7974971038
        1.5292626609         0.5585414278
p   1 1.0 
        0.5306429485         0.6455696201
p   1 1.0 
        0.1570275896         0.1408996918
d   4 1.0 
      104.8551864200       261.4493931636
       30.2811436880       176.6993802449
       10.6513942670        76.9545600188
        3.8699456233        17.5937671387
d   1 1.0 
        1.3240876762         4.6593398042
d   1 1.0 
        0.3890000000         0.5462379705

[5D]
[7F]
[9G]
[MO]
 Sym=     1a
 Ene= -4.82762952143287E+02
 Spin= Alpha
 Occup= 1.000000
  1       0.000005605227
  2      -0.000071918178
  3       0.000092380475
  4       0.000007273284
  5       0.000016425719
  6       0.000006411195
  7       0.000048297979
  8      -0.000064658942
  9       0.000143592231
 10      -0.000002049161
 11       0.000002237861
 12      -0.000000932118
 13      -0.000000381872
 14      -0.000007239364
 15       0.000001200035
 16      -0.000005116351
 17      -0.000179418585
 18      -0.000000777074
 19       0.000002654108
 20       0.000001920292
 21       0.000016302971
 22      -0.000028606612
 23       0.000096026226
 24      -0.000001414210
 25      -0.000000272212
 26      -0.000000532986
 27      -0.000005253515
 28      -0.000001481657
 29      -0.000005899930
 30      -0.000002979148
 31      -0.000002147988
 32       0.000004269404
 33      -0.000000892136
 34       0.000000270945
 35      -0.000011752972
 36       0.000001832463
 37       0.000001660135
 38      -0.000002646816
 39       0.000000890831
 40       0.000006203355
 41      -0.000000765180
 42       0.000001093194
 43      -0.000002827631
 44       0.000007460508
 45      -0.000152669454
 46       0.000679629462
 47      -0.000008547911
 48       0.000017761116
 49       0.000004246908
 50       0.000068779451
 51      -0.000238799128
 52      -0.000123553075
 53      -0.000003547430
 54       0.000002773640
 55       0.000015171569
 56      -0.000012771579
 57       0.000003254094
 58      -0.000023547471
 59      -0.000038827889
 60      -0.000003364142
 61       0.000006461403
 62      -0.000001218616
 63      -0.000042402261
 64      -0.000060421950
 65      -0.000006854508
 66       0.000002264427
 67      -0.000000009944
 68       0.000115494405
 69      -0.001048845515
 70      -0.000023580069
 71      -0.000138168374
 72      -0.000073090575
 73      -0.994981998991
 74      -0.015688824749
 75       0.003922417530
 76      -0.002335164937
 77       0.001755756791
 78      -0.000003121591
 79      -0.000012168459
 80      -0.000006627421
 81       0.000010091110
 82       0.000038817150
 83       0.000021192470
 84      -0.000039226956
 85      -0.000150706389
 86      -0.000082285577
 87       0.000101626056
 88       0.000407139870
 89       0.000221754463
 90      -0.000001697146
 91       0.000001780636
 92       0.000006936524
 93      -0.000005929351
 94       0.000003291071
 95       0.000005352049
 96      -0.000005641727
 97      -0.000021874406
 98       0.000018687149
 99      -0.000010468497
100      -0.000006099837
101       0.000006763342
102       0.000025139693
103      -0.000021292696
104       0.000012691100
 Sym=     1a
 Ene= -6.24460610352792E+01
 Spin= Alpha
 Occup= 1.000000
  1      -0.000013308009
  2       0.000172806737
  3      -0.000213031508
  4      -0.000017527984
  5      -0.000038968335
  6      -0.000015476424
  7      -0.000120090024
  8       0.000155688901
  9      -0.000342789030
 10       0.000004963067
 11      -0.000005103838
 12       0.000001766494
 13       0.000001404085
 14       0.000016943733
 15      -0.000002853454
 16       0.000012649393
 17       0.000425914100
 18       0.000001726625
 19      -0.000006382633
 20      -0.000004657099
 21      -0.000036838973
 22       0.000068064370
 23      -0.000228165319
 24       0.000003293570
 25       0.000000670869
 26       0.000001291251
 27       0.000012334439
 28       0.000003398403
 29       0.000014626675
 30       0.000007608559
 31       0.000005150257
 32      -0.000010058823
 33       0.000002173774
 34      -0.000000874563
 35       0.000027573544
 36      -0.000004287444
 37      -0.000003878428
 38       0.000006148504
 39      -0.000001532360
 40      -0.000014463705
 41       0.000001790480
 42      -0.000002510001
 43       0.000006613282
 44      -0.000017590919
 45       0.000366625631
 46      -0.001655265236
 47       0.000020577848
 48      -0.000041362795
 49      -0.000009705572
 50      -0.000166356928
 51       0.000578025187
 52       0.000297143591
 53       0.000008407891
 54      -0.000006660673
 55      -0.000035908790
 56       0.000030219625
 57      -0.000007526144
 58       0.000055667422
 59       0.000098064352
 60       0.000008704542
 61      -0.000014662316
 62       0.000002979005
 63       0.000101138676
 64       0.000148152958
 65       0.000016493458
 66      -0.000004908187
 67       0.000000982673
 68      -0.000304564526
 69       0.002579831575
 70       0.000060007287
 71       0.000346265541
 72       0.000183420722
 73       0.347186678794
 74      -1.046958265708
 75      -0.018587709319
 76       0.006316033558
 77      -0.004459992640
 78      -0.000076687465
 79      -0.000351699463
 80      -0.000186702916
 81      -0.000033784014
 82      -0.000135607606
 83      -0.000073662580
 84       0.000099367499
 85       0.000385626259
 86       0.000210509454
 87      -0.000249183798
 88      -0.001000995151
 89      -0.000545258572
 90       0.000011937476
 91      -0.000010298509
 92      -0.000046356260
 93       0.000041015026
 94      -0.000019487451
 95      -0.000014767708
 96       0.000014951647
 97       0.000059478029
 98      -0.000051234438
 99       0.000027313496
100       0.000013691180
101      -0.000015399062
102      -0.000056461475
103       0.000047719765
104      -0.000028220907
 Sym=     1a
 Ene= -5.62778545664959E+01
 Spin= Alpha
 Occup= 1.000000
  1      -0.000014549997
  2       0.000186916471
  3      -0.000138210571
  4      -0.000019244284
  5      -0.000044047286
  6      -0.000017120827
  7      -0.000159509734
  8       0.000178098597
  9      -0.000405035962
 10       0.000006518917
 11      -0.000004944623
 12       0.000002664312
 13       0.000001609743
 14       0.000020180456
 15      -0.000003469619
 16       0.000019016442
 17       0.000454045196
 18       0.000002273329
 19      -0.000007646830
 20      -0.000005568849
 21      -0.000040355250
 22       0.000076746198
 23      -0.000248265412
 24       0.000003587143
 25      -0.000000235830
 26       0.000001321739
 27       0.000013649775
 28       0.000003798197
 29       0.000014137942
 30      -0.000003478373
 31       0.000006686299
 32      -0.000010768779
 33       0.000003543998
 34       0.000000369315
 35       0.000035447258
 36      -0.000005069392
 37      -0.000004308259
 38       0.000005439397
 39      -0.000000345636
 40      -0.000016098078
 41       0.000001368428
 42      -0.000003084576
 43       0.000007358470
 44      -0.000014122859
 45       0.000392028013
 46      -0.001920757306
 47       0.000028793172
 48      -0.000026863537
 49       0.000000693467
 50      -0.000248027224
 51       0.000656087403
 52       0.000322177004
 53       0.000013919970
 54      -0.000009206940
 55      -0.000058376681
 56       0.000053068788
 57      -0.000008694112
 58       0.000053555115
 59       0.000095201400
 60       0.000011919142
 61      -0.000023406894
 62       0.000003971607
 63       0.000112457888
 64       0.000171743856
 65       0.000024518999
 66      -0.000012770412
 67       0.000001496563
 68      -0.000554716779
 69       0.002991481590
 70       0.000170721943
 71       0.000827902645
 72       0.000444129417
 73      -0.000176150794
 74       0.000524734136
 75      -0.000265305480
 76       0.001009368153
 77      -0.002050634290
 78      -0.168080422708
 79      -0.865200184414
 80      -0.452393634703
 81      -0.004064589443
 82      -0.020869878220
 83      -0.010916534199
 84       0.001119506604
 85       0.005588949850
 86       0.002935430524
 87      -0.000626657396
 88      -0.002916600341
 89      -0.001548651219
 90       0.000011876073
 91      -0.000010553217
 92      -0.000046039389
 93       0.000040752903
 94      -0.000019520294
 95      -0.000008718864
 96       0.000009495001
 97       0.000034621365
 98      -0.000029534915
 99       0.000016966602
100      -0.000028021936
101       0.000023662213
102       0.000112711286
103      -0.000099707354
104       0.000043976957
 Sym=     1a
 Ene= -5.62756637214483E+01
 Spin= Alpha
 Occup= 1.000000
  1      -0.000000726004
  2       0.000011169379
  3      -0.000129761685
  4      -0.000002827768
  5      -0.000008870324
  6       0.000003561851
  7       0.000068145836
  8       0.000115027962
  9      -0.000121581478
 10      -0.000000584348
 11       0.000000548581
 12       0.000000549516
 13      -0.000004157877
 14      -0.000005544742
 15      -0.000000323253
 16       0.000005690775
 17       0.000190136036
 18      -0.000006964729
 19       0.000009879383
 20      -0.000002287432
 21       0.000027168040
 22      -0.000026891583
 23      -0.000050879671
 24       0.000000568596
 25       0.000002736043
 26       0.000002981483
 27       0.000002570421
 28      -0.000001048080
 29      -0.000011166279
 30      -0.000051853923
 31       0.000002039954
 32      -0.000007103000
 33      -0.000002763000
 34      -0.000013306902
 35      -0.000035706551
 36       0.000002042193
 37       0.000004575873
 38       0.000006162083
 39       0.000002996047
 40      -0.000031280195
 41       0.000000627373
 42       0.000004082819
 43       0.000006772009
 44       0.000003849360
 45      -0.000060580761
 46       0.000192698195
 47       0.000016519989
 48       0.000025582974
 49      -0.000010666950
 50      -0.000082791441
 51      -0.000167581585
 52       0.000061519126
 53      -0.000006828396
 54      -0.000004898919
 55       0.000002653173
 56       0.000001178431
 57       0.000003219340
 58      -0.000120370940
 59       0.000113749500
 60       0.000013727723
 61       0.000004212673
 62      -0.000014741762
 63       0.000058325687
 64      -0.000087837930
 65       0.000012205398
 66       0.000020876434
 67      -0.000005099362
 68       0.000001631885
 69      -0.000238725699
 70       0.000017525955
 71      -0.000008128031
 72      -0.000019844643
 73       0.000002080759
 74      -0.000005969411
 75       0.000006715109
 76      -0.000045862927
 77       0.000150705824
 78       0.677714212237
 79       0.227095055485
 80      -0.686118563165
 81       0.016189133996
 82       0.005427680899
 83      -0.016385844396
 84      -0.003918922096
 85      -0.001326240879
 86       0.003950525266
 87       0.001457999388
 88       0.000559383562
 89      -0.001406934894
 90      -0.000020433239
 91       0.000007304487
 92      -0.000016404003
 93      -0.000003706785
 94       0.000023690709
 95       0.000008242599
 96      -0.000005029825
 97       0.000001364475
 98       0.000005713315
 99      -0.000011077976
100      -0.000005250936
101       0.000006134201
102       0.000009516808
103      -0.000011728453
104       0.000009482221
 Sym=     1a
 Ene= -5.62756424884613E+01
 Spin= Alpha
 Occup= 1.000000
  1       0.000009692226
  2      -0.000106405423
  3       0.000387239420
  4       0.000021934079
  5       0.000032498821
  6       0.000022088097
  7      -0.000197479238
  8      -0.000159673299
  9      -0.000108457508
 10       0.000009294171
 11       0.000006512094
 12      -0.000005472044
 13       0.000011520454
 14       0.000010004576
 15       0.000000595358
 16       0.000008442717
 17      -0.000127090629
 18      -0.000001519660
 19       0.000005087095
 20       0.000003086716
 21       0.000113420251
 22       0.000039959933
 23       0.000052410726
 24      -0.000004592092
 25      -0.000003007829
 26      -0.000007657608
 27      -0.000005180262
 28       0.000002363527
 29      -0.000005387107
 30       0.000018685930
 31       0.000003220821
 32       0.000019637633
 33       0.000018979638
 34      -0.000010860720
 35      -0.000034388342
 36      -0.000000346345
 37      -0.000002095569
 38      -0.000003576339
 39       0.000014110158
 40       0.000071614461
 41       0.000001379376
 42      -0.000001596774
 43      -0.000006779595
 44      -0.000002096072
 45       0.000058922503
 46      -0.000476710403
 47      -0.000025554544
 48      -0.000025646817
 49      -0.000037098515
 50      -0.000001341474
 51       0.000220778696
 52       0.000117684489
 53      -0.000005586160
 54       0.000007594713
 55       0.000000316457
 56       0.000008251264
 57       0.000000053116
 58       0.000059619957
 59      -0.000018243137
 60      -0.000012700429
 61      -0.000011306967
 62      -0.000018706427
 63       0.000101693033
 64      -0.000078078933
 65      -0.000011065372
 66      -0.000005720850
 67      -0.000014586156
 68      -0.000001714572
 69       0.000395225456
 70      -0.000020383703
 71       0.000051717199
 72       0.000004589510
 73      -0.000004232853
 74       0.000012188617
 75      -0.000013738645
 76       0.000077974168
 77      -0.000241830600
 78      -0.702903029456
 79       0.425883282347
 80      -0.553332921219
 81      -0.016792758740
 82       0.010164284239
 83      -0.013221376829
 84       0.004071653578
 85      -0.002428041545
 86       0.003212706850
 87      -0.001527554579
 88       0.000777654719
 89      -0.001241521869
 90      -0.000015089456
 91      -0.000016585534
 92      -0.000012578435
 93      -0.000016743965
 94      -0.000020494247
 95       0.000003934638
 96       0.000008646340
 97       0.000011147578
 98       0.000001452526
 99       0.000011347045
100       0.000001237189
101      -0.000007085220
102      -0.000014613348
103       0.000007410736
104      -0.000009982801
 Sym=     1a
 Ene= -1.02170010097042E+01
 Spin= Alpha
 Occup= 1.000000
  1       0.131153785648
  2       0.003846850964
  3       0.003345459185
  4       0.001868625137
  5      -0.000677970888
  6       0.001142189156
  7       0.000687386174
  8       0.001346063023
  9      -0.004735551075
 10       0.000130267562
 11      -0.001115893250
 12       0.000324884490
 13      -0.001002708967
 14       0.000424140453
 15       0.026910853587
 16       0.000560508108
 17       0.004819784160
 18       0.000265780673
 19      -0.000097058262
 20       0.000175472419
 21      -0.004887119795
 22       0.000533799666
 23      -0.002608325167
 24       0.000056641098
 25       0.000053595730
 26      -0.000079003529
 27       0.000229175063
 28       0.000054381737
 29      -0.000872093751
 30      -0.000644435975
 31      -0.000193465504
 32       0.000026491832
 33      -0.000283249858
 34       0.000683686458
 35       0.002017524287
 36       0.000028789620
 37      -0.000011081301
 38      -0.000047154953
 39      -0.000995656815
 40      -0.001721817341
 41      -0.000029330255
 42      -0.000071238058
 43       0.000114537965
 44       0.978778268822
 45       0.051869407275
 46      -0.044935024006
 47      -0.000712259687
 48      -0.000765689096
 49      -0.000748984929
 50      -0.002072064001
 51       0.005982436999
 52       0.002274320985
 53       0.000800702698
 54      -0.000216000911
 55      -0.001446364297
 56       0.001429211956
 57       0.000138458262
 58      -0.003042568400
 59       0.007457522021
 60      -0.002396202755
 61      -0.000913951924
 62       0.001394375039
 63      -0.003024723643
 64       0.007886381245
 65       0.000273546959
 66       0.000937994857
 67      -0.002834569644
 68       0.000981442571
 69       0.015955531727
 70      -0.000030974496
 71      -0.000169714285
 72       0.000020086359
 73      -0.000010206643
 74       0.000017886285
 75      -0.000178799991
 76       0.002267108572
 77      -0.009511265630
 78       0.000004538902
 79       0.000010422006
 80       0.000001439946
 81      -0.000016479728
 82      -0.000038942568
 83      -0.000006880729
 84       0.000145325700
 85       0.000446202182
 86       0.000187119465
 87      -0.001249353037
 88      -0.004917349494
 89      -0.002586104150
 90       0.000015046485
 91      -0.000017128277
 92      -0.000055819264
 93       0.000047247315
 94      -0.000033281046
 95      -0.000072772415
 96       0.000082588410
 97       0.000274586954
 98      -0.000232291938
 99       0.000159582354
100       0.000248384230
101      -0.000269875205
102      -0.000972552017
103       0.000828160008
104      -0.000513469408
 Sym=     1a
 Ene= -1.02155231066484E+01
 Spin= Alpha
 Occup= 1.000000
  1       0.690468205584
  2       0.031294348361
  3      -0.024596112920
  4      -0.000216203875
  5       0.000408756281
  6      -0.002059420986
  7       0.002620383705
  8       0.002392774455
  9      -0.006055195623
 10      -0.000410747325
 11      -0.000026619407
 12      -0.000160379602
 13       0.001279041124
 14       0.000240473138
 15       0.698698422628
 16       0.031373115349
 17      -0.007507830353
 18       0.000053158628
 19      -0.000681012361
 20       0.002051823942
 21      -0.000530249644
 22       0.001260125370
 23      -0.004043114494
 24      -0.000338610752
 25       0.000112180497
 26      -0.000171764175
 27       0.001184143716
 28       0.000225839171
 29      -0.003431900742
 30       0.003476336612
 31       0.001812095925
 32       0.000191867174
 33      -0.000433532357
 34      -0.003092030092
 35       0.004393312309
 36       0.001694807634
 37      -0.000060335170
 38       0.000725698295
 39      -0.002946349225
 40       0.004356651679
 41      -0.001588577682
 42      -0.000370793683
 43       0.000681694253
 44      -0.111099202891
 45      -0.007002193787
 46       0.006628573994
 47      -0.001180324470
 48      -0.000170119742
 49      -0.001052323502
 50      -0.001857588395
 51       0.000643806260
 52       0.005646663282
 53       0.000062282274
 54      -0.000618214551
 55       0.000314846349
 56      -0.000963560026
 57       0.000017500562
 58       0.000099248865
 59      -0.003456373699
 60       0.000584755951
 61      -0.000008192207
 62      -0.000105342781
 63       0.001778576995
 64       0.000121142998
 65       0.000319531824
 66      -0.000289463203
 67       0.000462569173
 68      -0.000382808289
 69       0.007601146266
 70       0.000190459716
 71      -0.000120294061
 72      -0.000052301531
 73      -0.000008098858
 74       0.000014794259
 75      -0.000139818649
 76       0.001397859502
 77      -0.004972260369
 78      -0.000003982281
 79       0.000023032783
 80       0.000004311863
 81       0.000012816120
 82      -0.000080576003
 83      -0.000015996982
 84      -0.000006589137
 85       0.000487499959
 86       0.000154140021
 87      -0.000497534260
 88      -0.002826235048
 89      -0.001368423451
 90       0.000011161315
 91      -0.000005617053
 92      -0.000039087970
 93       0.000036305509
 94      -0.000017056295
 95      -0.000052268666
 96       0.000028804062
 97       0.000185091565
 98      -0.000170529222
 99       0.000082288471
100       0.000151600998
101      -0.000107079346
102      -0.000562297273
103       0.000505501353
104      -0.000257113841
 Sym=     1a
 Ene= -1.02151047506784E+01
 Spin= Alpha
 Occup= 1.000000
  1      -0.694719319217
  2      -0.036675812939
  3       0.037330101543
  4      -0.000336618075
  5       0.000612878799
  6      -0.001338775003
  7      -0.003006170132
  8      -0.000545919228
  9       0.000590312884
 10      -0.001548258319
 11      -0.000071821910
 12       0.001544168074
 13      -0.001582978301
 14      -0.000273766202
 15       0.698121552102
 16       0.037298661040
 17      -0.032584769333
 18      -0.000136089943
 19       0.000488403848
 20      -0.001330307328
 21       0.002020664629
 22      -0.000847090116
 23       0.003028870125
 24       0.001421762277
 25       0.000152746540
 26      -0.001509088827
 27       0.001592957650
 28       0.000300037865
 29       0.003078755967
 30      -0.005736585433
 31      -0.001870505632
 32      -0.000555293938
 33       0.001460320089
 34      -0.003540592997
 35       0.005180771605
 36       0.002110561704
 37      -0.000164902257
 38       0.001208576428
 39      -0.002914392603
 40       0.006280120721
 41      -0.001980067951
 42      -0.000597139589
 43       0.001282706323
 44       0.073307244266
 45       0.005447266680
 46      -0.011149675307
 47       0.001557368648
 48       0.000103960307
 49       0.000880729584
 50      -0.003500363985
 51      -0.001638324178
 52      -0.000876387743
 53       0.000087799988
 54       0.000779985232
 55      -0.000398754221
 56       0.001126887651
 57      -0.000082202198
 58      -0.001018914531
 59       0.000281329559
 60      -0.000599734504
 61       0.000023558841
 62       0.000106799578
 63      -0.000304010517
 64       0.001899925208
 65      -0.000082344639
 66       0.000221647692
 67      -0.000435915873
 68       0.000145579585
 69      -0.004282872259
 70      -0.000201034439
 71       0.000081420936
 72      -0.000223325654
 73       0.000004499277
 74      -0.000008250884
 75       0.000077572661
 76      -0.000764533947
 77       0.002774565643
 78       0.000005306664
 79      -0.000013844706
 80      -0.000001071449
 81      -0.000017612141
 82       0.000048480138
 83       0.000004515292
 84       0.000048014877
 85      -0.000279288591
 86      -0.000068613000
 87       0.000202681153
 88       0.001582184867
 89       0.000743894855
 90      -0.000005747074
 91       0.000001278101
 92       0.000021823832
 93      -0.000022085244
 94       0.000008515287
 95       0.000025398335
 96      -0.000007849773
 97      -0.000102154162
 98       0.000100459910
 99      -0.000040894201
100      -0.000068104762
101       0.000040861498
102       0.000304487241
103      -0.000278498881
104       0.000128718660
 Sym=     1a
 Ene= -8.66402436695275E+00
 Spin= Alpha
 Occup= 1.000000
  1      -0.000033102240
  2       0.000380074027
  3      -0.000425141245
  4      -0.000037725286
  5      -0.000074444652
  6      -0.000033799984
  7      -0.000271841609
  8       0.000346897454
  9      -0.000647938816
 10       0.000010484020
 11      -0.000009439658
 12      -0.000004991625
 13       0.000009002408
 14       0.000027342839
 15      -0.000008037313
 16       0.000033570740
 17       0.000822312000
 18       0.000000716991
 19      -0.000014436640
 20      -0.000011266744
 21      -0.000046006017
 22       0.000128286882
 23      -0.000440769346
 24       0.000005205339
 25       0.000002621035
 26       0.000004042353
 27       0.000023010983
 28       0.000004434461
 29       0.000041949994
 30       0.000028277178
 31       0.000009591412
 32      -0.000019533644
 33       0.000001809298
 34      -0.000006262441
 35       0.000045927792
 36      -0.000006719926
 37      -0.000006907646
 38       0.000011212749
 39       0.000005646384
 40      -0.000025602852
 41       0.000002779434
 42      -0.000003104508
 43       0.000010915008
 44      -0.000039041621
 45       0.000764834290
 46      -0.003751914255
 47       0.000043347945
 48      -0.000066637355
 49      -0.000013613297
 50      -0.000332508821
 51       0.001290046597
 52       0.000649110220
 53       0.000016709682
 54      -0.000013966152
 55      -0.000065559402
 56       0.000054617890
 57      -0.000010487918
 58       0.000095140249
 59       0.000264109693
 60       0.000023717658
 61      -0.000010870659
 62       0.000011771462
 63       0.000189801470
 64       0.000335413663
 65       0.000034185642
 66       0.000008306408
 67       0.000015196534
 68      -0.000963507680
 69       0.006677340315
 70       0.000133055865
 71       0.000750538893
 72       0.000399123531
 73       0.136659983761
 74      -0.516878134071
 75       1.093412650001
 76       0.032314169595
 77      -0.014346193699
 78      -0.000322054027
 79      -0.001433429628
 80      -0.000765089001
 81       0.000756366841
 82       0.003375306160
 83       0.001800507560
 84       0.000291475697
 85       0.001187882148
 86       0.000645768186
 87      -0.000643657735
 88      -0.002630229387
 89      -0.001431863611
 90      -0.000188496959
 91       0.000155100739
 92       0.000711102922
 93      -0.000633978328
 94       0.000292810997
 95      -0.000153178439
 96       0.000138428178
 97       0.000589013463
 98      -0.000517128364
 99       0.000249717862
100       0.000035696336
101      -0.000041220182
102      -0.000147062594
103       0.000123401442
104      -0.000068758677
 Sym=     1a
 Ene= -6.49676703340917E+00
 Spin= Alpha
 Occup= 1.000000
  1       0.000016798955
  2      -0.000222027882
  3       0.000312480536
  4       0.000022646010
  5       0.000042332351
  6       0.000018994687
  7       0.000087233620
  8      -0.000203782227
  9       0.000317889243
 10      -0.000004947344
 11       0.000006196107
 12       0.000003614078
 13      -0.000004051991
 14      -0.000013336047
 15       0.000004651893