
                                 *****************
                                 * O   R   C   A *
                                 *****************

                                            #,                                       
                                            ###                                      
                                            ####                                     
                                            #####                                    
                                            ######                                   
                                           ########,                                 
                                     ,,################,,,,,                         
                               ,,#################################,,                 
                          ,,##########################################,,             
                       ,#########################################, ''#####,          
                    ,#############################################,,   '####,        
                  ,##################################################,,,,####,       
                ,###########''''           ''''###############################       
              ,#####''   ,,,,##########,,,,          '''####'''          '####       
            ,##' ,,,,###########################,,,                        '##       
           ' ,,###''''                  '''############,,,                           
         ,,##''                                '''############,,,,        ,,,,,,###''
      ,#''                                            '''#######################'''  
     '                                                          ''''####''''         
             ,#######,   #######,   ,#######,      ##                                
            ,#'     '#,  ##    ##  ,#'     '#,    #''#        ,####,    ,#,          
            ##       ##  ##   ,#'  ##            #'  '#       #'       ,# #          
            ##       ##  #######   ##           ,######,      #####,      #          
            '#,     ,#'  ##    ##  '#,     ,#' ,#      #,     #,   #      #          
             '#######'   ##     ##  '#######'  #'      '#     '####' #    #          



                #########################################################
                #                        -***-                          #
                #          Department of theory and spectroscopy        #
                #                                                       #
                #                      Frank Neese                      #
                #                                                       #
                #     Directorship, Architecture, Infrastructure        #
                #                    SHARK, DRIVERS                     #
                #        Core code/Algorithms in most modules           #
                #                                                       #
                #        Max Planck Institute fuer Kohlenforschung      #
                #                Kaiser Wilhelm Platz 1                 #
                #                 D-45470 Muelheim/Ruhr                 #
                #                      Germany                          #
                #                                                       #
                #                  All rights reserved                  #
                #                        -***-                          #
                #########################################################


                         Program Version 6.1.0  -  RELEASE   -
                                (GIT: $679e74b$)
                          ($2025-06-10 18:02:51 +0200$)


 With contributions from (in alphabetic order):
[Max-Planck-Institut fuer Kohlenforschung]                               
  Daniel Aravena         : Magnetic Suceptibility                        
  Michael Atanasov       : Ab Initio Ligand Field Theory (pilot matlab implementation)
  Alexander A. Auer      : GIAO ZORA, VPT2 properties, NMR spectrum      
  Ute Becker             : All parallelization in ORCA, NUMFREQ, NUMCALC 
  Giovanni Bistoni       : ED, misc. LED, open-shell LED, HFLD           
  Dmytro Bykov           : pre 5.0 version of the SCF Hessian            
  Marcos Casanova-Páez   : Triplet and SCS-CIS(D). UHF-(DLPNO)-IP/EA/STEOM-CCSD. UHF-CVS-IP/STEOM-CCSD   
  Vijay G. Chilkuri      : MRCI spin determinant printing, contributions to CSF-ICE 
  Pauline Colinet        : FMM embedding                                 
  Dipayan Datta          : RHF DLPNO-CCSD density                        
  Achintya Kumar Dutta   : EOM-CC, STEOM-CC                              
  Nicolas Foglia         : Exact transition moments, OPA infrastructure, MCD improvements    
  Dmitry Ganyushin       : Spin-Orbit,Spin-Spin,Magnetic field MRCI      
  Miquel Garcia-Rates    : C-PCM and meta-GGA Hessian, CCSD/C-PCM, Gaussian charge scheme 
  Tiago L. C. Gouveia    : GS-ROHF, GS-ROCIS                             
  Yang Guo               : DLPNO-NEVPT2, F12-NEVPT2, CIM, IAO-localization        
  Andreas Hansen         : Spin unrestricted coupled pair/coupled cluster methods 
  Ingolf Harden          : AUTO-CI MPn and infrastructure                
  Benjamin Helmich-Paris : MC-RPA, TRAH-(SCF,CASSCF), AVAS, COSX integrals, SCF dyn. polar., MC-PDFT, srDFT 
  Lee Huntington         : MR-EOM, pCC                                   
  Robert Izsak           : Overlap fitted RIJCOSX, COSX-SCS-MP3, EOM     
  Riya Kayal             : Wick's Theorem for AUTO-CI, AUTO-CI UHF-CCSDT 
  Emily Kempfer          : AUTO-CI RHF CISDT and CCSDT, approximate NEVPT4
  Christian Kollmar      : KDIIS, OOCD, Brueckner-CCSD(T), CCSD density, CASPT2, CASPT2-K, improved NEVPT2 
  Axel Koslowski         : Symmetry handling                             
  Simone Kossmann        : meta-GGA functionals, TD-DFT gradient, OOMP2, (MP2 Hessian; deprecated post 5.0) 
  Lucas Lang             : DCDCAS, Hyperfine gauge corrections, ICE-SOC+SSC
  Marvin Lechner         : AUTO-CI (C++ implementation), FIC-MRCC        
  Spencer Leger          : CASSCF response                               
  Dagmar Lenk            : GEPOL surface, SMD, ORCA-2-JSON               
  Dimitrios Liakos       : Extrapolation schemes; Compound Job, Property file
  Dimitrios Manganas     : Further ROCIS development; embedding schemes. LFT, Crystal Embedding 
  Dimitrios Pantazis     : SARC Basis sets                               
  Anastasios Papadopoulos: AUTO-CI, single reference methods and gradients 
  Taras Petrenko         : pre 6.0 DFT Hessian and TD-DFT gradient,  ECA, NRVS 
  Petra Pikulova         : Analytic Raman intensities                    
  Peter Pinski           : DLPNO-MP2, DLPNO-MP2 Gradient                 
  Shashank Vittal Rao    : ES-AILFT, MagRelax                            
  Christoph Reimann      : Effective Core Potentials                     
  Marius Retegan         : Local ZFS, SOC                                
  Christoph Riplinger    : Optimizer, TS searches, QM/MM, DLPNO-CCSD(T), (RO)-DLPNO pert. Triples 
  Michael Roemelt        : Original ROCIS implementation, recursive CI coupling coefficients
  Masaaki Saitow         : Open-shell DLPNO-CCSD energy and density      
  Barbara Sandhoefer     : DKH picture change effects                    
  Yorick L. A. Schmerwitz: GMF and freeze-and-release deltaSCF, NEB S-IDPP initial path                    
  Kantharuban Sivalingam : CASSCF convergence/infrastructure, NEVPT2, NEVPT3, NEVPT4(SD), FIC-MRCI and CEPA variants
  Bernardo de Souza      : ESD, SOC TD-DFT                               
  Georgi L. Stoychev     : AutoAux, RI-MP2 NMR, DLPNO-MP2 response, X2C  
  Van Anh Tran           : RI-MP2 g-tensors                              
  Willem Van den Heuvel  : Paramagnetic NMR                              
  Zikuan Wang            : NOTCH, Electric field optimization            
  Frank Wennmohs         : Technical directorship and infrastructure     
  Hang Xu                : AUTO-CI-Response properties                   
                                                                         
[FACCTs GmbH]                                                            
  Markus Bursch, Nicolas Foglia, Miquel Garcia-Rates, Ingolf Harden, Hagen Neugebauer, Anastasios Papadopoulos, 
  Christoph Riplinger, Bernardo de Souza, Georgi L. Stoychev                                                    
                                                                 
  APM, various basis sets, CI-OPT, improved COSX, DLPNO-Multilevel,           
  DOCKER, DRACO, updates on ESD, Fragmentator, GOAT, IRC, LR-CPCM, L-BFGS, MBIS, meta-GGA TD-DFT gradient, ML-optimized integration grids, 
  MM, NACMEs, nearIR, NEB, NEB-TS, NL-DFT gradient (VV10), 2- and 3-layer-ONIOM, interface openCOSMO-RS, QMMM,   
  Crystal-QMMM, RESP, rigid body optimization, SF, symmetry and pop. for TD-DFT, various functionals, SOLVATOR                                   
                                                                         
[Other institutions]                                                     
  V. Asgeirsson          : NEB                                           
  Christoph Bannwarth    : sTDA-DFT, sTD-DFT, PBEh-3c, B97-3c, D3        
  Giovanni Bistoni       : ETS/NOCV, ADLD/ADEX, COVALED                  
  Martin Brehm           : Molecular dynamics                            
  Ronald Cardenas        : ETS/NOCV                                      
  Martina Colucci        : COVALED                                       
  Sebastian Ehlert       : rSCAN, r2SCAN, r2SCAN-3c, D4, dhf basis sets  
  Marvin Friede          : D4 for Fr, Ra, Ac-Lr                          
  Lars Goerigk           : TD-DFT with DH, B97 family of functionals     
  Stefan Grimme          : VdW corrections, initial TS optimization, DFT functionals, gCP, sTDA/sTD-DF 
  Waldemar Hujo          : DFT-NL                                        
  H. Jonsson             : NEB                                           
  Holger Kruse           : gCP                                           
  Marcel Mueller         : wB97X-3c, vDZP basis set                      
  Hagen Neugebauer       : wr2SCAN, Native XTB                           
  Gianluca Regni         : ADLD/ADEX                                     
  Tobias Risthaus        : pre 6.0 range-separated hybrid DFT and stability analysis
  Lukas Wittmann         : regularized MP2, r2SCAN double-hybrids, wr2SCAN        
                                                                         
We gratefully acknowledge several colleagues who have allowed us to      
interface, adapt or use parts of their codes:                            
  Ed Valeev, F. Pavosevic, A. Kumar             : LibInt (2-el integral package), F12 methods 
  Garnet Chan, S. Sharma, J. Yang, R. Olivares  : DMRG                   
  Ulf Ekstrom                                   : XCFun DFT Library      
  Mihaly Kallay                                 : mrcc  (arbitrary order and MRCC methods)
  Frank Weinhold                                : gennbo (NPA and NBO analysis)           
  Simon Mueller                                 : openCOSMO-RS                            
  Christopher J. Cramer and Donald G. Truhlar   : smd solvation model                     
  S Lehtola, MJT Oliveira, MAL Marques          : LibXC Library                           
  Liviu Ungur et al                             : ANISO software                          


 Your calculation uses the libint2 library for the computation of 2-el integrals
 For citations please refer to: http://libint.valeyev.net

 Your ORCA version has been built with support for libXC version: 7.0.0
 For citations please refer to: https://libxc.gitlab.io

 This ORCA versions uses:
   CBLAS   interface :  Fast vector & matrix operations
   LAPACKE interface :  Fast linear algebra routines
   SCALAPACK package :  Parallel linear algebra routines
   Shared memory     :  Shared parallel matrices
   BLAS/LAPACK       :  OpenBLAS 0.3.29  USE64BITINT DYNAMIC_ARCH NO_AFFINITY Zen SINGLE_THREADED
        Core in use  :  Zen
   Copyright (c) 2011-2014, The OpenBLAS Project


  ***********************************
  * Starting time: Sun Apr  5 14:30:30 2026
  * Host name:     QC1
  * Process ID:    26355
  * Working dir.:  /home/user/QC/radical/allyl/split-ts1_2
  ***********************************

NOTE: MaxCore=1200 MB was set to SCF,MP2,MDCI,CIPSI,MRCI,RASCI and CIS
      => If you want to overwrite this, your respective input block should be placed after the MaxCore statement
Warning: RI is on but no J-basis has been assigned. Assigning Def2/J (nothing to worry about!)
================================================================================

----- Orbital basis set information -----
Your calculation utilizes the basis: def-SVP
   H-Kr: A. Schäfer, H. Horn, R. Ahlrichs; J. Chem. Phys. 97, 2571 (1992)
   Rb-At: K. Eichkorn, F. Weigend, O. Treutler, R. Ahlrichs; Theor. Chem. Acc. 97, 119 (1997)
   Rn: F. Weigend, R. Ahlrichs; Phys. Chem. Chem. Phys. 7, 3297 (2005)
   Fr-Ra: I. S. Lim, P. Schwerdtfeger, B. Metz, H. Stoll, J. Chem. Phys. 122, 104103 (2005)
   Ac-Lr: X. Cao, M. Dolg, J. Molec. Struct. Theochem. 673 (2004)
----- AuxJ basis set information -----
Your calculation utilizes the auxiliary basis: def2/J
   H-Rn: F. Weigend, Phys. Chem. Chem. Phys. 8, 1057 (2006).
   Fr-Lr: K. Eichkorn, F. Weigend, O. Treutler, R. Ahlrichs; Theor. Chem. Acc. 97, 119 (1997).

================================================================================
                                        WARNINGS
                       Please study these warnings very carefully!
================================================================================


WARNING: your system is open-shell and RHF/RKS was chosen
  ===> : WILL SWITCH to UHF/UKS


================================================================================
                                       INPUT FILE
================================================================================
NAME = radical_014.inp
|  1> ! B3LYP def-SVP 
|  2> %maxcore 1200
|  3> %pal nprocs 8 end
|  4> * xyz 0 2
|  5> C    0.63435100   0.43670900   0.18270700
|  6> C    0.69424800   0.05053100   1.47871900
|  7> H    1.56659200   0.68032500  -0.34007300
|  8> H    1.64528600   0.00411000   2.01547600
|  9> H   -0.20848700  -0.22774100   2.03248000
| 10> C   -0.58485600   0.47192600  -0.60037000
| 11> H   -1.53149000   0.46628300  -0.04210400
| 12> H   -0.59384400   1.12630400  -1.48324800
| 13> H   -0.65619400  -0.64180400  -1.17857600
| 14> Br  -0.95647900  -2.18907700  -1.97928200
| 15> *
| 16> 
| 17>                          ****END OF INPUT****
================================================================================

                       ****************************
                       * Single Point Calculation *
                       ****************************

---------------------------------
CARTESIAN COORDINATES (ANGSTROEM)
---------------------------------
  C      0.634351    0.436709    0.182707
  C      0.694248    0.050531    1.478719
  H      1.566592    0.680325   -0.340073
  H      1.645286    0.004110    2.015476
  H     -0.208487   -0.227741    2.032480
  C     -0.584856    0.471926   -0.600370
  H     -1.531490    0.466283   -0.042104
  H     -0.593844    1.126304   -1.483248
  H     -0.656194   -0.641804   -1.178576
  Br    -0.956479   -2.189077   -1.979282

----------------------------
CARTESIAN COORDINATES (A.U.)
----------------------------
  NO LB      ZA    FRAG     MASS         X           Y           Z
   0 C     6.0000    0    12.011    1.198750    0.825260    0.345266
   1 C     6.0000    0    12.011    1.311939    0.095490    2.794374
   2 H     1.0000    0     1.008    2.960430    1.285628   -0.642645
   3 H     1.0000    0     1.008    3.109140    0.007767    3.808698
   4 H     1.0000    0     1.008   -0.393983   -0.430368    3.840831
   5 C     6.0000    0    12.011   -1.105218    0.891811   -1.134535
   6 H     1.0000    0     1.008   -2.894097    0.881147   -0.079565
   7 H     1.0000    0     1.008   -1.122203    2.128406   -2.802933
   8 H     1.0000    0     1.008   -1.240027   -1.212834   -2.227186
   9 Br   35.0000    0    79.900   -1.807483   -4.136756   -3.740301

--------------------------------
INTERNAL COORDINATES (ANGSTROEM)
--------------------------------
 C      0   0   0     0.000000000000     0.00000000     0.00000000
 C      1   0   0     1.353649955652     0.00000000     0.00000000
 H      1   2   0     1.096230343467   118.83920972     0.00000000
 H      2   1   3     1.093039918637   121.38422107     1.66592592
 H      2   1   3     1.094996361332   121.34612680   181.63622518
 C      1   2   3     1.449453529392   124.15294320   175.92152747
 H      6   1   2     1.099003503252   116.74164102    18.13766723
 H      6   1   2     1.098983582185   117.08851588   158.12999133
 H      6   1   2     1.256903258640   105.94670905   267.41287752
 Br     9   6   1     1.767867335574   173.47373770   148.66198726

---------------------------
INTERNAL COORDINATES (A.U.)
---------------------------
 C      0   0   0     0.000000000000     0.00000000     0.00000000
 C      1   0   0     2.558027697377     0.00000000     0.00000000
 H      1   2   0     2.071575128846   118.83920972     0.00000000
 H      2   1   3     2.065546099668   121.38422107     1.66592592
 H      2   1   3     2.069243240557   121.34612680   181.63622518
 C      1   2   3     2.739070214397   124.15294320   175.92152747
 H      6   1   2     2.076815641367   116.74164102    18.13766723
 H      6   1   2     2.076777996005   117.08851588   158.12999133
 H      6   1   2     2.375202935663   105.94670905   267.41287752
 Br     9   6   1     3.340785105340   173.47373770   148.66198726

---------------------
BASIS SET INFORMATION
---------------------
There are 3 groups of distinct atoms

 Group   1 Type C   : 7s4p1d contracted to 3s2p1d pattern {511/31/1}
 Group   2 Type H   : 4s1p contracted to 2s1p pattern {31/1}
 Group   3 Type Br  : 14s10p6d contracted to 5s4p3d pattern {63311/5311/411}

Atom   0C    basis set group =>   1
Atom   1C    basis set group =>   1
Atom   2H    basis set group =>   2
Atom   3H    basis set group =>   2
Atom   4H    basis set group =>   2
Atom   5C    basis set group =>   1
Atom   6H    basis set group =>   2
Atom   7H    basis set group =>   2
Atom   8H    basis set group =>   2
Atom   9Br   basis set group =>   3
---------------------------------
AUXILIARY/J BASIS SET INFORMATION
---------------------------------
There are 3 groups of distinct atoms

 Group   1 Type C   : 12s5p4d2f1g contracted to 6s4p3d1f1g pattern {711111/2111/211/2/1}
 Group   2 Type H   : 5s2p1d contracted to 3s1p1d pattern {311/2/1}
 Group   3 Type Br  : 19s5p5d3f1g contracted to 8s4p3d2f1g pattern {121111111/2111/311/21/1}

Atom   0C    basis set group =>   1
Atom   1C    basis set group =>   1
Atom   2H    basis set group =>   2
Atom   3H    basis set group =>   2
Atom   4H    basis set group =>   2
Atom   5C    basis set group =>   1
Atom   6H    basis set group =>   2
Atom   7H    basis set group =>   2
Atom   8H    basis set group =>   2
Atom   9Br   basis set group =>   3


           ************************************************************
           *        Program running with 8 parallel MPI-processes     *
           *              working on a common directory               *
           ************************************************************
------------------------------------------------------------------------------
                             ORCA STARTUP CALCULATIONS
                           -- RI-GTO INTEGRALS CHOSEN --
------------------------------------------------------------------------------
------------------------------------------------------------------------------
                   ___                                                        
                  /   \      - P O W E R E D   B Y -                         
                 /     \                                                     
                 |  |  |   _    _      __       _____    __    __             
                 |  |  |  | |  | |    /  \     |  _  \  |  |  /  |          
                  \  \/   | |  | |   /    \    | | | |  |  | /  /          
                 / \  \   | |__| |  /  /\  \   | |_| |  |  |/  /          
                |  |  |   |  __  | /  /__\  \  |    /   |      \           
                |  |  |   | |  | | |   __   |  |    \   |  |\   \          
                \     /   | |  | | |  |  |  |  | |\  \  |  | \   \       
                 \___/    |_|  |_| |__|  |__|  |_| \__\ |__|  \__/        
                                                                              
                      - O R C A' S   B I G   F R I E N D -                    
                                      &                                       
                       - I N T E G R A L  F E E D E R -                       
                                                                              
 v1 FN, 2020, v2 2021, v3 2022-2024                                           
------------------------------------------------------------------------------


----------------------
SHARK INTEGRAL PACKAGE
----------------------

Number of atoms                             ...     10
Number of basis functions                   ...    104
Number of shells                            ...     48
Maximum angular momentum                    ...      2
Integral batch strategy                     ... SHARK/LIBINT Hybrid
RI-J (if used) integral strategy            ... SPLIT-RIJ (Revised 2003 algorithm where possible)
Printlevel                                  ...      1
Contraction scheme used                     ... SEGMENTED contraction
Prescreening option                         ... SCHWARTZ
   Thresh                                   ... 1.000e-10
   Tcut                                     ... 1.000e-11
   Tpresel                                  ... 1.000e-11 
Coulomb Range Separation                    ... NOT USED
Exchange Range Separation                   ... NOT USED
Multipole approximations                    ... NOT USED
Finite Nucleus Model                        ... NOT USED
CABS basis                                  ... NOT available
Auxiliary Coulomb fitting basis             ... AVAILABLE
   # of basis functions in Aux-J            ...    271
   # of shells in Aux-J                     ...     93
   Maximum angular momentum in Aux-J        ...      4
Auxiliary J/K fitting basis                 ... NOT available
Auxiliary Correlation fitting basis         ... NOT available
Auxiliary 'external' fitting basis          ... NOT available

Checking pre-screening integrals            ... done (  0.0 sec) Dimension = 48
   => SHARK Basis and OBASIS are compatible. Storing Pre-screening
Shell pair information
Shell pair cut-off parameter TPreSel        ...   1.0e-11
Total number of shell pairs                 ...      1176
Shell pairs after pre-screening             ...      1084
Total number of primitive shell pairs       ...      4753
Primitive shell pairs kept                  ...      3322
          la=0 lb=0:    331 shell pairs
          la=1 lb=0:    383 shell pairs
          la=1 lb=1:    124 shell pairs
          la=2 lb=0:    142 shell pairs
          la=2 lb=1:     86 shell pairs
          la=2 lb=2:     18 shell pairs

Checking whether 4 symmetric matrices of dimension 104 fit in memory
:Max Core in MB      =   1200.00
 MB in use           =      4.72
 MB left             =   1195.28
 MB needed           =      0.17
 Data fit in memory  = YES
Calculating RI/J V-Matrix + Cholesky decomp.... done (  0.0 sec)
Calculating Nuclear repulsion               ... done (  0.0 sec) ENN=    195.476757093652 Eh

Diagonalization of the overlap matrix:
Smallest eigenvalue                        ... 2.735e-03
Time for diagonalization                   ...    0.001 sec
Threshold for overlap eigenvalues          ... 1.000e-07
Number of eigenvalues below threshold      ... 0
Time for construction of square roots      ...    0.000 sec
Total time needed                          ...    0.002 sec

-------------------
DFT GRID GENERATION
-------------------

General Integration Accuracy     IntAcc      ... 4.388
Radial Grid Type                 RadialGrid  ... OptM3 with GC (2021)
Angular Grid (max. ang.)         AngularGrid ... 4 (Lebedev-302)
Angular grid pruning method      GridPruning ... 4 (adaptive)
Weight generation scheme         WeightScheme... mBecke (2022)
Basis function cutoff            BFCut       ... 1.0000e-10
Integration weight cutoff        WCut        ... 1.0000e-14
Partially contracted basis set               ... off
Rotationally invariant grid construction     ... off
Angular grids for H and He will be reduced by one unit
Core-polarized basis detected: some atoms will have their core
                               angular grid increased.

Total number of grid points                  ...    48991
Total number of batches                      ...      773
Average number of points per batch           ...       63
Average number of grid points per atom       ...     4899

--------------------
COSX GRID GENERATION
--------------------

GRIDX 1
-------
General Integration Accuracy     IntAcc      ... 3.816
Radial Grid Type                 RadialGrid  ... OptM3 with GC (2021)
Angular Grid (max. ang.)         AngularGrid ... 1 (Lebedev-50)
Angular grid pruning method      GridPruning ... 4 (adaptive)
Weight generation scheme         WeightScheme... mBecke (2022)
Basis function cutoff            BFCut       ... 1.0000e-10
Integration weight cutoff        WCut        ... 1.0000e-14
Partially contracted basis set               ... on
Rotationally invariant grid construction     ... off
Angular grids for H and He will be reduced by one unit
Core-polarized basis detected: some atoms will have their core
                               angular grid increased.

Total number of grid points                  ...    11054
Total number of batches                      ...       91
Average number of points per batch           ...      121
Average number of grid points per atom       ...     1105
UseSFitting                                  ... on

GRIDX 2
-------
General Integration Accuracy     IntAcc      ... 4.020
Radial Grid Type                 RadialGrid  ... OptM3 with GC (2021)
Angular Grid (max. ang.)         AngularGrid ... 2 (Lebedev-110)
Angular grid pruning method      GridPruning ... 4 (adaptive)
Weight generation scheme         WeightScheme... mBecke (2022)
Basis function cutoff            BFCut       ... 1.0000e-10
Integration weight cutoff        WCut        ... 1.0000e-14
Partially contracted basis set               ... on
Rotationally invariant grid construction     ... off
Angular grids for H and He will be reduced by one unit
Core-polarized basis detected: some atoms will have their core
                               angular grid increased.

Total number of grid points                  ...    16374
Total number of batches                      ...      132
Average number of points per batch           ...      124
Average number of grid points per atom       ...     1637
UseSFitting                                  ... on

GRIDX 3
-------
General Integration Accuracy     IntAcc      ... 4.338
Radial Grid Type                 RadialGrid  ... OptM3 with GC (2021)
Angular Grid (max. ang.)         AngularGrid ... 3 (Lebedev-194)
Angular grid pruning method      GridPruning ... 4 (adaptive)
Weight generation scheme         WeightScheme... mBecke (2022)
Basis function cutoff            BFCut       ... 1.0000e-10
Integration weight cutoff        WCut        ... 1.0000e-14
Partially contracted basis set               ... on
Rotationally invariant grid construction     ... off
Angular grids for H and He will be reduced by one unit
Core-polarized basis detected: some atoms will have their core
                               angular grid increased.

Total number of grid points                  ...    28538
Total number of batches                      ...      229
Average number of points per batch           ...      124
Average number of grid points per atom       ...     2854
UseSFitting                                  ... on
Grids setup in   0.4 sec
Initializing property integral containers    ... done (  0.0 sec)

SHARK setup successfully completed in   0.4 seconds

Maximum memory used throughout the entire STARTUP-calculation: 17.6 MB


           ************************************************************
           *        Program running with 8 parallel MPI-processes     *
           *              working on a common directory               *
           ************************************************************
-------------------------------------------------------------------------------
                                 ORCA GUESS
                   Start orbitals & Density for SCF / CASSCF
-------------------------------------------------------------------------------

------------
SCF SETTINGS
------------
Hamiltonian:
 Density Functional     Method          .... DFT(GTOs)
 Exchange Functional    Exchange        .... B88
   X-Alpha parameter    XAlpha          ....  0.666667
   Becke's b parameter  XBeta           ....  0.004200
 Correlation Functional Correlation     .... LYP
 LDA part of GGA corr.  LDAOpt          .... VWN-5
 Gradients option       PostSCFGGA      .... off
 Hybrid DFT is turned on
   Fraction HF Exchange ScalHFX         ....  0.200000
   Scaling of DF-GGA-X  ScalDFX         ....  0.720000
   Scaling of DF-GGA-C  ScalDFC         ....  0.810000
   Scaling of DF-LDA-C  ScalLDAC        ....  1.000000
   Perturbative correction              ....  0.000000
   NL short-range parameter             ....  4.800000
 RI-approximation to the Coulomb term is turned on
   Number of AuxJ basis functions       .... 271
   RIJ-COSX (HFX calculated with COS-X)).... on


General Settings:
 Integral files         IntName         .... radical_014
 Hartree-Fock type      HFTyp           .... UHF
 Total Charge           Charge          ....    0
 Multiplicity           Mult            ....    2
 Number of Electrons    NEL             ....   59
 Basis Dimension        Dim             ....  104
 Nuclear Repulsion      ENuc            ....    195.4767570937 Eh

Convergence Acceleration:
 AO-DIIS                CNVDIIS         .... on
   Start iteration      DIISMaxIt       ....    12
   Startup error        DIISStart       ....  0.200000
   # of expansion vecs  DIISMaxEq       ....     5
   Bias factor          DIISBfac        ....   1.050
   Max. coefficient     DIISMaxC        ....  10.000
 MO-DIIS                CNVKDIIS        .... off
 Trust-Rad. Augm. Hess. CNVTRAH         .... auto
   Auto Start mean grad. ratio tolernc. ....  1.125000
   Auto Start start iteration           ....    50
   Auto Start num. interpolation iter.  ....    10
   Max. Number of Micro iterations      ....    24
   Max. Number of Macro iterations      .... Maxiter - #DIIS iter
   Number of Davidson start vectors     ....     2
   Converg. threshold    (grad. norm)   ....   5.000e-05
   Grad. Scal. Fac. for Micro threshold ....   0.100
   Minimum threshold for Micro iter.    ....   1.000e-02
   NR start threshold (gradient norm)   ....   1.000e-04
   Initial trust radius                 ....   0.400
   Minimum AH scaling param. (alpha)    ....   1.000
   Maximum AH scaling param. (alpha)    .... 1000.000
   Quad. conv. algorithm                .... NR
   White noise on init. David. guess    .... on
   Maximum white noise                  ....   0.010
   Pseudo random numbers                .... off
   Inactive MOs                         .... canonical
   Orbital update algorithm             .... Taylor
   Preconditioner                       .... Diag
   Full preconditioner red. dimension   ....   250
 SOSCF                 CNVSOSCF           .... on
   Start iteration     SOSCFMaxIt         ....   150
   Startup grad/error  SOSCFStart         ....  0.003300
   Hessian update      SOSCFHessUp        .... L-BFGS
   Autom. constraints  SOSCFAutoConstrain .... off
 Level Shifting         CNVShift        .... on
   Level shift para.    LevelShift      ....    0.2500
   Turn off err/grad.   ShiftErr        ....    0.0010
 Zerner damping         CNVZerner       .... off
 Static damping         CNVDamp         .... on
   Fraction old density DampFac         ....    0.7000
   Max. Damping (<1)    DampMax         ....    0.9800
   Min. Damping (>=0)   DampMin         ....    0.0000
   Turn off err/grad.   DampErr         ....    0.1000

SCF Procedure:
 Maximum # iterations   MaxIter         ....   125
 SCF integral mode      SCFMode         .... Direct
   Integral package                     .... SHARK and LIBINT hybrid scheme
 Reset frequency        DirectResetFreq ....    20
 Integral Threshold     Thresh          ....  1.000e-10 Eh
 Primitive CutOff       TCut            ....  1.000e-11 Eh

Convergence Tolerance:
 Convergence Check Mode ConvCheckMode   .... Total+1el-Energy
 Convergence forced     ConvForced      .... 0
 Energy Change          TolE            ....  1.000e-06 Eh
 1-El. energy change                    ....  1.000e-03 Eh
 Orbital Gradient       TolG            ....  5.000e-05
 Orbital Rotation angle TolX            ....  5.000e-05
 DIIS Error             TolErr          ....  1.000e-06

------------------------------
INITIAL GUESS: MODEL POTENTIAL
------------------------------
Loading Hartree-Fock densities                     ... done
Calculating cut-offs                               ... done
Initializing the effective Hamiltonian             ... done
Setting up the integral package (SHARK)            ... done
Starting the Coulomb interaction                   ... done (   0.0 sec)
Making the grid                                    ... done (   0.1 sec)
Mapping shells                                     ... done
Starting the XC term evaluation                    ... done (   0.0 sec)
  promolecular density results
     # of electrons  =     58.997910488
     EX              =   -106.847038695
     EC              =     -2.450478573
     EX+EC           =   -109.297517267
Transforming the Hamiltonian                       ... done (   0.0 sec)
Diagonalizing the Hamiltonian                      ... done (   0.0 sec)
Back transforming the eigenvectors                 ... done (   0.0 sec)
Now organizing SCF variables                       ... done
                      ------------------
                      INITIAL GUESS DONE (   0.1 sec)
                      ------------------
             **** ENERGY FILE WAS UPDATED (radical_014.en.tmp) ****
Finished Guess after   0.4 sec
Maximum memory used throughout the entire GUESS-calculation: 8.9 MB


           ************************************************************
           *        Program running with 8 parallel MPI-processes     *
           *              working on a common directory               *
           ************************************************************

-------------------------------------------------------------------------------------------
                                      ORCA LEAN-SCF
                              memory conserving SCF solver
-------------------------------------------------------------------------------------------

----------------------------------------D-I-I-S--------------------------------------------
Iteration    Energy (Eh)           Delta-E    RMSDP     MaxDP     DIISErr   Damp  Time(sec)
-------------------------------------------------------------------------------------------
               ***  Starting incremental Fock matrix formation  ***
    1    -2691.3304977968223284     0.00e+00  4.39e-03  3.35e-02  7.29e-02  0.700   0.2
    2    -2691.3731338934298947    -4.26e-02  3.21e-03  2.09e-02  3.90e-02  0.700   0.2
                               ***Turning on AO-DIIS***
    3    -2691.3908380525263055    -1.77e-02  1.50e-03  1.31e-02  1.61e-02  0.700   0.2
    4    -2691.4009217015563991    -1.01e-02  3.00e-03  2.84e-02  9.31e-03  0.000   0.2
    5    -2691.4231516957365784    -2.22e-02  6.40e-04  5.58e-03  3.48e-03  0.000   0.2
                              *** Initializing SOSCF ***
---------------------------------------S-O-S-C-F--------------------------------------
Iteration    Energy (Eh)           Delta-E    RMSDP     MaxDP     MaxGrad    Time(sec)
--------------------------------------------------------------------------------------
    6    -2691.4234247115764447    -2.73e-04  3.06e-04  3.16e-03  1.89e-03     0.2
               *** Restarting incremental Fock matrix formation ***
    7    -2691.4234834026156022    -5.87e-05  3.45e-04  3.10e-03  2.02e-03     0.2
    8    -2691.4235281010105609    -4.47e-05  4.26e-04  4.65e-03  1.91e-03     0.2
    9    -2691.4235452308735148    -1.71e-05  1.59e-04  1.11e-03  1.07e-03     0.2
   10    -2691.4235556041894597    -1.04e-05  6.60e-05  3.51e-04  3.38e-04     0.2
   11    -2691.4235565314706946    -9.27e-07  3.25e-05  3.25e-04  1.39e-04     0.2
                 **** Energy Check signals convergence ****

               *****************************************************
               *                     SUCCESS                       *
               *           SCF CONVERGED AFTER  11 CYCLES          *
               *****************************************************

Recomputing exchange energy using gridx3       ... done (    0.244 sec)
Old exchange energy                            :    -21.426900923 Eh
New exchange energy                            :    -21.426902990 Eh
Exchange energy change after final integration :     -0.000002066 Eh
Total energy after final integration           :  -2691.423558964 Eh
             **** ENERGY FILE WAS UPDATED (radical_014.en.tmp) ****

----------------
TOTAL SCF ENERGY
----------------

Total Energy       :      -2691.42355896371282 Eh          -73237.35835 eV

Components:
Nuclear Repulsion  :        195.47675709365197 Eh            5319.19298 eV
Electronic Energy  :      -2886.90031399098098 Eh          -78556.55128 eV
One Electron Energy:      -4128.48782589347320 Eh         -112341.86509 eV
Two Electron Energy:       1241.58751190249200 Eh           33785.31381 eV

Virial components:
Potential Energy   :      -5378.52021673404397 Eh         -146356.97574 eV
Kinetic Energy     :       2687.09665777033115 Eh           73119.61739 eV
Virial Ratio       :          2.00161025141424

DFT components:
N(Alpha)           :       29.999993159854 electrons
N(Beta)            :       28.999990733751 electrons
N(Total)           :       58.999983893605 electrons
E(X)               :      -85.242981871581 Eh       
E(C)               :       -2.874584963790 Eh       
E(XC)              :      -88.117566835371 Eh       

---------------
SCF CONVERGENCE
---------------

  Last Energy change         ...    9.2728e-07  Tolerance :   1.0000e-06
  Last MAX-Density change    ...    3.2534e-04  Tolerance :   1.0000e-05
  Last RMS-Density change    ...    3.2473e-05  Tolerance :   1.0000e-06
  Last DIIS Error            ...    1.8871e-03  Tolerance :   1.0000e-06
  Last Orbital Gradient      ...    1.3889e-04  Tolerance :   5.0000e-05
  Last Orbital Rotation      ...    7.7664e-04  Tolerance :   5.0000e-05


----------------------
UHF SPIN CONTAMINATION
----------------------

Warning: in a DFT calculation there is little theoretical justification to 
         calculate <S**2> as in Hartree-Fock theory. We will do it anyways
         but you should keep in mind that the values have only limited relevance

Expectation value of <S**2>     :     0.765729
Ideal value S*(S+1) for S=0.5   :     0.750000
Deviation                       :     0.015729

----------------
ORBITAL ENERGIES
----------------
                 SPIN UP ORBITALS
  NO   OCC          E(Eh)            E(eV) 
   0   1.0000    -482.753453    -13136.3893 
   1   1.0000     -62.436558     -1698.9851 
   2   1.0000     -56.269646     -1531.1749 
   3   1.0000     -56.265902     -1531.0730 
   4   1.0000     -56.265892     -1531.0728 
   5   1.0000     -10.226460      -278.2761 
   6   1.0000     -10.221704      -278.1467 
   7   1.0000     -10.218513      -278.0599 
   8   1.0000      -8.654789      -235.5088 
   9   1.0000      -6.490229      -176.6081 
  10   1.0000      -6.474655      -176.1843 
  11   1.0000      -6.474592      -176.1826 
  12   1.0000      -2.603198       -70.8366 
  13   1.0000      -2.599315       -70.7310 
  14   1.0000      -2.599273       -70.7298 
  15   1.0000      -2.587598       -70.4121 
  16   1.0000      -2.587595       -70.4120 
  17   1.0000      -0.816417       -22.2158 
  18   1.0000      -0.741971       -20.1901 
  19   1.0000      -0.703185       -19.1346 
  20   1.0000      -0.578042       -15.7293 
  21   1.0000      -0.500172       -13.6104 
  22   1.0000      -0.459731       -12.5099 
  23   1.0000      -0.446746       -12.1566 
  24   1.0000      -0.408400       -11.1131 
  25   1.0000      -0.381876       -10.3914 
  26   1.0000      -0.313114        -8.5203 
  27   1.0000      -0.265957        -7.2371 
  28   1.0000      -0.265665        -7.2291 
  29   1.0000      -0.248233        -6.7548 
  30   0.0000      -0.017874        -0.4864 
  31   0.0000       0.059937         1.6310 
  32   0.0000       0.077150         2.0994 
  33   0.0000       0.095307         2.5934 
  34   0.0000       0.134612         3.6630 
  35   0.0000       0.138392         3.7658 
  36   0.0000       0.172485         4.6935 
  37   0.0000       0.243798         6.6341 
  38   0.0000       0.314349         8.5539 
  39   0.0000       0.352476         9.5914 
  40   0.0000       0.373880        10.1738 

                 SPIN DOWN ORBITALS
  NO   OCC          E(Eh)            E(eV) 
   0   1.0000    -482.751887    -13136.3467 
   1   1.0000     -62.435729     -1698.9626 
   2   1.0000     -56.266352     -1531.0853 
   3   1.0000     -56.265295     -1531.0565 
   4   1.0000     -56.265283     -1531.0562 
   5   1.0000     -10.223422      -278.1934 
   6   1.0000     -10.220664      -278.1184 
   7   1.0000     -10.214268      -277.9444 
   8   1.0000      -8.652457      -235.4453 
   9   1.0000      -6.483880      -176.4354 
  10   1.0000      -6.473595      -176.1555 
  11   1.0000      -6.473531      -176.1537 
  12   1.0000      -2.598709       -70.7145 
  13   1.0000      -2.595799       -70.6353 
  14   1.0000      -2.595757       -70.6341 
  15   1.0000      -2.586988       -70.3955 
  16   1.0000      -2.586986       -70.3955 
  17   1.0000      -0.809766       -22.0348 
  18   1.0000      -0.721521       -19.6336 
  19   1.0000      -0.686998       -18.6942 
  20   1.0000      -0.574111       -15.6223 
  21   1.0000      -0.497037       -13.5251 
  22   1.0000      -0.455657       -12.3991 
  23   1.0000      -0.422326       -11.4921 
  24   1.0000      -0.404441       -11.0054 
  25   1.0000      -0.380060       -10.3420 
  26   1.0000      -0.288029        -7.8377 
  27   1.0000      -0.258084        -7.0228 
  28   1.0000      -0.257743        -7.0136 
  29   0.0000      -0.161783        -4.4023 
  30   0.0000      -0.006128        -0.1667 
  31   0.0000       0.061488         1.6732 
  32   0.0000       0.078921         2.1476 
  33   0.0000       0.098290         2.6746 
  34   0.0000       0.137140         3.7318 
  35   0.0000       0.139907         3.8071 
  36   0.0000       0.187854         5.1118 
  37   0.0000       0.245323         6.6756 
  38   0.0000       0.317947         8.6518 
  39   0.0000       0.359784         9.7902 
*Only the first 10 virtual orbitals were printed.

                    ********************************
                    * MULLIKEN POPULATION ANALYSIS *
                    ********************************

--------------------------------------------
MULLIKEN ATOMIC CHARGES AND SPIN POPULATIONS
--------------------------------------------
   0 C :   -0.076580   -0.132251
   1 C :    0.000677    0.322416
   2 H :    0.025682    0.004887
   3 H :    0.042803   -0.014356
   4 H :    0.036196   -0.013767
   5 C :    0.047809    0.326256
   6 H :    0.049152   -0.007214
   7 H :    0.048243   -0.004305
   8 H :    0.063601   -0.035094
   9 Br:   -0.237583    0.553428
Sum of atomic charges         :    0.0000000
Sum of atomic spin populations:    1.0000000

-----------------------------------------------------
MULLIKEN REDUCED ORBITAL CHARGES AND SPIN POPULATIONS
-----------------------------------------------------
CHARGE
  0 C s       :     3.155476  s :     3.155476
      pz      :     0.968673  p :     2.884803
      px      :     0.963700
      py      :     0.952430
      dz2     :     0.008760  d :     0.036301
      dxz     :     0.013067
      dyz     :     0.006549
      dx2y2   :     0.004607
      dxy     :     0.003318

  1 C s       :     3.127108  s :     3.127108
      pz      :     0.972930  p :     2.846308
      px      :     0.936053
      py      :     0.937325
      dz2     :     0.006796  d :     0.025907
      dxz     :     0.010442
      dyz     :     0.004730
      dx2y2   :     0.002849
      dxy     :     0.001089

  2 H s       :     0.951883  s :     0.951883
      pz      :     0.006030  p :     0.022434
      px      :     0.011763
      py      :     0.004641

  3 H s       :     0.933805  s :     0.933805
      pz      :     0.006596  p :     0.023392
      px      :     0.012348
      py      :     0.004449

  4 H s       :     0.940485  s :     0.940485
      pz      :     0.006858  p :     0.023319
      px      :     0.011408
      py      :     0.005053

  5 C s       :     3.004101  s :     3.004101
      pz      :     0.976739  p :     2.919384
      px      :     0.978825
      py      :     0.963821
      dz2     :     0.003703  d :     0.028705
      dxz     :     0.007862
      dyz     :     0.006895
      dx2y2   :     0.007755
      dxy     :     0.002490

  6 H s       :     0.927683  s :     0.927683
      pz      :     0.006752  p :     0.023165
      px      :     0.011830
      py      :     0.004583

  7 H s       :     0.928331  s :     0.928331
      pz      :     0.010770  p :     0.023427
      px      :     0.003811
      py      :     0.008845

  8 H s       :     0.900067  s :     0.900067
      pz      :     0.009913  p :     0.036332
      px      :     0.006080
      py      :     0.020339

  9 Brs       :     7.969562  s :     7.969562
      pz      :     5.856597  p :    17.255176
      px      :     5.975452
      py      :     5.423126
      dz2     :     2.000695  d :    10.012845
      dxz     :     2.000291
      dyz     :     2.005715
      dx2y2   :     2.005080
      dxy     :     2.001064


SPIN
  0 C s       :    -0.018073  s :    -0.018073
      pz      :    -0.020175  p :    -0.118410
      px      :    -0.012096
      py      :    -0.086139
      dz2     :     0.000916  d :     0.004232
      dxz     :     0.000010
      dyz     :     0.002210
      dx2y2   :     0.000261
      dxy     :     0.000835

  1 C s       :     0.032121  s :     0.032121
      pz      :     0.027882  p :     0.291347
      px      :     0.018037
      py      :     0.245428
      dz2     :    -0.000234  d :    -0.001052
      dxz     :    -0.000012
      dyz     :    -0.000374
      dx2y2   :    -0.000396
      dxy     :    -0.000036

  2 H s       :     0.005388  s :     0.005388
      pz      :    -0.000044  p :    -0.000501
      px      :    -0.000027
      py      :    -0.000430

  3 H s       :    -0.015752  s :    -0.015752
      pz      :     0.000088  p :     0.001396
      px      :     0.000077
      py      :     0.001231

  4 H s       :    -0.015025  s :    -0.015025
      pz      :     0.000056  p :     0.001258
      px      :     0.000069
      py      :     0.001133

  5 C s       :     0.026916  s :     0.026916
      pz      :     0.057224  p :     0.300210
      px      :     0.012549
      py      :     0.230436
      dz2     :     0.000052  d :    -0.000870
      dxz     :    -0.000220
      dyz     :    -0.000269
      dx2y2   :    -0.000128
      dxy     :    -0.000305

  6 H s       :    -0.008473  s :    -0.008473
      pz      :     0.000072  p :     0.001259
      px      :     0.000105
      py      :     0.001082

  7 H s       :    -0.005755  s :    -0.005755
      pz      :     0.000676  p :     0.001449
      px      :    -0.000028
      py      :     0.000802

  8 H s       :    -0.047954  s :    -0.047954
      pz      :     0.002654  p :     0.012861
      px      :     0.000222
      py      :     0.009985

  9 Brs       :     0.000302  s :     0.000302
      pz      :     0.103414  p :     0.554065
      px      :     0.008784
      py      :     0.441867
      dz2     :    -0.000015  d :    -0.000939
      dxz     :    -0.000010
      dyz     :    -0.000468
      dx2y2   :    -0.000413
      dxy     :    -0.000033



                     *******************************
                     * LOEWDIN POPULATION ANALYSIS *
                     *******************************

-------------------------------------------
LOEWDIN ATOMIC CHARGES AND SPIN POPULATIONS
-------------------------------------------
   0 C :   -0.019491   -0.081716
   1 C :   -0.000284    0.265282
   2 H :    0.035669    0.000294
   3 H :    0.032512   -0.000897
   4 H :    0.030144   -0.001187
   5 C :   -0.015604    0.260217
   6 H :    0.041411    0.001423
   7 H :    0.043871    0.003387
   8 H :    0.030188    0.038886
   9 Br:   -0.178418    0.514311

----------------------------------------------------
LOEWDIN REDUCED ORBITAL CHARGES AND SPIN POPULATIONS
----------------------------------------------------
CHARGE
  0 C s       :     2.876151  s :     2.876151
      pz      :     1.067701  p :     3.051470
      px      :     1.044760
      py      :     0.939009
      dz2     :     0.023798  d :     0.091870
      dxz     :     0.035208
      dyz     :     0.014496
      dx2y2   :     0.011006
      dxy     :     0.007363

  1 C s       :     2.896402  s :     2.896402
      pz      :     1.057943  p :     3.037122
      px      :     1.046374
      py      :     0.932805
      dz2     :     0.018434  d :     0.066760
      dxz     :     0.028145
      dyz     :     0.010357
      dx2y2   :     0.006964
      dxy     :     0.002860

  2 H s       :     0.898410  s :     0.898410
      pz      :     0.017291  p :     0.065921
      px      :     0.034372
      py      :     0.014258

  3 H s       :     0.899587  s :     0.899587
      pz      :     0.017972  p :     0.067900
      px      :     0.036236
      py      :     0.013693

  4 H s       :     0.902242  s :     0.902242
      pz      :     0.018595  p :     0.067614
      px      :     0.033605
      py      :     0.015414

  5 C s       :     2.872367  s :     2.872367
      pz      :     1.038110  p :     3.071684
      px      :     1.056760
      py      :     0.976814
      dz2     :     0.008075  d :     0.071553
      dxz     :     0.021515
      dyz     :     0.017144
      dx2y2   :     0.019849
      dxy     :     0.004971

  6 H s       :     0.891072  s :     0.891072
      pz      :     0.019694  p :     0.067517
      px      :     0.034762
      py      :     0.013060

  7 H s       :     0.888155  s :     0.888155
      pz      :     0.031864  p :     0.067973
      px      :     0.010838
      py      :     0.025271

  8 H s       :     0.851933  s :     0.851933
      pz      :     0.029099  p :     0.117879
      px      :     0.013092
      py      :     0.075688

  9 Brs       :     7.925446  s :     7.925446
      pz      :     5.849725  p :    17.231850
      px      :     5.974667
      py      :     5.407458
      dz2     :     2.000965  d :    10.021121
      dxz     :     2.000414
      dyz     :     2.009653
      dx2y2   :     2.008538
      dxy     :     2.001551


SPIN
  0 C s       :    -0.004968  s :    -0.004968
      pz      :    -0.009474  p :    -0.086940
      px      :    -0.005268
      py      :    -0.072198
      dz2     :     0.002267  d :     0.010192
      dxz     :     0.000382
      dyz     :     0.004892
      dx2y2   :     0.000504
      dxy     :     0.002147

  1 C s       :     0.008539  s :     0.008539
      pz      :     0.022752  p :     0.259124
      px      :     0.009428
      py      :     0.226945
      dz2     :    -0.000595  d :    -0.002380
      dxz     :    -0.000314
      dyz     :    -0.000949
      dx2y2   :    -0.000468
      dxy     :    -0.000054

  2 H s       :     0.002498  s :     0.002498
      pz      :    -0.000190  p :    -0.002204
      px      :    -0.000325
      py      :    -0.001689

  3 H s       :    -0.006963  s :    -0.006963
      pz      :     0.000635  p :     0.006065
      px      :     0.000790
      py      :     0.004641

  4 H s       :    -0.006897  s :    -0.006897
      pz      :     0.000637  p :     0.005710
      px      :     0.000686
      py      :     0.004388

  5 C s       :     0.014548  s :     0.014548
      pz      :     0.044942  p :     0.248926
      px      :     0.006777
      py      :     0.197206
      dz2     :    -0.000079  d :    -0.003257
      dxz     :    -0.000581
      dyz     :    -0.001179
      dx2y2   :    -0.000745
      dxy     :    -0.000672

  6 H s       :    -0.005161  s :    -0.005161
      pz      :     0.001013  p :     0.006584
      px      :     0.000780
      py      :     0.004791

  7 H s       :    -0.003725  s :    -0.003725
      pz      :     0.002106  p :     0.007112
      px      :     0.000106
      py      :     0.004900

  8 H s       :    -0.009199  s :    -0.009199
      pz      :     0.009924  p :     0.048085
      px      :     0.000703
      py      :     0.037457

  9 Brs       :     0.000273  s :     0.000273
      pz      :     0.095505  p :     0.513325
      px      :     0.007912
      py      :     0.409908
      dz2     :     0.000047  d :     0.000712
      dxz     :     0.000002
      dyz     :     0.000324
      dx2y2   :     0.000302
      dxy     :     0.000038



                      *****************************
                      * MAYER POPULATION ANALYSIS *
                      *****************************

  NA   - Mulliken gross atomic population
  ZA   - Total nuclear charge
  QA   - Mulliken gross atomic charge
  VA   - Mayer's total valence
  BVA  - Mayer's bonded valence
  FA   - Mayer's free valence

  ATOM       NA         ZA         QA         VA         BVA        FA
  0 C      6.0766     6.0000    -0.0766     4.1229     4.1133     0.0096
  1 C      5.9993     6.0000     0.0007     3.9447     3.8710     0.0737
  2 H      0.9743     1.0000     0.0257     0.9801     0.9801     0.0000
  3 H      0.9572     1.0000     0.0428     0.9757     0.9754     0.0003
  4 H      0.9638     1.0000     0.0362     0.9848     0.9846     0.0002
  5 C      5.9522     6.0000     0.0478     3.8863     3.8031     0.0832
  6 H      0.9508     1.0000     0.0492     0.9934     0.9932     0.0001
  7 H      0.9518     1.0000     0.0482     0.9854     0.9852     0.0001
  8 H      0.9364     1.0000     0.0636     1.0756     1.0696     0.0060
  9 Br    35.2376    35.0000    -0.2376     0.9676     0.6587     0.3089

  Mayer bond orders larger than 0.100000
B(  0-C ,  1-C ) :   1.8353 B(  0-C ,  2-H ) :   0.9618 B(  0-C ,  5-C ) :   1.1812 
B(  1-C ,  3-H ) :   0.9540 B(  1-C ,  4-H ) :   0.9566 B(  5-C ,  6-H ) :   0.9505 
B(  5-C ,  7-H ) :   0.9362 B(  5-C ,  8-H ) :   0.6257 B(  8-H ,  9-Br) :   0.3987 


-------
TIMINGS
-------

Total SCF time: 0 days 0 hours 0 min 2 sec 

Total time                  ....       2.867 sec
Sum of individual times     ....       2.680 sec  ( 93.5%)

SCF preparation             ....       0.341 sec  ( 11.9%)
Fock matrix formation       ....       2.178 sec  ( 76.0%)
  Startup                   ....       0.004 sec  (  0.2% of F)
  Split-RI-J                ....       0.131 sec  (  6.0% of F)
  Chain of spheres X        ....       1.652 sec  ( 75.8% of F)
  XC integration            ....       0.478 sec  ( 21.9% of F)
    XC Preparation          ....       0.000 sec  (  0.0% of XC)
    Basis function eval.    ....       0.106 sec  ( 22.1% of XC)
    Density eval.           ....       0.097 sec  ( 20.3% of XC)
    XC-Functional eval.     ....       0.036 sec  (  7.5% of XC)
    XC-Potential eval.      ....       0.119 sec  ( 25.0% of XC)
Diagonalization             ....       0.000 sec  (  0.0%)
Density matrix formation    ....       0.025 sec  (  0.9%)
Total Energy calculation    ....       0.011 sec  (  0.4%)
Population analysis         ....       0.009 sec  (  0.3%)
Orbital Transformation      ....       0.014 sec  (  0.5%)
Orbital Orthonormalization  ....       0.000 sec  (  0.0%)
DIIS solution               ....       0.062 sec  (  2.2%)
SOSCF solution              ....       0.040 sec  (  1.4%)
Finished LeanSCF after   2.9 sec

Maximum memory used throughout the entire LEANSCF-calculation: 9.2 MB

-------------------------   --------------------
FINAL SINGLE POINT ENERGY     -2691.423558963713
-------------------------   --------------------



           ************************************************************
           *        Program running with 8 parallel MPI-processes     *
           *              working on a common directory               *
           ************************************************************

------------------------------------------------------------------------------
                              ORCA PROPERTY CALCULATIONS
------------------------------------------------------------------------------

GBWName                                 ... radical_014.gbw
Number of atoms                         ...     10
Number of basis functions               ...    104
Max core memory                         ...   1200 MB

Electric properties:
Dipole moment                           ... YES
Quadrupole moment                       ...  NO
Static polarizability (Dipole/Dipole)   ...  NO
Static polarizability (Dipole/Quad.)    ...  NO
Static polarizability (Quad./Quad.)     ...  NO
Static polarizability (Velocity)        ...  NO
Static hyperpolarizability              ...  NO

Atomic electric properties:
Dipole moment                           ...  NO
Quadrupole moment                       ...  NO
Static polarizability                   ...  NO

Choice of electric origin               ... Center of mass
Position of electric origin             ...    -1.042082    -2.509203    -2.236859

General magnetic properties:
Magnetizability                         ...  NO

EPR properties:
g-Tensor (aka g-matrix)                 ...  NO
Zero-Field splitting spin-orbit         ...  NO
Zero-field splitting spin-spin          ...  NO
Hyperfine couplings                     ...  NO (   0 nuclei)
Quadrupole couplings                    ...  NO (   0 nuclei)
Contact density                         ...  NO (   0 nuclei)

NMR properties:
Chemical shifts                         ...  NO (   0 nuclei)
Spin-rotation constants                 ...  NO (   0 nuclei)
Spin-spin couplings                     ...  NO (   0 nuclei,    0 pairs)

Choice of magnetic origin               ... GIAO
Position of magnetic origin             ...     0.000000     0.000000     0.000000

Properties with geometric perturbations:
SCF Hessian                             ...  NO
IR spectrum                             ...  NO
VCD spectrum                            ...  NO
X-ray spectroscopy properties:
SCF XES/XAS/RIXS spectra                ...  NO

SCF SOC stabilization energy            ...  NO
Diagonal Born-Oppenheimer correction    ...  NO

-------------
DIPOLE MOMENT
-------------

Method             : SCF
Type of density    : Electron Density
Multiplicity       :   2
Irrep              :   0
Energy             : -2691.4235589637128214 Eh
Basis              : AO
                                X                 Y                 Z
Electronic contribution:     -6.694762660     -15.766971202     -14.192889259
Nuclear contribution   :      7.073001537      16.791638352      14.992004042
                        -----------------------------------------
Total Dipole Moment    :      0.378238877       1.024667150       0.799114784
                        -----------------------------------------
Magnitude (a.u.)       :      1.353363164
Magnitude (Debye)      :      3.439975784



--------------------
Rotational spectrum 
--------------------
 
Rotational constants in cm-1:             0.408381             0.043523             0.041082 
Rotational constants in MHz :         12242.946461          1304.771844          1231.618350 

Dipole components along the rotational axes: 
x,y,z [a.u.] :     1.335389    -0.218440     0.024763 
x,y,z [Debye]:     3.394288    -0.555230     0.062942 

 

Dipole moment calculation done in   0.0 sec 

Maximum memory used throughout the entire PROP-calculation: 5.2 MB

--------------------------------
SUGGESTED CITATIONS FOR THIS RUN
--------------------------------

Below you find a list of papers that are relevant to this ORCA run
We neither can nor want to force you to cite these papers, but we appreciate if you do
You receive ORCA, which is the product of decades of hard work by many enthusiastic individuals, for free
The only thing we kindly ask in return is that you cite our papers,
We deeply appreciate it, if you show your appreciation for ORCA by not just citing the generic ORCA reference.

Please note that relegating all ORCA citations to the supporting information does *not* help us.
SI sections are not indexed - citations you put there will not count into any citation statistics
But we need these citations in order to attract the funding resources that allow us to do what we are doing

Therefore, if you are a happy ORCA user, please consider citing a few of the papers listed below in the main body of your paper

In addition to the list printed below, the program has created the file radical_014.bibtex that contains the list in bibtex format
You can import this file easily into all common literature databanks and citation aid programs


List of essential papers. We consider these as the minimum necessary citations

  1. Neese, F.
     Software update: the ORCA program system, version 6.0
     WIRES Comput. Molec. Sci. 2025 15(1), e70019
     doi.org/10.1002/wcms.7019

List of papers to cite with high priority. The work reported in these papers was absolutely
necessary for this run to complete.
Our perspective: the developers of density functionals and basis sets usually get cited in chemistry papers
Good! But without the algorithms to do something with them, the functionals or basis sets would not do anything.
Hence, in our opinion, the algorithm design and method developments papers are equally worthy of getting cited

  1. Neese, F.
     An improvement of the resolution of the identity approximation for the formation of the Coulomb matrix
     J. Comp. Chem. 2003 24(14), 1740-1747
     doi.org/10.1002/jcc.10318
  2. Neese, F.; Wennmohs, F.; Hansen, A.; Becker, U.
     Efficient, approximate and parallel Hartree-Fock and hybrid DFT calculations. A 'chain-of-spheres' algorithm for the Hartree-Fock exchange
     Chem. Phys. 2009 356(1-3), 98-109
     doi.org/10.1016/j.chemphys.2008.10.036
  3. Helmich-Paris, B.; de Souza, B.; Neese, F.; Izsák, R.
     An improved chain of spheres for exchange algorithm
     J. Chem. Phys. 2021 155(10), 104109
     doi.org/10.1063/5.0058766
  4. Neese, F.
     The SHARK Integral Generation and Digestion System
     J. Comp. Chem. 2022 44(3), 381
     doi.org/10.1002/jcc.26942

List of suggested additional citations. These are papers that are important in the 'surrounding' of 
of this run, or papers that preceded the highly important papers. If you like your results we are grateful for a citation.

  1. Izsak, R.; Neese, F.
     An overlap fitted chain of spheres exchange method
     J. Chem. Phys. 2011 135 , 144105
     doi.org/10.1063/1.3646921
  2. Izsak, R.; Hansen, A.; Neese, F.
     The resolution of identity and chain of spheres approximations for the LPNO-CCSD singles Fock term
     Molec. Phys. 2012 110 , 2413-2417
     doi.org/10.1080/00268976.2012.687466
  3. Neese, F.
     The ORCA program system
     WIRES Comput. Molec. Sci. 2012 2(1), 73-78
     doi.org/10.1002/wcms.81
  4. Izsak, R.; Neese, F.; Klopper, W.
     Robust fitting techniques in the chain of spheres approximation to the Fock exchange: The role of the complementary space
     J. Chem. Phys. 2013 139 , 
     doi.org/10.1063/1.4819264
  5. Neese, F.
     Software update: the ORCA program system, version 4.0
     WIRES Comput. Molec. Sci. 2018 8(1), 1-6
     doi.org/10.1002/wcms.1327
  6. Neese, F.; Wennmohs, F.; Becker, U.; Riplinger, C.
     The ORCA quantum chemistry program package
     J. Chem. Phys. 2020 152(22), 224108
     doi.org/10.1063/5.0004608
  7. Neese, F.
     Software update: The ORCA program system—Version 5.0
     WIRES Comput. Molec. Sci. 2022 12(1), e1606
     doi.org/10.1002/wcms.1606

List of optional additional citations

  1. Neese, F.
     Approximate second-order SCF convergence for spin unrestricted wavefunctions
     Chem. Phys. Lett. 2000 325(1-3), 93-98
     doi.org/10.1016/s0009-2614(00)00662-x

Timings for individual modules:

Sum of individual times          ...        4.734 sec (=   0.079 min)
Startup calculation              ...        0.810 sec (=   0.014 min)  17.1 %
SCF iterations                   ...        3.475 sec (=   0.058 min)  73.4 %
Property calculations            ...        0.449 sec (=   0.007 min)   9.5 %
                             ****ORCA TERMINATED NORMALLY****
TOTAL RUN TIME: 0 days 0 hours 0 minutes 5 seconds 212 msec
