[Molden Format]
[Title]
 Molden file created by orca_2mkl for BaseName=radical_000

[Atoms] AU
C    1   6          1.2173370090         0.8069206181         0.3621735725 
C    2   6          1.3221733458         0.1254041160         2.8089947501 
H    3   1          2.9790190796         1.2822717784        -0.6213891960 
H    4   1          3.1135373447         0.0653523989         3.8370341129 
H    5   1         -0.3821574263        -0.4180471051         3.8499749574 
C    6   6         -1.1171172732         0.8257970924        -1.1695401659 
H    7   1         -2.8704524235         0.9340028109        -0.0591748842 
H    8   1         -1.1242358716         2.2139747926        -2.7170255586 
H    9   1         -1.2403595425        -1.0912242458        -2.2117184596 
Br  10  35         -1.8804967115        -4.4088992561        -3.9173247968 
[GTO]
  1 0
s   5 1.0 
     1238.4016938000         0.8208956682
      186.2900499200         1.4766449896
       42.2511763460         2.1526124058
       11.6765579320         2.1081722461
        3.5930506482         0.8290999933
s   1 1.0 
        0.4024514736         0.3601183351
s   1 1.0 
        0.1309018267         0.1551027052
p   3 1.0 
        9.4680970621         1.3467645142
        2.0103545142         1.0678070931
        0.5477100471         0.5108735714
p   1 1.0 
        0.1526861379         0.1360471976
d   1 1.0 
        0.8000000000         1.9292013661

  2 0
s   5 1.0 
     1238.4016938000         0.8208956682
      186.2900499200         1.4766449896
       42.2511763460         2.1526124058
       11.6765579320         2.1081722461
        3.5930506482         0.8290999933
s   1 1.0 
        0.4024514736         0.3601183351
s   1 1.0 
        0.1309018267         0.1551027052
p   3 1.0 
        9.4680970621         1.3467645142
        2.0103545142         1.0678070931
        0.5477100471         0.5108735714
p   1 1.0 
        0.1526861379         0.1360471976
d   1 1.0 
        0.8000000000         1.9292013661

  3 0
s   3 1.0 
       13.0107010000         0.1634903809
        1.9622572000         0.2773515510
        0.4445379600         0.3157501452
s   1 1.0 
        0.1219496200         0.1470772262
p   1 1.0 
        0.8000000000         1.0784563492

  4 0
s   3 1.0 
       13.0107010000         0.1634903809
        1.9622572000         0.2773515510
        0.4445379600         0.3157501452
s   1 1.0 
        0.1219496200         0.1470772262
p   1 1.0 
        0.8000000000         1.0784563492

  5 0
s   3 1.0 
       13.0107010000         0.1634903809
        1.9622572000         0.2773515510
        0.4445379600         0.3157501452
s   1 1.0 
        0.1219496200         0.1470772262
p   1 1.0 
        0.8000000000         1.0784563492

  6 0
s   5 1.0 
     1238.4016938000         0.8208956682
      186.2900499200         1.4766449896
       42.2511763460         2.1526124058
       11.6765579320         2.1081722461
        3.5930506482         0.8290999933
s   1 1.0 
        0.4024514736         0.3601183351
s   1 1.0 
        0.1309018267         0.1551027052
p   3 1.0 
        9.4680970621         1.3467645142
        2.0103545142         1.0678070931
        0.5477100471         0.5108735714
p   1 1.0 
        0.1526861379         0.1360471976
d   1 1.0 
        0.8000000000         1.9292013661

  7 0
s   3 1.0 
       13.0107010000         0.1634903809
        1.9622572000         0.2773515510
        0.4445379600         0.3157501452
s   1 1.0 
        0.1219496200         0.1470772262
p   1 1.0 
        0.8000000000         1.0784563492

  8 0
s   3 1.0 
       13.0107010000         0.1634903809
        1.9622572000         0.2773515510
        0.4445379600         0.3157501452
s   1 1.0 
        0.1219496200         0.1470772262
p   1 1.0 
        0.8000000000         1.0784563492

  9 0
s   3 1.0 
       13.0107010000         0.1634903809
        1.9622572000         0.2773515510
        0.4445379600         0.3157501452
s   1 1.0 
        0.1219496200         0.1470772262
p   1 1.0 
        0.8000000000         1.0784563492

 10 0
s   6 1.0 
   113286.3877600000         7.5076141183
    17009.6263030000        13.8835270484
     3870.1842567000        22.7307285566
     1093.0357227000        30.8227297499
      356.3972179700        27.2481937511
      123.1253964300         9.6953381145
s   3 1.0 
      236.7408400700        -4.7631125758
       28.4686610700         5.6113863182
       11.8834437220         1.9900291396
s   3 1.0 
       21.2696333120        -1.5429794477
        3.6129226841         1.3310800628
        1.6626648969         0.4300130345
s   1 1.0 
        0.3482379323         0.3230852630
s   1 1.0 
        0.1301903139         0.1544699827
p   5 1.0 
     1560.2801881000       115.0180051576
      368.4785920500       143.9035925417
      117.2297884900       137.5255986684
       42.6489092480        78.9578527439
       16.0872250960        15.8580577654
p   3 1.0 
        8.6352810058         6.8437546680
        3.5613665502         3.7974971038
        1.5292626609         0.5585414278
p   1 1.0 
        0.5306429485         0.6455696201
p   1 1.0 
        0.1570275896         0.1408996918
d   4 1.0 
      104.8551864200       261.4493931636
       30.2811436880       176.6993802449
       10.6513942670        76.9545600188
        3.8699456233        17.5937671387
d   1 1.0 
        1.3240876762         4.6593398042
d   1 1.0 
        0.3890000000         0.5462379705

[5D]
[7F]
[9G]
[MO]
 Sym=     1a
 Ene= -4.82768288344244E+02
 Spin= Alpha
 Occup= 1.000000
  1       0.000005601673
  2      -0.000076315925
  3       0.000223768990
  4       0.000008678723
  5       0.000015061749
  6       0.000005348358
  7      -0.000017023427
  8      -0.000062984815
  9       0.000141659722
 10      -0.000001591124
 11       0.000001872354
 12       0.000000708264
 13      -0.000000699985
 14      -0.000005913182
 15       0.000001345650
 16      -0.000007945140
 17      -0.000217199521
 18       0.000000145688
 19       0.000002727341
 20       0.000002687462
 21       0.000021184404
 22      -0.000026722301
 23       0.000103271789
 24      -0.000000137650
 25      -0.000002065718
 26      -0.000001342824
 27      -0.000004222241
 28      -0.000001009963
 29      -0.000002347140
 30       0.000006967240
 31      -0.000001914550
 32       0.000002067978
 33       0.000000734289
 34       0.000001206627
 35      -0.000007714547
 36       0.000001001487
 37       0.000001952832
 38      -0.000003446162
 39       0.000000507654
 40       0.000009685051
 41      -0.000000756502
 42       0.000000369996
 43      -0.000001886418
 44       0.000008411752
 45      -0.000156314415
 46       0.001044374783
 47      -0.000008567774
 48       0.000015479737
 49       0.000008643970
 50       0.000036198561
 51      -0.000375054045
 52      -0.000268089514
 53      -0.000003584192
 54       0.000005176101
 55       0.000011174243
 56      -0.000012373092
 57       0.000005430803
 58      -0.000010175163
 59       0.000008090125
 60       0.000006456237
 61       0.000003924547
 62      -0.000002593851
 63      -0.000045273492
 64      -0.000034001072
 65      -0.000005551543
 66       0.000002215128
 67       0.000007993479
 68       0.000009184905
 69      -0.001431045827
 70       0.000007805655
 71       0.000006404303
 72       0.000003062642
 73      -0.994982793798
 74      -0.015687056244
 75       0.003906762083
 76      -0.002327564860
 77       0.001655686281
 78      -0.000001657529
 79      -0.000007382883
 80      -0.000003692105
 81       0.000005663064
 82       0.000024871898
 83       0.000012474061
 84      -0.000027377942
 85      -0.000122182960
 86      -0.000061553177
 87       0.000089232766
 88       0.000422639867
 89       0.000215073618
 90      -0.000003263841
 91       0.000002350434
 92       0.000010958462
 93      -0.000010262159
 94       0.000004708482
 95       0.000012604771
 96      -0.000009031790
 97      -0.000042350557
 98       0.000039679650
 99      -0.000018065202
100      -0.000030023201
101       0.000021409375
102       0.000101491222
103      -0.000095056323
104       0.000042558000
 Sym=     1a
 Ene= -6.24511821230051E+01
 Spin= Alpha
 Occup= 1.000000
  1       0.000013377665
  2      -0.000184335777
  3       0.000531141092
  4       0.000020876473
  5       0.000036148144
  6       0.000012951506
  7      -0.000035553452
  8      -0.000151861106
  9       0.000344391171
 10      -0.000004014239
 11       0.000004322560
 12       0.000001879083
 13      -0.000001926144
 14      -0.000014170148
 15       0.000003242244
 16      -0.000019671411
 17      -0.000522418971
 18       0.000000538920
 19       0.000006588844
 20       0.000006545410
 21       0.000048249491
 22      -0.000064986697
 23       0.000248756287
 24      -0.000000325501
 25      -0.000004937718
 26      -0.000003179495
 27      -0.000010001811
 28      -0.000002375433
 29      -0.000006299345
 30       0.000017079614
 31      -0.000004675502
 32       0.000004789367
 33       0.000001553945
 34       0.000003220687
 35      -0.000018002392
 36       0.000002393515
 37       0.000004650085
 38      -0.000008132457
 39       0.000000544257
 40       0.000022245040
 41      -0.000001782863
 42       0.000000838394
 43      -0.000004378460
 44       0.000019441164
 45      -0.000374859133
 46       0.002570865599
 47      -0.000021174296
 48       0.000032300294
 49       0.000018399556
 50       0.000092396262
 51      -0.000920016633
 52      -0.000653709881
 53      -0.000009200893
 54       0.000012656096
 55       0.000030058400
 56      -0.000032439428
 57       0.000012915037
 58      -0.000023850295
 59       0.000018366598
 60       0.000015317301
 61       0.000009282701
 62      -0.000006574520
 63      -0.000109455402
 64      -0.000083645757
 65      -0.000013832148
 66       0.000004996950
 67       0.000019113629
 68       0.000021072490
 69      -0.003526460889
 70       0.000017101708
 71       0.000004288075
 72       0.000001530407
 73      -0.347189746087
 74       1.046964036661
 75       0.018549734759
 76      -0.006299524768
 77       0.004221442313
 78       0.000009472573
 79       0.000076502212
 80       0.000035299602
 81       0.000015084118
 82       0.000068657293
 83       0.000034167563
 84      -0.000067719560
 85      -0.000303099454
 86      -0.000152540589
 87       0.000219849826
 88       0.001042019901
 89       0.000530135549
 90      -0.000022345305
 91       0.000011401225
 92       0.000070543240
 93      -0.000069301682
 94       0.000023288270
 95       0.000035135603
 96      -0.000023429968
 97      -0.000116349190
 98       0.000110227816
 99      -0.000047227324
100      -0.000074461266
101       0.000052459298
102       0.000251000952
103      -0.000235542162
104       0.000104642451
 Sym=     1a
 Ene= -5.62847107724668E+01
 Spin= Alpha
 Occup= 1.000000
  1      -0.000015854311
  2       0.000229601809
  3      -0.000680624848
  4      -0.000025244192
  5      -0.000043616980
  6      -0.000015479306
  7       0.000097217376
  8       0.000209813544
  9      -0.000335317133
 10       0.000003657899
 11      -0.000006483700
 12      -0.000006974743
 13       0.000002994091
 14       0.000010655118
 15      -0.000004522380
 16       0.000032246340
 17       0.000563285275
 18      -0.000002405736
 19      -0.000009967815
 20      -0.000010351317
 21      -0.000055474436
 22       0.000062564684
 23      -0.000258309828
 24      -0.000000941669
 25       0.000007802420
 26       0.000006086383
 27       0.000011294203
 28       0.000000650510
 29       0.000011214372
 30      -0.000029756947
 31       0.000004508890
 32      -0.000007531150
 33      -0.000007137940
 34      -0.000006124455
 35       0.000017465753
 36      -0.000000641081
 37      -0.000005351313
 38       0.000009184226
 39       0.000003901503
 40      -0.000032639205
 41       0.000000229521
 42       0.000000277279
 43       0.000002813331
 44      -0.000016109188
 45       0.000361756972
 46      -0.002865087266
 47       0.000028071655
 48      -0.000012407766
 49      -0.000009891632
 50      -0.000099814030
 51       0.001052161606
 52       0.000786291281
 53       0.000011429559
 54      -0.000017030196
 55      -0.000039182230
 56       0.000043458292
 57      -0.000014621281
 58       0.000005186640
 59      -0.000070787956
 60      -0.000018512146
 61       0.000004275650
 62       0.000015645172
 63       0.000116346991
 64       0.000060834342
 65       0.000018901888
 66       0.000008687009
 67      -0.000014342142
 68       0.000067281677
 69       0.004398070083
 70      -0.000029566380
 71      -0.000034974396
 72      -0.000019184548
 73      -0.000047426593
 74       0.000135701865
 75      -0.000158395138
 76       0.001018061308
 77      -0.002098177635
 78      -0.118546383200
 79      -0.884136303061
 80      -0.431030724599
 81      -0.002855814758
 82      -0.021244035534
 83      -0.010357991842
 84       0.000778098461
 85       0.005543467574
 86       0.002709949646
 87      -0.000542141674
 88      -0.003278148404
 89      -0.001628949647
 90       0.000012975885
 91      -0.000008486014
 92      -0.000043039163
 93       0.000040916041
 94      -0.000017161492
 95      -0.000043473871
 96       0.000030149667
 97       0.000147319241
 98      -0.000138443109
 99       0.000060620392
100       0.000101947181
101      -0.000071307605
102      -0.000347831544
103       0.000326100375
104      -0.000142153151
 Sym=     1a
 Ene= -5.62804859951439E+01
 Spin= Alpha
 Occup= 1.000000
  1       0.000006153819
  2      -0.000055384437
  3       0.000168312400
  4       0.000013085315
  5       0.000023086684
  6       0.000004140957
  7       0.000009019477
  8      -0.000190109099
  9       0.000275980860
 10       0.000006741672
 11      -0.000002362498
 12      -0.000002677212
 13       0.000001827517
 14       0.000010247277
 15       0.000001168596
 16      -0.000006676448
 17      -0.000366795402
 18       0.000004310158
 19      -0.000002325557
 20       0.000004896850
 21      -0.000012990744
 22      -0.000001819101
 23       0.000160907115
 24      -0.000003927142
 25      -0.000002595502
 26      -0.000003827462
 27      -0.000004915994
 28       0.000000915025
 29       0.000014927153
 30       0.000053156723
 31      -0.000008190591
 32       0.000017043980
 33      -0.000001687459
 34       0.000009998141
 35       0.000017448685
 36       0.000001466081
 37      -0.000002320100
 38      -0.000007611069
 39      -0.000000961186
 40       0.000016975590
 41      -0.000002557774
 42      -0.000003218495
 43      -0.000007864490
 44      -0.000003249980
 45       0.000068377181
 46      -0.000377028687
 47      -0.000041058022
 48      -0.000022895118
 49      -0.000010563324
 50       0.000298133848
 51       0.000316564424
 52       0.000074119676
 53       0.000001114814
 54       0.000025485206
 55      -0.000014650603
 56       0.000005796490
 57       0.000018526683
 58       0.000115202267
 59       0.000026304230
 60      -0.000011580153
 61      -0.000015953125
 62      -0.000018534546
 63      -0.000010851847
 64      -0.000036269598
 65      -0.000030909457
 66      -0.000006250337
 67      -0.000010296536
 68       0.000023370917
 69       0.000603249958
 70       0.000052821218
 71      -0.000004010860
 72      -0.000000884835
 73      -0.000001200270
 74       0.000002910081
 75      -0.000012994145
 76       0.000093915853
 77      -0.000226386235
 78      -0.981435114826
 79       0.077178202400
 80       0.111624634756
 81      -0.023438655814
 82       0.001836650740
 83       0.002662363353
 84       0.005680551500
 85      -0.000412687610
 86      -0.000628324904
 87      -0.002125833190
 88       0.000022926163
 89       0.000166678148
 90       0.000001967014
 91      -0.000004979836
 92      -0.000001559338
 93       0.000000804348
 94      -0.000010504161
 95      -0.000005253401
 96       0.000008279647
 97       0.000010006576
 98      -0.000008824321
 99       0.000016449715
100       0.000012169122
101      -0.000015708219
102      -0.000028194257
103       0.000025723641
104      -0.000030613274
 Sym=     1a
 Ene= -5.62804740569235E+01
 Spin= Alpha
 Occup= 1.000000
  1      -0.000005847904
  2       0.000048245415
  3       0.000076288297
  4      -0.000008397164
  5      -0.000015351720
  6      -0.000024144061
  7      -0.000105859128
  8      -0.000023096329
  9       0.000199922219
 10      -0.000004947588
 11       0.000001816781
 12       0.000002809608
 13       0.000001749637
 14       0.000000505153
 15       0.000001496665
 16      -0.000028774050
 17      -0.000145501543
 18       0.000009069356
 19      -0.000006991430
 20       0.000007599155
 21      -0.000064986761
 22      -0.000020467496
 23       0.000011588596
 24       0.000004167196
 25      -0.000003828826
 26       0.000001371771
 27       0.000002670357
 28       0.000002747561
 29       0.000034597141
 30       0.000083393414
 31      -0.000005379914
 32      -0.000006593474
 33      -0.000006528078
 34       0.000017983501
 35       0.000053940991
 36      -0.000004088587
 37       0.000000239127
 38      -0.000003617085
 39      -0.000009989025
 40      -0.000006942223
 41      -0.000000610963
 42      -0.000001468487
 43       0.000001644610
 44      -0.000003571654
 45       0.000037057101
 46      -0.000030650058
 47       0.000007130719
 48      -0.000018256467
 49       0.000041938878
 50       0.000039451029
 51       0.000118729428
 52      -0.000335541005
 53      -0.000007389419
 54       0.000002417897
 55      -0.000029609366
 56      -0.000028362806
 57      -0.000001027244
 58       0.000077120389
 59       0.000051625238
 60       0.000018684385
 61      -0.000016258417
 62       0.000022837675
 63      -0.000118769393
 64      -0.000075016769
 65       0.000001943781
 66       0.000016700336
 67      -0.000001858335
 68      -0.000010642894
 69      -0.000037332203
 70      -0.000005329402
 71       0.000025844514
 72      -0.000046401109
 73      -0.000000387999
 74       0.000001314446
 75       0.000002430147
 76      -0.000013598552
 77       0.000023188028
 78       0.066037477326
 79      -0.440346143958
 80       0.885080030345
 81       0.001577304581
 82      -0.010513978140
 83       0.021135947675
 84      -0.000382944095
 85       0.002537572384
 86      -0.005116452305
 87       0.000143665164
 88      -0.000922176453
 89       0.001893988218
 90       0.000006673493
 91       0.000001585715
 92       0.000006708132
 93       0.000003733482
 94       0.000000069478
 95      -0.000007733485
 96      -0.000002179905
 97      -0.000008936328
 98      -0.000003220994
 99      -0.000000205524
100       0.000011545256
101       0.000003508652
102       0.000014566589
103       0.000003717817
104       0.000000591919
 Sym=     1a
 Ene= -1.02167747169548E+01
 Spin= Alpha
 Occup= 1.000000
  1      -0.149292189404
  2      -0.006027035295
  3       0.000527673356
  4      -0.001342172298
  5       0.000353121059
  6      -0.000916954103
  7      -0.000885472003
  8      -0.001693565598
  9       0.005548429947
 10      -0.000135552512
 11       0.001335148651
 12      -0.000003879146
 13       0.000841990571
 14      -0.000194604261
 15      -0.009877735266
 16       0.000500594922
 17      -0.007399514266
 18      -0.000277922992
 19       0.000086720557
 20      -0.000320948694
 21       0.004773422055
 22      -0.000288405691
 23       0.003561901024
 24      -0.000013910346
 25       0.000055656189
 26       0.000027423928
 27      -0.000191542124
 28      -0.000119610264
 29       0.001151707425
 30       0.000440205786
 31      -0.000078449908
 32      -0.000014756878
 33       0.000320732536
 34      -0.000767356407
 35      -0.001817497455
 36       0.000075397932
 37      -0.000009993081
 38       0.000057026795
 39       0.000918151802
 40       0.001887926949
 41      -0.000003194451
 42       0.000055103877
 43      -0.000098371478
 44      -0.976415128972
 45      -0.052895755197
 46       0.054176211218
 47       0.000899171796
 48       0.000721695572
 49       0.000978295807
 50       0.001789048550
 51      -0.006492677597
 52      -0.003561952514
 53      -0.000236423307
 54       0.000629774045
 55       0.000456888047
 56       0.000088073805
 57       0.000124738678
 58       0.002781240387
 59      -0.007266677185
 60       0.002167813154
 61       0.000073931919
 62      -0.001616615940
 63       0.002586395984
 64      -0.008028715210
 65      -0.000272106054
 66      -0.001703121319
 67       0.002142329064
 68       0.002405584434
 69      -0.024151625557
 70      -0.000083897791
 71       0.002211162736
 72       0.000961875031
 73       0.000012059199
 74      -0.000021858371
 75       0.000208815762
 76      -0.002175773697
 77       0.006895879833
 78      -0.000004562511
 79      -0.000020272209
 80      -0.000003212365
 81       0.000016555566
 82       0.000073113770
 83       0.000012959671
 84      -0.000127348502
 85      -0.000553227376
 86      -0.000176058009
 87       0.000855581479
 88       0.004052246965
 89       0.001880852262
 90      -0.000022653473
 91       0.000012934013
 92       0.000051356427
 93      -0.000053854044
 94       0.000030169758
 95       0.000105168750
 96      -0.000060508452
 97      -0.000242930970
 98       0.000253365525
 99      -0.000140089654
100      -0.000303797007
101       0.000181919511
102       0.000775274609
103      -0.000785867244
104       0.000404764774
 Sym=     1a
 Ene= -1.02161728754456E+01
 Spin= Alpha
 Occup= 1.000000
  1      -0.975529581219
  2      -0.047186743011
  3       0.042034517738
  4      -0.000405668837
  5       0.000201753892
  6       0.000386451140
  7      -0.004366628633
  8      -0.001819539743
  9       0.003897466369
 10      -0.001021682295
 11       0.000179710468
 12       0.000949334785
 13      -0.001695049784
 14      -0.000696919715
 15      -0.051853416660
 16       0.002193958789
 17      -0.015957655435
 18      -0.000123854009
 19       0.000763797245
 20      -0.002609494175
 21       0.002151960846
 22      -0.001041685814
 23       0.004594280673
 24       0.001065877881
 25       0.000041236204
 26      -0.000699184796
 27       0.000300914168
 28       0.000093259078
 29       0.004622786406
 30      -0.006298505878
 31      -0.002551922578
 32      -0.000611036487
 33       0.001305870949
 34      -0.000261514321
 35       0.000130173614
 36       0.000174907338
 37      -0.000080328616
 38       0.000385683412
 39       0.000237031991
 40       0.001285634806
 41      -0.000138175721
 42      -0.000142998110
 43       0.000438178223
 44       0.148889078472
 45       0.008582061343
 46      -0.008207904068
 47       0.001547079979
 48       0.000278943307
 49       0.001179302405
 50      -0.001468719719
 51      -0.003552269203
 52      -0.005524266458
 53      -0.000159530989
 54       0.001162150965
 55       0.000038924408
 56       0.001016612936
 57       0.000096086054
 58      -0.000434066090
 59       0.002155232949
 60      -0.000627169719
 61       0.000183966290
 62       0.000118439900
 63      -0.000970190033
 64       0.000828768269
 65      -0.000285262895
 66       0.000532565815
 67      -0.000279426463
 68      -0.000488514524
 69      -0.009266635488
 70      -0.000524765947
 71      -0.000589150675
 72      -0.000540620219
 73       0.000007367097
 74      -0.000013643576
 75       0.000126523186
 76      -0.001233359446
 77       0.003401397974
 78       0.000007635249
 79      -0.000021895593
 80      -0.000001889148
 81      -0.000025550702
 82       0.000076203826
 83       0.000007402510
 84       0.000077517472
 85      -0.000449471588
 86      -0.000102360999
 87       0.000178068567
 88       0.002242421795
 89       0.000955792695
 90      -0.000010762645
 91      -0.000001037205
 92       0.000031389800
 93      -0.000034900490
 94       0.000009228999
 95       0.000050687247
 96       0.000002129677
 97      -0.000150330273
 98       0.000164828558
 99      -0.000045217980
100      -0.000151372827
101       0.000027147534
102       0.000478606762
103      -0.000497291729
104       0.000156795691
 Sym=     1a
 Ene= -1.02101480766637E+01
 Spin= Alpha
 Occup= 1.000000
  1       0.051828351728
  2       0.006819264414
  3      -0.011827301086
  4       0.000393030066
  5      -0.000702906523
  6       0.002673927750
  7       0.000693373686
  8      -0.000345537945
  9       0.001998891070
 10       0.001338419311
 11      -0.000002606901
 12      -0.000852569914
 13       0.000405321811
 14       0.000137610495
 15      -0.986735551737
 16      -0.048461500087
 17       0.030502915696
 18       0.000039429929
 19       0.000135291319
 20      -0.000315502380
 21      -0.000935057957
 22      -0.000224701378
 23      -0.000137555412
 24      -0.001119494996
 25      -0.000211637335
 26       0.001282637121
 27      -0.002118041216
 28      -0.000574936921
 29      -0.000270100863
 30       0.001555299777
 31       0.000270677091
 32       0.000262407829
 33      -0.000830781671
 34       0.004641968277
 35      -0.006855132449
 36      -0.002696853063
 37       0.000070861647
 38      -0.001410012566
 39       0.004204055947
 40      -0.007432510647
 41       0.002560966915
 42       0.000779284548
 43      -0.001391050638
 44       0.002040099311
 45      -0.000240136861
 46       0.004693622038
 47      -0.000271548752
 48       0.000002481204
 49      -0.000003812606
 50       0.002641766907
 51       0.000185345721
 52      -0.002082523301
 53      -0.000196978106
 54      -0.000196879695
 55       0.000076685938
 56      -0.000171727577
 57       0.000067466326
 58       0.000427229427
 59       0.001098363508
 60      -0.000009458401
 61      -0.000096892417
 62      -0.000052255997
 63      -0.000609075906
 64      -0.000901959154
 65      -0.000059785555
 66       0.000108500525
 67       0.000155558390
 68       0.000042304121
 69      -0.002260412134
 70      -0.000061485854
 71      -0.000181982862
 72       0.000207554959
 73       0.000002430343
 74      -0.000004692762
 75       0.000041062014
 76      -0.000328923146
 77       0.000818472889
 78      -0.000000320615
 79      -0.000005722484
 80      -0.000004610387
 81       0.000001187621
 82       0.000019813624
 83       0.000015964223
 84      -0.000010728252
 85      -0.000107600666
 86      -0.000084529978
 87       0.000080487542
 88       0.000490338433
 89       0.000318202898
 90       0.000000178219
 91       0.000001969003
 92       0.000010387092
 93      -0.000004961169
 94       0.000001862049
 95      -0.000000484828
 96      -0.000009167952
 97      -0.000048223390
 98       0.000023835642
 99      -0.000008890053
100      -0.000004367092
101       0.000026044627
102       0.000135157788
103      -0.000077773672
104       0.000028917925
 Sym=     1a
 Ene= -8.66932657541192E+00
 Spin= Alpha
 Occup= 1.000000
  1       0.000033754061
  2      -0.000404313823
  3       0.001033399406
  4       0.000043951554
  5       0.000074157863
  6       0.000027616039
  7       0.000016055016
  8      -0.000330948318
  9       0.000810924534
 10      -0.000011138059
 11       0.000007088339
 12       0.000006516652
 13      -0.000007494381
 14      -0.000029863849
 15       0.000009528406
 16      -0.000050502653
 17      -0.001135856412
 18       0.000003801703
 19       0.000013994816
 20       0.000015061148
 21       0.000058337172
 22      -0.000152951910
 23       0.000546856963
 24      -0.000000559050
 25      -0.000009621913
 26      -0.000005714161
 27      -0.000019751397
 28      -0.000004596727
 29      -0.000020754175
 30       0.000036369897
 31      -0.000011381746
 32       0.000007492166
 33      -0.000001356346
 34       0.000012061214
 35      -0.000027464325
 36       0.000005102522
 37       0.000009461000
 38      -0.000015867897
 39      -0.000007739668
 40       0.000028042209
 41      -0.000003805230
 42       0.000001097045
 43      -0.000007795276
 44       0.000035907271
 45      -0.000782140815
 46       0.006493248305
 47      -0.000053083288
 48      -0.000014196169
 49      -0.000000775739
 50       0.000284104322
 51      -0.002260210128
 52      -0.001549624875
 53      -0.000029633966
 54       0.000030540382
 55       0.000116731199
 56      -0.000114444535
 57       0.000025433606
 58      -0.000038816049
 59       0.000013943809
 60       0.000030387933
 61       0.000017130525
 62      -0.000018630076
 63      -0.000243462281
 64      -0.000218865636
 65      -0.000036275664
 66       0.000006219435
 67       0.000039480684
 68       0.000052407513
 69      -0.008969826053
 70       0.000006093962
 71      -0.000191803170
 72      -0.000101388972
 73      -0.136666937895
 74       0.516895109160
 75      -1.093503020248
 76      -0.032255887704
 77       0.013614659176
 78       0.000038747912
 79       0.000279540976
 80       0.000129219415
 81      -0.000082771488
 82      -0.000627866994
 83      -0.000288317764
 84      -0.000179285632
 85      -0.000819745684
 86      -0.000411315097
 87       0.000555755211
 88       0.002647700984
 89       0.001346372978
 90       0.000334919658
 91      -0.000127690015
 92      -0.001000834114
 93       0.001020516139
 94      -0.000266096064
 95       0.000290508634
 96      -0.000130767732
 97      -0.000884332235
 98       0.000887397991
 99      -0.000270691074
100      -0.000184516171
101       0.000123496046
102       0.000611723105
103      -0.000579384215
104       0.000248575174
 Sym=     1a
 Ene= -6.50657174785753E+00
 Spin= Alpha
 Occup= 1.000000
  1       0.000018382434
  2      -0.000253059362
  3       0.000708476294
  4       0.000027988468
  5       0.000047131726
  6       0.000018341248
  7      -0.000086862892
  8      -0.000233586386
  9       0.000371921793
 10      -0.000004569093
 11       0.000005658746
 12       0.000006928831
 13      -0.000003701166
 14      -0.000011185245
 15       0.000005608727