[Molden Format]
[Title]
 Molden file created by orca_2mkl for BaseName=radical_033

[Atoms] AU
C    1   6          1.1722934969         0.9367107884         0.3615688601 
C    2   6          1.3253027322         0.0918690360         2.8342547194 
H    3   1          2.9433297118         1.3660471174        -0.6269053066 
H    4   1          3.1401050044        -0.0887056345         3.8004225588 
H    5   1         -0.3799464468        -0.4041500591         3.8942814764 
C    6   6         -1.0760327374         1.2541772200        -0.9757903249 
H    7   1         -2.9039591575         0.8886493837        -0.0792551141 
H    8   1         -1.0929514554         2.0471535490        -2.8817038529 
H    9   1         -1.2845432293        -2.0361666812        -2.5885411891 
Br  10  35         -1.8608473391        -4.3911396099        -3.9003380486 
[GTO]
  1 0
s   5 1.0 
     1238.4016938000         0.8208956682
      186.2900499200         1.4766449896
       42.2511763460         2.1526124058
       11.6765579320         2.1081722461
        3.5930506482         0.8290999933
s   1 1.0 
        0.4024514736         0.3601183351
s   1 1.0 
        0.1309018267         0.1551027052
p   3 1.0 
        9.4680970621         1.3467645142
        2.0103545142         1.0678070931
        0.5477100471         0.5108735714
p   1 1.0 
        0.1526861379         0.1360471976
d   1 1.0 
        0.8000000000         1.9292013661

  2 0
s   5 1.0 
     1238.4016938000         0.8208956682
      186.2900499200         1.4766449896
       42.2511763460         2.1526124058
       11.6765579320         2.1081722461
        3.5930506482         0.8290999933
s   1 1.0 
        0.4024514736         0.3601183351
s   1 1.0 
        0.1309018267         0.1551027052
p   3 1.0 
        9.4680970621         1.3467645142
        2.0103545142         1.0678070931
        0.5477100471         0.5108735714
p   1 1.0 
        0.1526861379         0.1360471976
d   1 1.0 
        0.8000000000         1.9292013661

  3 0
s   3 1.0 
       13.0107010000         0.1634903809
        1.9622572000         0.2773515510
        0.4445379600         0.3157501452
s   1 1.0 
        0.1219496200         0.1470772262
p   1 1.0 
        0.8000000000         1.0784563492

  4 0
s   3 1.0 
       13.0107010000         0.1634903809
        1.9622572000         0.2773515510
        0.4445379600         0.3157501452
s   1 1.0 
        0.1219496200         0.1470772262
p   1 1.0 
        0.8000000000         1.0784563492

  5 0
s   3 1.0 
       13.0107010000         0.1634903809
        1.9622572000         0.2773515510
        0.4445379600         0.3157501452
s   1 1.0 
        0.1219496200         0.1470772262
p   1 1.0 
        0.8000000000         1.0784563492

  6 0
s   5 1.0 
     1238.4016938000         0.8208956682
      186.2900499200         1.4766449896
       42.2511763460         2.1526124058
       11.6765579320         2.1081722461
        3.5930506482         0.8290999933
s   1 1.0 
        0.4024514736         0.3601183351
s   1 1.0 
        0.1309018267         0.1551027052
p   3 1.0 
        9.4680970621         1.3467645142
        2.0103545142         1.0678070931
        0.5477100471         0.5108735714
p   1 1.0 
        0.1526861379         0.1360471976
d   1 1.0 
        0.8000000000         1.9292013661

  7 0
s   3 1.0 
       13.0107010000         0.1634903809
        1.9622572000         0.2773515510
        0.4445379600         0.3157501452
s   1 1.0 
        0.1219496200         0.1470772262
p   1 1.0 
        0.8000000000         1.0784563492

  8 0
s   3 1.0 
       13.0107010000         0.1634903809
        1.9622572000         0.2773515510
        0.4445379600         0.3157501452
s   1 1.0 
        0.1219496200         0.1470772262
p   1 1.0 
        0.8000000000         1.0784563492

  9 0
s   3 1.0 
       13.0107010000         0.1634903809
        1.9622572000         0.2773515510
        0.4445379600         0.3157501452
s   1 1.0 
        0.1219496200         0.1470772262
p   1 1.0 
        0.8000000000         1.0784563492

 10 0
s   6 1.0 
   113286.3877600000         7.5076141183
    17009.6263030000        13.8835270484
     3870.1842567000        22.7307285566
     1093.0357227000        30.8227297499
      356.3972179700        27.2481937511
      123.1253964300         9.6953381145
s   3 1.0 
      236.7408400700        -4.7631125758
       28.4686610700         5.6113863182
       11.8834437220         1.9900291396
s   3 1.0 
       21.2696333120        -1.5429794477
        3.6129226841         1.3310800628
        1.6626648969         0.4300130345
s   1 1.0 
        0.3482379323         0.3230852630
s   1 1.0 
        0.1301903139         0.1544699827
p   5 1.0 
     1560.2801881000       115.0180051576
      368.4785920500       143.9035925417
      117.2297884900       137.5255986684
       42.6489092480        78.9578527439
       16.0872250960        15.8580577654
p   3 1.0 
        8.6352810058         6.8437546680
        3.5613665502         3.7974971038
        1.5292626609         0.5585414278
p   1 1.0 
        0.5306429485         0.6455696201
p   1 1.0 
        0.1570275896         0.1408996918
d   4 1.0 
      104.8551864200       261.4493931636
       30.2811436880       176.6993802449
       10.6513942670        76.9545600188
        3.8699456233        17.5937671387
d   1 1.0 
        1.3240876762         4.6593398042
d   1 1.0 
        0.3890000000         0.5462379705

[5D]
[7F]
[9G]
[MO]
 Sym=     1a
 Ene= -4.82767407728550E+02
 Spin= Alpha
 Occup= 1.000000
  1       0.000005658266
  2      -0.000068727206
  3       0.000077184752
  4       0.000007604742
  5       0.000016622483
  6       0.000006903937
  7       0.000054328629
  8      -0.000065457428
  9       0.000144520887
 10      -0.000001784066
 11       0.000001603264
 12      -0.000001687495
 13      -0.000000565981
 14      -0.000007285208
 15       0.000001114789
 16      -0.000004067254
 17      -0.000176565633
 18      -0.000000962061
 19       0.000002765032
 20       0.000001822631
 21       0.000016925747
 22      -0.000030390873
 23       0.000095575436
 24      -0.000001697026
 25       0.000000053436
 26      -0.000000348268
 27      -0.000005085606
 28      -0.000001508542
 29      -0.000005174029
 30      -0.000003318022
 31      -0.000002382057
 32       0.000004826734
 33      -0.000001156615
 34      -0.000000236395
 35      -0.000012456172
 36       0.000002096071
 37       0.000001660848
 38      -0.000002483707
 39       0.000001348274
 40       0.000005713464
 41      -0.000000948900
 42       0.000001408790
 43      -0.000003076243
 44       0.000008089808
 45      -0.000148110913
 46       0.000619291424
 47      -0.000008280918
 48       0.000022625067
 49       0.000005758479
 50       0.000072934751
 51      -0.000209570359
 52      -0.000101920284
 53      -0.000001761073
 54       0.000002362274
 55       0.000009792037
 56      -0.000007083617
 57       0.000003151865
 58      -0.000025829400
 59      -0.000039834077
 60      -0.000004397205
 61       0.000008056242
 62      -0.000000216358
 63      -0.000042319055
 64      -0.000063643263
 65      -0.000006651249
 66       0.000004889742
 67      -0.000000598985
 68       0.000132683338
 69      -0.000920930020
 70      -0.000027373162
 71      -0.000145909913
 72      -0.000078370351
 73      -0.994981991126
 74      -0.015688841543
 75       0.003922741239
 76      -0.002320434407
 77       0.001684204135
 78      -0.000003316823
 79      -0.000012393040
 80      -0.000006974300
 81       0.000010694660
 82       0.000039497950
 83       0.000022286064
 84      -0.000040743445
 85      -0.000150335600
 86      -0.000084817977
 87       0.000094913709
 88       0.000362983923
 89       0.000203782658
 90      -0.000001396627
 91       0.000001690889
 92       0.000006338055
 93      -0.000005230846
 94       0.000003024750
 95       0.000004152569
 96      -0.000005067554
 97      -0.000018878059
 98       0.000015563427
 99      -0.000009101057
100      -0.000002296757
101       0.000003364647
102       0.000011080987
103      -0.000008840392
104       0.000006170223
 Sym=     1a
 Ene= -6.24504970969282E+01
 Spin= Alpha
 Occup= 1.000000
  1       0.000013530084
  2      -0.000166466757
  3       0.000183378029
  4       0.000018403210
  5       0.000039781547
  6       0.000016785949
  7       0.000132202977
  8      -0.000158401326
  9       0.000344236893
 10      -0.000004282956
 11       0.000003708514
 12      -0.000003609563
 13      -0.000001692003
 14      -0.000017045718
 15       0.000002667298
 16      -0.000010141464
 17      -0.000420994371
 18      -0.000002194190
 19       0.000006718109
 20       0.000004472124
 21       0.000039311614
 22      -0.000072365844
 23       0.000227916724
 24      -0.000003983350
 25       0.000000037238
 26      -0.000000911386
 27      -0.000011981883
 28      -0.000003456317
 29      -0.000013052639
 30      -0.000008704387
 31      -0.000005621105
 32       0.000011492380
 33      -0.000002614971
 34      -0.000000398056
 35      -0.000029511880
 36       0.000004896417
 37       0.000003903986
 38      -0.000005816318
 39       0.000002721021
 40       0.000013727910
 41      -0.000002221312
 42       0.000003262569
 43      -0.000007213102
 44       0.000019210837
 45      -0.000356865467
 46       0.001505676705
 47      -0.000019934679
 48       0.000053301292
 49       0.000013439938
 50       0.000174791858
 51      -0.000508168854
 52      -0.000246225950
 53      -0.000004288723
 54       0.000005737369
 55       0.000023343681
 56      -0.000016872140
 57       0.000007325783
 58      -0.000061266790
 59      -0.000099676449
 60      -0.000010906670
 61       0.000018357427
 62      -0.000000744579
 63      -0.000100795810
 64      -0.000155425571
 65      -0.000015941215
 66       0.000010907274
 67      -0.000002155173
 68       0.000346567875
 69      -0.002276027159
 70      -0.000068826147
 71      -0.000362881447
 72      -0.000195284232
 73      -0.347186606282
 74       1.046958198907
 75       0.018588304301
 76      -0.006281530416
 77       0.004291616176
 78       0.000084921002
 79       0.000365303493
 80       0.000199798909
 81       0.000036225396
 82       0.000138976031
 83       0.000077912203
 84      -0.000103541377
 85      -0.000385516421
 86      -0.000217351011
 87       0.000233887528
 88       0.000896951112
 89       0.000503534087
 90      -0.000010764528
 91       0.000010723048
 92       0.000045685687
 93      -0.000039090834
 94       0.000019736928
 95       0.000011851921
 96      -0.000013827647
 97      -0.000052864086
 98       0.000044016177
 99      -0.000024487213
100      -0.000004794852
101       0.000007410315
102       0.000023588756
103      -0.000018664450
104       0.000012994870
 Sym=     1a
 Ene= -5.62822574990801E+01
 Spin= Alpha
 Occup= 1.000000
  1       0.000015224940
  2      -0.000182017480
  3       0.000088057657
  4       0.000021824450
  5       0.000044870050
  6       0.000019771436
  7       0.000184738729
  8      -0.000181636249
  9       0.000416492420
 10      -0.000005952849
 11       0.000002567309
 12      -0.000004148510
 13      -0.000003517299
 14      -0.000020635640
 15       0.000003105031
 16      -0.000014381956
 17      -0.000455668963
 18      -0.000003185796
 19       0.000007952557
 20       0.000004758613
 21       0.000045107409
 22      -0.000083017038
 23       0.000253164502
 24      -0.000004407312
 25       0.000001284570
 26      -0.000000715354
 27      -0.000013435583
 28      -0.000004144206
 29      -0.000011703306
 30       0.000000951459
 31      -0.000007619164
 32       0.000012414855
 33      -0.000004340290
 34      -0.000002491841
 35      -0.000039134540
 36       0.000006104491
 37       0.000004273063
 38      -0.000005046899
 39       0.000002529976
 40       0.000015330501
 41      -0.000002109464
 42       0.000004056851
 43      -0.000008438035
 44       0.000018666370
 45      -0.000398471942
 46       0.001810342745
 47      -0.000027982145
 48       0.000051704207
 49       0.000008402942
 50       0.000261025354
 51      -0.000588618328
 52      -0.000261669749
 53      -0.000006028577
 54       0.000007666101
 55       0.000033513173
 56      -0.000026727845
 57       0.000008128624
 58      -0.000066517016
 59      -0.000108737493
 60      -0.000017021056
 61       0.000026699282
 62      -0.000001060965
 63      -0.000117102601
 64      -0.000187616725
 65      -0.000023944056
 66       0.000019903364
 67      -0.000005140530
 68       0.000634280652
 69      -0.002650473874
 70      -0.000189107922
 71      -0.000861289905
 72      -0.000472219450
 73       0.000184098821
 74      -0.000548613823
 75       0.000273280575
 76      -0.000982668005
 77       0.001852770236
 78       0.180743657886
 79       0.858441589250
 80       0.460311637945
 81       0.004371050975
 82       0.020714424376
 83       0.011112419189
 84      -0.001202651638
 85      -0.005562876511
 86      -0.002998518621
 87       0.000634048146
 88       0.002776187928
 89       0.001513027819
 90      -0.000011096363
 91       0.000011340774
 92       0.000047025240
 93      -0.000040249663
 94       0.000020416403
 95       0.000006136940
 96      -0.000007995249
 97      -0.000027581586
 98       0.000022562529
 99      -0.000013719024
100       0.000038183366
101      -0.000038442228
102      -0.000165478709
103       0.000141032811
104      -0.000069538954
 Sym=     1a
 Ene= -5.62800948558705E+01
 Spin= Alpha
 Occup= 1.000000
  1       0.000000895149
  2      -0.000014010211
  3       0.000138992384
  4       0.000002926530
  5       0.000008399275
  6      -0.000002474515
  7      -0.000063913671
  8      -0.000100006713
  9       0.000096958108
 10       0.000000846326
 11       0.000000012454
 12      -0.000001036876
 13       0.000003824009
 14       0.000004490353
 15       0.000000184766
 16      -0.000002730690
 17      -0.000173690803
 18       0.000005751304
 19      -0.000008757687
 20       0.000001616858
 21      -0.000018585555
 22       0.000023209927
 23       0.000048401644
 24      -0.000000793107
 25      -0.000002516029
 26      -0.000002289584
 27      -0.000002735125
 28       0.000001028347
 29       0.000008204532
 30       0.000040477994
 31      -0.000001370710
 32       0.000006216110
 33       0.000002990475
 34       0.000011307738
 35       0.000030321876
 36      -0.000001902412
 37      -0.000003863342
 38      -0.000005714001
 39      -0.000001731859
 40       0.000029903922
 41      -0.000000610271
 42      -0.000003550302
 43      -0.000006272280
 44      -0.000003302113
 45       0.000049631300
 46      -0.000167454647
 47      -0.000014413473
 48      -0.000022193138
 49       0.000008423382
 50       0.000056689429
 51       0.000128225180
 52      -0.000043891537
 53       0.000004556392
 54       0.000004249105
 55      -0.000000359942
 56      -0.000002068139
 57      -0.000002138679
 58       0.000104703342
 59      -0.000112303162
 60      -0.000013416184
 61      -0.000004899369
 62       0.000012001897
 63      -0.000050451993
 64       0.000099968381
 65      -0.000009651236
 66      -0.000019487489
 67       0.000007418145
 68      -0.000002032747
 69       0.000170096806
 70      -0.000021376044
 71       0.000003548880
 72       0.000021832547
 73      -0.000001537226
 74       0.000004398995
 75      -0.000005122636
 76       0.000034847575
 77      -0.000112214246
 78      -0.676384981828
 79      -0.226332602435
 80       0.687680868881
 81      -0.016156390848
 82      -0.005408372697
 83       0.016422995461
 84       0.003907793093
 85       0.001317448658
 86      -0.003959514544
 87      -0.001445721859
 88      -0.000536004879
 89       0.001416760896
 90       0.000021486889
 91      -0.000007362621
 92       0.000017123527
 93       0.000003173178
 94      -0.000024152001
 95      -0.000007279812
 96       0.000004287284
 97      -0.000001692281
 98      -0.000004517633
 99       0.000009428471
100       0.000002154052
101      -0.000004265422
102      -0.000008877019
103       0.000008938950
104      -0.000005206254
 Sym=     1a
 Ene= -5.62800730837654E+01
 Spin= Alpha
 Occup= 1.000000
  1      -0.000008254645
  2       0.000092164593
  3      -0.000381575935
  4      -0.000019621626
  5      -0.000027755731
  6      -0.000018991836
  7       0.000213485652
  8       0.000139740934
  9       0.000115812032
 10      -0.000008595671
 11      -0.000006870210
 12       0.000004895446
 13      -0.000011304543
 14      -0.000009674453
 15      -0.000000583905
 16      -0.000006161212
 17       0.000104629587
 18       0.000000808068
 19      -0.000004120368
 20      -0.000003288452
 21      -0.000106362081
 22      -0.000038609724
 23      -0.000037107808
 24       0.000003979136
 25       0.000003179326
 26       0.000007035588
 27       0.000004189428
 28      -0.000002579267
 29       0.000002193944
 30      -0.000024049164
 31      -0.000003233866
 32      -0.000016764094
 33      -0.000018446818
 34       0.000009684930
 35       0.000030105719
 36       0.000000861660
 37       0.000002123838
 38       0.000003174488
 39      -0.000012831431
 40      -0.000068861980
 41      -0.000001454349
 42       0.000001633885
 43       0.000005995510
 44       0.000003160633
 45      -0.000066029921
 46       0.000483812459
 47       0.000022491060
 48       0.000029424317
 49       0.000034795557
 50       0.000026462197
 51      -0.000218949163
 52      -0.000081714899
 53       0.000004953611
 54      -0.000007153599
 55      -0.000002247094
 56      -0.000004658927
 57      -0.000000581916
 58      -0.000060902937
 59       0.000013795569
 60       0.000009959955
 61       0.000013509206
 62       0.000015922831
 63      -0.000095826576
 64       0.000081747086
 65       0.000008386201
 66       0.000007164551
 67       0.000015364089
 68       0.000008872437
 69      -0.000370797188
 70       0.000024264184
 71      -0.000050472648
 72       0.000000309046
 73       0.000004338600
 74      -0.000012502968
 75       0.000013725768
 76      -0.000078519451
 77       0.000238407198
 78       0.701038716327
 79      -0.439738426102
 80       0.544795444680
 81       0.016747463485
 82      -0.010494862786
 83       0.013017075362
 84      -0.004058548495
 85       0.002506372926
 86      -0.003162641836
 87       0.001519122876
 88      -0.000806055334
 89       0.001221459171
 90       0.000015765505
 91       0.000017513814
 92       0.000012279266
 93       0.000017879057
 94       0.000020638842
 95      -0.000003390804
 96      -0.000008126586
 97      -0.000011220220
 98      -0.000000452434
 99      -0.000010472211
100      -0.000002962288
101       0.000005123014
102       0.000014807235
103      -0.000010494848
104       0.000007808124
 Sym=     1a
 Ene= -1.02148531288556E+01
 Spin= Alpha
 Occup= 1.000000
  1      -0.134696475378
  2      -0.003845197471
  3      -0.003729204706
  4      -0.001890799711
  5       0.000687349578
  6      -0.001142871442
  7      -0.000701991166
  8      -0.001255222585
  9       0.004282080518
 10      -0.000136576867
 11       0.001091766139
 12      -0.000336387289
 13       0.000986543084
 14      -0.000442650039
 15      -0.026226384423
 16      -0.000518465830
 17      -0.004238471635
 18      -0.000263402840
 19       0.000105281145
 20      -0.000183321032
 21       0.004825305111
 22      -0.000525176822
 23       0.002258331671
 24      -0.000045381943
 25      -0.000050268003
 26       0.000072705338
 27      -0.000216986157
 28      -0.000047458022
 29       0.000884324290
 30       0.000600841165
 31       0.000195654498
 32      -0.000034670282
 33       0.000294358670
 34      -0.000687751928
 35      -0.001984308344
 36      -0.000030120908
 37       0.000002265124
 38       0.000057756424
 39       0.000985052330
 40       0.001713320764
 41       0.000028844984
 42       0.000070470499
 43      -0.000109299633
 44      -0.978348061711
 45      -0.051398983934
 46       0.042950627935
 47       0.000723902480
 48       0.000780185354
 49       0.000749004952
 50       0.001973842574
 51      -0.005285915762
 52      -0.001826792068
 53      -0.000808370886
 54       0.000217708445
 55       0.001384636974
 56      -0.001427408987
 57      -0.000141983177
 58       0.003119517193
 59      -0.007480317627
 60       0.002387913285
 61       0.000932631869
 62      -0.001369538664
 63       0.003113160489
 64      -0.007824119987
 65      -0.000279053441
 66      -0.000856798366
 67       0.002839988636
 68      -0.000817974906
 69      -0.013862036491
 70       0.000047191560
 71      -0.000137804047
 72      -0.000126552448
 73       0.000012238252
 74      -0.000022291776
 75       0.000211510955
 76      -0.002257267022
 77       0.008773747882
 78      -0.000007912249
 79      -0.000018837795
 80      -0.000008070504
 81       0.000027967870
 82       0.000067890702
 83       0.000029645857
 84      -0.000181964703
 85      -0.000531320242
 86      -0.000265229164
 87       0.001211782056
 88       0.004535489432
 89       0.002483269660
 90      -0.000013284663
 91       0.000017544522
 92       0.000058254621
 93      -0.000047372094
 94       0.000032515560
 95       0.000062772775
 96      -0.000082292393
 97      -0.000277270953
 98       0.000225764980
 99      -0.000152135654
100      -0.000201886873
101       0.000251426658
102       0.000900045852
103      -0.000740055340
104       0.000461125031
 Sym=     1a
 Ene= -1.02133893853057E+01
 Spin= Alpha
 Occup= 1.000000
  1       0.717150745541
  2       0.032667026546
  3      -0.025849725223
  4      -0.000194529242
  5       0.000425207578
  6      -0.001992311163
  7       0.002675286053
  8       0.002420273250
  9      -0.005928069303
 10      -0.000369794206
 11      -0.000022815916
 12      -0.000226007377
 13       0.001349931085
 14       0.000228106941
 15       0.670453545644
 16       0.029901606281
 17      -0.006475363584
 18       0.000064905419
 19      -0.000742963503
 20       0.002089555970
 21      -0.000569267987
 22       0.001339633937
 23      -0.004034359073
 24      -0.000421942499
 25       0.000085487630
 26      -0.000112116260
 27       0.001125333456
 28       0.000171367742
 29      -0.003553163137
 30       0.003718622793
 31       0.001887497588
 32       0.000208305598
 33      -0.000493918178
 34      -0.002962231452
 35       0.004178401513
 36       0.001617043711
 37      -0.000096488427
 38       0.000659840491
 39      -0.002831339653
 40       0.004135640595
 41      -0.001508295420
 42      -0.000340062369
 43       0.000639133723
 44      -0.116035879201
 45      -0.007486441759
 46       0.007859957518
 47      -0.001257436686
 48      -0.000117392674
 49      -0.001072364111
 50      -0.001692998192
 51       0.000334798918
 52       0.005464271073
 53       0.000045745534
 54      -0.000635973685
 55       0.000343437312
 56      -0.001020915106
 57       0.000043552028
 58       0.000129471844
 59      -0.003472150422
 60       0.000614617981
 61      -0.000009384344
 62      -0.000118600091
 63       0.001770571889
 64       0.000018790809
 65       0.000311042722
 66      -0.000284193796
 67       0.000502842460
 68      -0.000424128175
 69       0.006915001272
 70       0.000141727156
 71      -0.000235630431
 72      -0.000104593628
 73      -0.000007945118
 74       0.000014513399
 75      -0.000137153447
 76       0.001375769744
 77      -0.004765255353
 78      -0.000003300663
 79       0.000021709499
 80       0.000004836712
 81       0.000010529742
 82      -0.000075852868
 83      -0.000017687321
 84       0.000005415343
 85       0.000470944323
 86       0.000165094631
 87      -0.000516483157
 88      -0.002702690244
 89      -0.001361178066
 90       0.000009991945
 91      -0.000006796953
 92      -0.000038656145
 93       0.000034377312
 94      -0.000017409355
 95      -0.000047346508
 96       0.000034696204
 97       0.000185393210
 98      -0.000163487820
 99       0.000084890548
100       0.000140853017
101      -0.000124712582
102      -0.000575437532
103       0.000496278851
104      -0.000269694567
 Sym=     1a
 Ene= -1.02129857497674E+01
 Spin= Alpha
 Occup= 1.000000
  1       0.666449610518
  2       0.035322592894
  3      -0.036296514281
  4       0.000351304419
  5      -0.000625770326
  6       0.001387837340
  7       0.002914612467
  8       0.000401372508
  9      -0.000229607338
 10       0.001528601232
 11       0.000084529118
 12      -0.001593241065
 13       0.001514791103
 14       0.000222838101
 15      -0.725313494603
 16      -0.038487041400
 17       0.032693988661
 18       0.000129548245
 19      -0.000454121691
 20       0.001220807751
 21      -0.001957374001
 22       0.000817876344
 23      -0.002769155691
 24      -0.001365892226
 25      -0.000134940458
 26       0.001573695767
 27      -0.001621911488
 28      -0.000246407497
 29      -0.002930585206
 30       0.005606625145
 31       0.001792223109
 32       0.000551930357
 33      -0.001434934899
 34       0.003651823392
 35      -0.005377279581
 36      -0.002178730931
 37       0.000227827232
 38      -0.001206379656
 39       0.003039949359
 40      -0.006442718870
 41       0.002038151131
 42       0.000603970738
 43      -0.001313159797
 44      -0.071742001144
 45      -0.005422940862
 46       0.011542341655
 47      -0.001518564874
 48      -0.000052093866
 49      -0.000826074717
 50       0.003651182410
 51       0.001346644786
 52       0.000562821882
 53      -0.000084162227
 54      -0.000738688598
 55       0.000413118407
 56      -0.001096444682
 57       0.000100741423
 58       0.001015396666
 59      -0.000177459267
 60       0.000586902969
 61      -0.000011806333
 62      -0.000108578572
 63       0.000227879716
 64      -0.001954273274
 65       0.000062088958
 66      -0.000207805070
 67       0.000429542497
 68      -0.000159013212
 69       0.003527313150
 70       0.000161482026
 71      -0.000123812264
 72       0.000153559224
 73      -0.000004166325
 74       0.000007647940
 75      -0.000071805249
 76       0.000696254880
 77      -0.002421142846
 78      -0.000004370608
 79       0.000012289893
 80       0.000001837909
 81       0.000014460535
 82      -0.000043005121
 83      -0.000007030368
 84      -0.000035253606
 85       0.000251784659
 86       0.000077302903
 87      -0.000197464035
 88      -0.001376612011
 89      -0.000685259436
 90       0.000004495680
 91      -0.000002233741
 92      -0.000020465718
 93       0.000019163204
 94      -0.000008136082
 95      -0.000019978162
 96       0.000012217897
 97       0.000096556956
 98      -0.000087915066
 99       0.000039398172
100       0.000054218702
101      -0.000050409900
102      -0.000288571482
103       0.000246438331
104      -0.000124271147
 Sym=     1a
 Ene= -8.66843729369651E+00
 Spin= Alpha
 Occup= 1.000000
  1       0.000035593282
  2      -0.000387374745
  3       0.000475383006
  4       0.000040991360
  5       0.000082046373
  6       0.000038199635
  7       0.000258544423
  8      -0.000366081902
  9       0.000647980385
 10      -0.000008411375
 11       0.000008462456
 12      -0.000000049255
 13      -0.000006938888
 14      -0.000028031503
 15       0.000008040167
 16      -0.000029290690
 17      -0.000850581563
 18      -0.000001916128
 19       0.000016183277
 20       0.000012033397
 21       0.000067490907
 22      -0.000139622065
 23       0.000457637522
 24      -0.000007075006
 25      -0.000002122032
 26      -0.000004046624
 27      -0.000022989792
 28      -0.000004486968
 29      -0.000040947472
 30      -0.000032774967
 31      -0.000009354766
 32       0.000024082607
 33      -0.000000299216
 34       0.000002625145
 35      -0.000054681515
 36       0.000007802781
 37       0.000007407484
 38      -0.000011363891
 39      -0.000001607566
 40       0.000031063162
 41      -0.000003587269
 42       0.000004764109
 43      -0.000012361994
 44       0.000044617226
 45      -0.000759682268
 46       0.003356831483
 47      -0.000042502939
 48       0.000091624525
 49       0.000020541972
 50       0.000329434985
 51      -0.001146698960
 52      -0.000561770837
 53      -0.000011491124
 54       0.000013274211
 55       0.000048472538
 56      -0.000035840265
 57       0.000011539964
 58      -0.000108947526
 59      -0.000251787154
 60      -0.000023735112
 61       0.000018338560
 62      -0.000008856950
 63      -0.000189523507
 64      -0.000344401314
 65      -0.000032053790
 66       0.000001572707
 67      -0.000013648122
 68       0.001042865855
 69      -0.006081318191
 70      -0.000143579729
 71      -0.000750775515
 72      -0.000405753052
 73      -0.136659959784
 74       0.516877981570
 75      -1.093413864870
 76      -0.032248603817
 77       0.014047896148
 78       0.000356781850
 79       0.001496627607
 80       0.000823222939
 81      -0.000838875616
 82      -0.003526541652
 83      -0.001938693341
 84      -0.000306597059
 85      -0.001192235828
 86      -0.000668053275
 87       0.000625429525
 88       0.002440422946
 89       0.001367876044
 90       0.000176300707
 91      -0.000170527990
 92      -0.000730853833
 93       0.000627693458
 94      -0.000312090814
 95       0.000139126824
 96      -0.000147174127
 97      -0.000593199095
 98       0.000501791510
 99      -0.000258081927
100      -0.000020048011
101       0.000029522667
102       0.000097228901
103      -0.000077422764
104       0.000045961841
 Sym=     1a
 Ene= -6.50122484037514E+00
 Spin= Alpha
 Occup= 1.000000
  1       0.000018460222
  2      -0.000229254721
  3       0.000325798673
  4       0.000025036396
  5       0.000047317758
  6       0.000022402168
  7       0.000096269325
  8      -0.000213676146
  9       0.000332213991
 10      -0.000004114953
 11       0.000005304414
 12       0.000000722267
 13      -0.000003514481
 14      -0.000014522612
 15       0.000004534564