[Molden Format]
[Title]
 Molden file created by orca_2mkl for BaseName=radical_017

[Atoms] AU
C    1   6          1.1842063305         0.8336356764         0.3269396287 
C    2   6          1.3119801630         0.0846483924         2.8042515375 
H    3   1          2.9472338860         1.2928844804        -0.6555270986 
H    4   1          3.1165061044        -0.0068634853         3.8090056949 
H    5   1         -0.3949017394        -0.4281117865         3.8559823968 
C    6   6         -1.0838694316         1.0288935190        -1.0633602339 
H    7   1         -2.8980235277         0.7747952738        -0.1147233839 
H    8   1         -1.1108471619         1.9956396145        -2.8838562509 
H    9   1         -1.2671671975        -1.7039414885        -2.4610621538 
Br  10  35         -1.8223649562        -4.2071331967        -3.7796525788 
[GTO]
  1 0
s   5 1.0 
     1238.4016938000         0.8208956682
      186.2900499200         1.4766449896
       42.2511763460         2.1526124058
       11.6765579320         2.1081722461
        3.5930506482         0.8290999933
s   1 1.0 
        0.4024514736         0.3601183351
s   1 1.0 
        0.1309018267         0.1551027052
p   3 1.0 
        9.4680970621         1.3467645142
        2.0103545142         1.0678070931
        0.5477100471         0.5108735714
p   1 1.0 
        0.1526861379         0.1360471976
d   1 1.0 
        0.8000000000         1.9292013661

  2 0
s   5 1.0 
     1238.4016938000         0.8208956682
      186.2900499200         1.4766449896
       42.2511763460         2.1526124058
       11.6765579320         2.1081722461
        3.5930506482         0.8290999933
s   1 1.0 
        0.4024514736         0.3601183351
s   1 1.0 
        0.1309018267         0.1551027052
p   3 1.0 
        9.4680970621         1.3467645142
        2.0103545142         1.0678070931
        0.5477100471         0.5108735714
p   1 1.0 
        0.1526861379         0.1360471976
d   1 1.0 
        0.8000000000         1.9292013661

  3 0
s   3 1.0 
       13.0107010000         0.1634903809
        1.9622572000         0.2773515510
        0.4445379600         0.3157501452
s   1 1.0 
        0.1219496200         0.1470772262
p   1 1.0 
        0.8000000000         1.0784563492

  4 0
s   3 1.0 
       13.0107010000         0.1634903809
        1.9622572000         0.2773515510
        0.4445379600         0.3157501452
s   1 1.0 
        0.1219496200         0.1470772262
p   1 1.0 
        0.8000000000         1.0784563492

  5 0
s   3 1.0 
       13.0107010000         0.1634903809
        1.9622572000         0.2773515510
        0.4445379600         0.3157501452
s   1 1.0 
        0.1219496200         0.1470772262
p   1 1.0 
        0.8000000000         1.0784563492

  6 0
s   5 1.0 
     1238.4016938000         0.8208956682
      186.2900499200         1.4766449896
       42.2511763460         2.1526124058
       11.6765579320         2.1081722461
        3.5930506482         0.8290999933
s   1 1.0 
        0.4024514736         0.3601183351
s   1 1.0 
        0.1309018267         0.1551027052
p   3 1.0 
        9.4680970621         1.3467645142
        2.0103545142         1.0678070931
        0.5477100471         0.5108735714
p   1 1.0 
        0.1526861379         0.1360471976
d   1 1.0 
        0.8000000000         1.9292013661

  7 0
s   3 1.0 
       13.0107010000         0.1634903809
        1.9622572000         0.2773515510
        0.4445379600         0.3157501452
s   1 1.0 
        0.1219496200         0.1470772262
p   1 1.0 
        0.8000000000         1.0784563492

  8 0
s   3 1.0 
       13.0107010000         0.1634903809
        1.9622572000         0.2773515510
        0.4445379600         0.3157501452
s   1 1.0 
        0.1219496200         0.1470772262
p   1 1.0 
        0.8000000000         1.0784563492

  9 0
s   3 1.0 
       13.0107010000         0.1634903809
        1.9622572000         0.2773515510
        0.4445379600         0.3157501452
s   1 1.0 
        0.1219496200         0.1470772262
p   1 1.0 
        0.8000000000         1.0784563492

 10 0
s   6 1.0 
   113286.3877600000         7.5076141183
    17009.6263030000        13.8835270484
     3870.1842567000        22.7307285566
     1093.0357227000        30.8227297499
      356.3972179700        27.2481937511
      123.1253964300         9.6953381145
s   3 1.0 
      236.7408400700        -4.7631125758
       28.4686610700         5.6113863182
       11.8834437220         1.9900291396
s   3 1.0 
       21.2696333120        -1.5429794477
        3.6129226841         1.3310800628
        1.6626648969         0.4300130345
s   1 1.0 
        0.3482379323         0.3230852630
s   1 1.0 
        0.1301903139         0.1544699827
p   5 1.0 
     1560.2801881000       115.0180051576
      368.4785920500       143.9035925417
      117.2297884900       137.5255986684
       42.6489092480        78.9578527439
       16.0872250960        15.8580577654
p   3 1.0 
        8.6352810058         6.8437546680
        3.5613665502         3.7974971038
        1.5292626609         0.5585414278
p   1 1.0 
        0.5306429485         0.6455696201
p   1 1.0 
        0.1570275896         0.1408996918
d   4 1.0 
      104.8551864200       261.4493931636
       30.2811436880       176.6993802449
       10.6513942670        76.9545600188
        3.8699456233        17.5937671387
d   1 1.0 
        1.3240876762         4.6593398042
d   1 1.0 
        0.3890000000         0.5462379705

[5D]
[7F]
[9G]
[MO]
 Sym=     1a
 Ene= -4.82754720450743E+02
 Spin= Alpha
 Occup= 1.000000
  1       0.000005472098
  2      -0.000076208062
  3       0.000140879825
  4       0.000006757250
  5       0.000016054550
  6       0.000005296192
  7       0.000026166311
  8      -0.000065719211
  9       0.000143095462
 10      -0.000001906754
 11       0.000003257564
 12       0.000000162680
 13       0.000000376939
 14      -0.000006261569
 15       0.000001399084
 16      -0.000007585861
 17      -0.000191442945
 18      -0.000000170649
 19       0.000002513451
 20       0.000002450030
 21       0.000015120156
 22      -0.000026096996
 23       0.000098345588
 24      -0.000000924366
 25      -0.000001091720
 26      -0.000001023795
 27      -0.000005200611
 28      -0.000001357956
 29      -0.000005694098
 30      -0.000000301894
 31      -0.000001828534
 32       0.000003554567
 33      -0.000000135753
 34       0.000001317987
 35      -0.000009339738
 36       0.000001324806
 37       0.000001626659
 38      -0.000003064478
 39       0.000000032494
 40       0.000006836406
 41      -0.000000591023
 42       0.000000609487
 43      -0.000002356022
 44       0.000005918810
 45      -0.000150303339
 46       0.000758561934
 47      -0.000008623124
 48       0.000006189626
 49       0.000000722421
 50       0.000063194172
 51      -0.000279633428
 52      -0.000168626880
 53      -0.000006662183
 54       0.000004169429
 55       0.000024912975
 56      -0.000023092030
 57       0.000003260160
 58      -0.000013764059
 59      -0.000023960688
 60       0.000001258632
 61       0.000004458303
 62      -0.000003463676
 63      -0.000040513792
 64      -0.000050934102
 65      -0.000007281529
 66      -0.000001908187
 67       0.000002874104
 68       0.000079366963
 69      -0.001259916770
 70      -0.000016601997
 71      -0.000116543047
 72      -0.000060709166
 73      -0.994982124983
 74      -0.015688553161
 75       0.003919859758
 76      -0.002353165098
 77       0.001852090887
 78      -0.000002796240
 79      -0.000011261866
 80      -0.000005892559
 81       0.000009065468
 82       0.000035920592
 83       0.000018832295
 84      -0.000036809043
 85      -0.000145752100
 86      -0.000076446482
 87       0.000112746997
 88       0.000471335097
 89       0.000247845758
 90      -0.000002171527
 91       0.000001952091
 92       0.000007875438
 93      -0.000007015274
 94       0.000003764444
 95       0.000007461622
 96      -0.000006710612
 97      -0.000027043328
 98       0.000024093098
 99      -0.000012981008
100      -0.000014070579
101       0.000012709321
102       0.000051099294
103      -0.000045505814
104       0.000024644485
 Sym=     1a
 Ene= -6.24378540264544E+01
 Spin= Alpha
 Occup= 1.000000
  1      -0.000012864807
  2       0.000181292906
  3      -0.000320341495
  4      -0.000016069477
  5      -0.000037755489
  6      -0.000012560921
  7      -0.000070548358
  8       0.000157254763
  9      -0.000344622591
 10       0.000004711393
 11      -0.000007453331
 12      -0.000000770004
 13      -0.000000322051
 14       0.000014755656
 15      -0.000003315067
 16       0.000018617053
 17       0.000453716427
 18       0.000000236005
 19      -0.000005955928
 20      -0.000005890257
 21      -0.000032661353
 22       0.000062435878
 23      -0.000233488498
 24       0.000002142996
 25       0.000002510234
 26       0.000002355377
 27       0.000012169906
 28       0.000003134383
 29       0.000013810530
 30       0.000000537636
 31       0.000004561717
 32      -0.000008238889
 33       0.000000690273
 34      -0.000003459518
 35       0.000021502842
 36      -0.000003134971
 37      -0.000003787029
 38       0.000007078860
 39       0.000000636146
 40      -0.000015243043
 41       0.000001394821
 42      -0.000001379623
 43       0.000005489750
 44      -0.000013678210
 45       0.000359593917
 46      -0.001852802869
 47       0.000020866405
 48      -0.000012941699
 49      -0.000000979101
 50      -0.000156448162
 51       0.000675747099
 52       0.000404525142
 53       0.000015880903
 54      -0.000009919986
 55      -0.000059597546
 56       0.000055345112
 57      -0.000007529477
 58       0.000032042304
 59       0.000062647319
 60      -0.000002138744
 61      -0.000010334274
 62       0.000008147939
 63       0.000097043922
 64       0.000126287748
 65       0.000017714070
 66       0.000004505098
 67      -0.000005906331
 68      -0.000214936236
 69       0.003080710823
 70       0.000043955197
 71       0.000298403329
 72       0.000155461319
 73       0.347187137030
 74      -1.046959029132
 75      -0.018581862657
 76       0.006357368733
 77      -0.004684919178
 78      -0.000064275047
 79      -0.000317302808
 80      -0.000162674520
 81      -0.000029704838
 82      -0.000123840986
 83      -0.000064759895
 84       0.000092688273
 85       0.000371246952
 86       0.000194896295
 87      -0.000274719938
 88      -0.001151197577
 89      -0.000605560014
 90       0.000013909815
 91      -0.000010352450
 92      -0.000048951880
 93       0.000044932283
 94      -0.000020107506
 95      -0.000019946479
 96       0.000017366952
 97       0.000071501690
 98      -0.000064089398
 99       0.000032966598
100       0.000032531919
101      -0.000029533630
102      -0.000117683895
103       0.000104746147
104      -0.000056418721
 Sym=     1a
 Ene= -5.62698525399864E+01
 Spin= Alpha
 Occup= 1.000000
  1       0.000013205026
  2      -0.000195026291
  3       0.000320224650
  4       0.000014388518
  5       0.000042615143
  6       0.000011339368
  7       0.000071946575
  8      -0.000182116158
  9       0.000378631444
 10      -0.000005246151
 11       0.000010090739
 12      -0.000000152310
 13       0.000003752793
 14      -0.000015553835
 15       0.000004301119
 16      -0.000029097876
 17      -0.000473441229
 18       0.000000348155
 19       0.000007338893
 20       0.000008315143
 21       0.000031618460
 22      -0.000067148449
 23       0.000244023006
 24      -0.000002193907
 25      -0.000002647897
 26      -0.000003000637
 27      -0.000013106821
 28      -0.000002903525
 29      -0.000015315936
 30       0.000010998026
 31      -0.000004772870
 32       0.000008972127
 33      -0.000000656650
 34       0.000004250661
 35      -0.000024095780
 36       0.000002896993
 37       0.000004311323
 38      -0.000006925970
 39      -0.000003659734
 40       0.000016281236
 41      -0.000000446259
 42       0.000001372395
 43      -0.000005071345
 44       0.000003846709
 45      -0.000342148322
 46       0.001986552831
 47      -0.000027297511
 48      -0.000032766323
 49      -0.000022236577
 50       0.000222332042
 51      -0.000741841113
 52      -0.000450755982
 53      -0.000029364310
 54       0.000014591510
 55       0.000109479744
 56      -0.000105839750
 57       0.000008623366
 58      -0.000009248208
 59      -0.000025802877
 60       0.000008475165
 61       0.000016231827
 62      -0.000014103947
 63      -0.000093067363
 64      -0.000123946827
 65      -0.000025455167
 66      -0.000003977304
 67       0.000012247907
 68       0.000374850216
 69      -0.003563929084
 70      -0.000137252371
 71      -0.000730889146
 72      -0.000382259372
 73       0.000157773998
 74      -0.000469737509
 75       0.000241590594
 76      -0.001035084346
 77       0.002338925941
 78       0.157497522193
 79       0.870884584288
 80       0.445253387134
 81       0.003805188978
 82       0.020987173449
 83       0.010732337542
 84      -0.001041712603
 85      -0.005575870104
 86      -0.002858351113
 87       0.000639191182
 88       0.003130567535
 89       0.001619241946
 90      -0.000012412986
 91       0.000009589213
 92       0.000043682283
 93      -0.000040079269
 94       0.000018331108
 95       0.000013988086
 96      -0.000012516354
 97      -0.000049054908
 98       0.000043952911
 99      -0.000023629093
100       0.000000210211
101       0.000002454301
102      -0.000003925855
103       0.000004672692
104       0.000005032041
 Sym=     1a
 Ene= -5.62674194473892E+01
 Spin= Alpha
 Occup= 1.000000
  1      -0.000001172997
  2       0.000014654136
  3      -0.000152716278
  4      -0.000004406579
  5      -0.000011417013
  6       0.000007421515
  7       0.000079896135
  8       0.000165452889
  9      -0.000237327420
 10      -0.000001136251
 11       0.000000892180
 12       0.000000352059
 13      -0.000004600213
 14      -0.000007394626
 15      -0.000001129302
 16       0.000015996902
 17       0.000291940316
 18      -0.000009539400
 19       0.000010668599
 20      -0.000005760654
 21       0.000045349722
 22      -0.000019605071
 23      -0.000088153614
 24       0.000000510229
 25       0.000003756824
 26       0.000003937646
 27       0.000002525158
 28      -0.000001686490
 29      -0.000024434314
 30      -0.000082764847
 31       0.000005241637
 32      -0.000009620151
 33      -0.000000283725
 34      -0.000018662513
 35      -0.000048607446
 36       0.000002279745
 37       0.000004745557
 38       0.000008012051
 39       0.000005885150
 40      -0.000028182107
 41       0.000001145940
 42       0.000004795604
 43       0.000007244881
 44       0.000004657611
 45      -0.000079568341
 46       0.000244655311
 47       0.000022039615
 48       0.000030197874
 49      -0.000014278802
 50      -0.000183978000
 51      -0.000265682441
 52       0.000128829836
 53      -0.000011227649
 54      -0.000008824401
 55       0.000010913452
 56       0.000001459381
 57       0.000004243599
 58      -0.000152759179
 59       0.000056363805
 60       0.000009039248
 61       0.000007350082
 62      -0.000014438017
 63       0.000078046254
 64      -0.000018999062
 65       0.000020394948
 66       0.000016732438
 67       0.000002937533
 68      -0.000002124555
 69      -0.000381908806
 70       0.000008810194
 71      -0.000014629023
 72      -0.000013655832
 73       0.000002651470
 74      -0.000007575586
 75       0.000009113986
 76      -0.000065337930
 77       0.000221083500
 78       0.710846258515
 79       0.207906551822
 80      -0.658102593990
 81       0.016981837373
 82       0.004970764545
 83      -0.015716865369
 84      -0.004116101684
 85      -0.001222085796
 86       0.003789472890
 87       0.001546016658
 88       0.000559166827
 89      -0.001335709323
 90      -0.000017842285
 91       0.000007598145
 92      -0.000014159966
 93      -0.000003498575
 94       0.000023135653
 95       0.000010093209
 96      -0.000006615405
 97       0.000000706297
 98       0.000007366233
 99      -0.000014878732
100      -0.000011726534
101       0.000010034757
102       0.000011307080
103      -0.000017305001
104       0.000019185745
 Sym=     1a
 Ene= -5.62674040790448E+01
 Spin= Alpha
 Occup= 1.000000
  1       0.000011010118
  2      -0.000114994980
  3       0.000283805045
  4       0.000022994229
  5       0.000036014022
  6       0.000026411278
  7      -0.000108774783
  8      -0.000164513595
  9      -0.000092258629
 10       0.000009560350
 11       0.000004409211
 12      -0.000005318081
 13       0.000008595558
 14       0.000009463082
 15       0.000000305419
 16       0.000013961344
 17      -0.000121988207
 18      -0.000003492145
 19       0.000006709226
 20       0.000001033072
 21       0.000109525087
 22       0.000038156402
 23       0.000068733906
 24      -0.000005390813
 25      -0.000001661007
 26      -0.000007549220
 27      -0.000006273237
 28       0.000001408850
 29      -0.000012023833
 30      -0.000000709298
 31       0.000002321957
 32       0.000021655030
 33       0.000017014867
 34      -0.000012745891
 35      -0.000042285463
 36       0.000001252312
 37      -0.000001978103
 38      -0.000003051546
 39       0.000014617769
 40       0.000060799831
 41       0.000000810691
 42      -0.000001414058
 43      -0.000007043020
 44      -0.000000253066
 45       0.000041257260
 46      -0.000383983743
 47      -0.000028798627
 48      -0.000016237345
 49      -0.000040538466
 50       0.000060353415
 51       0.000186510619
 52       0.000218743595
 53      -0.000006873197
 54       0.000007230206
 55      -0.000001576104
 56       0.000015082926
 57      -0.000000158116
 58       0.000041805842
 59      -0.000025005805
 60      -0.000019204721
 61      -0.000007015775
 62      -0.000026435882
 63       0.000112003200
 64      -0.000047055056
 65      -0.000016620460
 66      -0.000006235283
 67      -0.000012308908
 68       0.000011554247
 69       0.000414131267
 70      -0.000008658880
 71       0.000041193323
 72       0.000011157133
 73      -0.000003111658
 74       0.000008870522
 75      -0.000011902592
 76       0.000071291682
 77      -0.000231130264
 78      -0.671946908422
 79       0.424102577147
 80      -0.591819549960
 81      -0.016053734100
 82       0.010123552554
 83      -0.014140288597
 84       0.003894978853
 85      -0.002424353465
 86       0.003434172318
 87      -0.001467576669
 88       0.000782781359
 89      -0.001323664919
 90      -0.000014558693
 91      -0.000014527594
 92      -0.000012775854
 93      -0.000015123960
 94      -0.000018329460
 95       0.000005693921
 96       0.000009524961
 97       0.000011421526
 98       0.000003594732
 99       0.000012642869
100      -0.000002519916
101      -0.000011192221
102      -0.000017414274
103       0.000003295024
104      -0.000015521789
 Sym=     1a
 Ene= -1.02222778083564E+01
 Spin= Alpha
 Occup= 1.000000
  1       0.061353636700
  2       0.000914519194
  3       0.004928409890
  4       0.001747739077
  5      -0.000590386510
  6       0.001178674605
  7       0.000622418941
  8       0.001376441853
  9      -0.004882703730
 10       0.000064906983
 11      -0.001199432048
 12       0.000308223232
 13      -0.001143776808
 14       0.000299490769
 15       0.010353681062
 16       0.000041228653
 17       0.005052561145
 18       0.000257268957
 19      -0.000029898926
 20       0.000002833597
 21      -0.004834655147
 22       0.000368589890
 23      -0.002740741532
 24       0.000138872749
 25       0.000041729417
 26      -0.000112822964
 27       0.000230883320
 28       0.000077119520
 29      -0.000587479008
 30      -0.001116219832
 31      -0.000330618551
 32      -0.000023974160
 33      -0.000202592435
 34       0.000733940348
 35       0.001937387864
 36      -0.000005870137
 37      -0.000013217175
 38      -0.000025942525
 39      -0.000935464376
 40      -0.001793846247
 41      -0.000008105124
 42      -0.000069872760
 43       0.000130562854
 44       0.985839331835
 45       0.052844395742
 46      -0.048413848725
 47      -0.000627061059
 48      -0.000487439870
 49      -0.000589868292
 50      -0.002098214789
 51       0.006448472144
 52       0.002601655885
 53       0.000719341020
 54      -0.000261765292
 55      -0.001483153877
 56       0.001380136937
 57       0.000068688040
 58      -0.003091353777
 59       0.007554943176
 60      -0.002469484255
 61      -0.000688195364
 62       0.001490520487
 63      -0.003020372247
 64       0.007985437923
 65       0.000243133144
 66       0.001235753603
 67      -0.002765758491
 68       0.000916247308
 69       0.019083286315
 70      -0.000055243988
 71      -0.000940450778
 72      -0.000325130267
 73      -0.000006304740
 74       0.000009277495
 75      -0.000116558829
 76       0.002181279656
 77      -0.010095403364
 78       0.000000742253
 79      -0.000005725007
 80      -0.000008695608
 81      -0.000003647044
 82       0.000016198368
 83       0.000027795387
 84       0.000112459440
 85       0.000284005247
 86       0.000071768889
 87      -0.001308612248
 88      -0.005231581660
 89      -0.002625555288
 90       0.000017894669
 91      -0.000017645460
 92      -0.000051507451
 93       0.000046118031
 94      -0.000035862580
 95      -0.000089972380
 96       0.000088220655
 97       0.000269232513
 98      -0.000240376062
 99       0.000177830393
100       0.000323979167
101      -0.000303852711
102      -0.001059514764
103       0.000946571074
104      -0.000600827069
 Sym=     1a
 Ene= -1.02193691306133E+01
 Spin= Alpha
 Occup= 1.000000
  1      -0.802361651836
  2      -0.037036029543
  3       0.030299658812
  4      -0.000003394238
  5      -0.000207833268
  6       0.001732726384
  7      -0.003292350014
  8      -0.002422932215
  9       0.006386682560
 10       0.000060235653
 11       0.000110625000
 12       0.000386733998
 13      -0.001386268745
 14      -0.000416133761
 15      -0.574857254140
 16      -0.024670565015
 17       0.001390683016
 18      -0.000083462999
 19       0.000719585435
 20      -0.002281848340
 21       0.001313216220
 22      -0.001317530794
 23       0.004737856732
 24       0.000497451334
 25      -0.000089110579
 26      -0.000027290924
 27      -0.000899299526
 28      -0.000201401716
 29       0.003957361184
 30      -0.004299453381
 31      -0.002057543676
 32      -0.000336211661
 33       0.000666572286
 34       0.002357918947
 35      -0.003629577089
 36      -0.001313024025
 37       0.000003341927
 38      -0.000499168853
 39       0.002499707578
 40      -0.003037571548
 41       0.001241780032
 42       0.000281187166
 43      -0.000451628107
 44       0.055372821565
 45       0.003867947859
 46      -0.003745902955
 47       0.001384697911
 48       0.000360588567
 49       0.001238797550
 50       0.001317139295
 51      -0.002096753030
 52      -0.006208893254
 53      -0.000142283876
 54       0.000807385122
 55      -0.000220047809
 56       0.001003310742
 57       0.000035021878
 58      -0.000037652319
 59       0.002838385657
 60      -0.000479255175
 61       0.000083050963
 62       0.000023691174
 63      -0.001544454740
 64      -0.000383545659
 65      -0.000346283487
 66       0.000316451373
 67      -0.000254834040
 68       0.000217024042
 69      -0.010727581669
 70      -0.000303659061
 71      -0.000002350935
 72      -0.000055979900
 73       0.000009494760
 74      -0.000017344051
 75       0.000163903556
 76      -0.001690144312
 77       0.006297700336
 78       0.000006002159
 79      -0.000026497967
 80      -0.000003739969
 81      -0.000019552854
 82       0.000092895742
 83       0.000014325220
 84       0.000029499267
 85      -0.000563201553
 86      -0.000159148870
 87       0.000577600066
 88       0.003563455344
 89       0.001673311999
 90      -0.000014066364
 91       0.000004814461
 92       0.000045683292
 93      -0.000044338601
 94       0.000019618444
 95       0.000065245450
 96      -0.000025313480
 97      -0.000214815429
 98       0.000206589464
 99      -0.000093805203
100      -0.000190260041
101       0.000105221429
102       0.000660152620
103      -0.000616529477
104       0.000294660187
 Sym=     1a
 Ene= -1.02188613849452E+01
 Spin= Alpha
 Occup= 1.000000
  1      -0.573603925728
  2      -0.031196199582
  3       0.032643247384
  4      -0.000453334535
  5       0.000678904688
  6      -0.001807053112
  7      -0.002572072197
  8      -0.000301375876
  9      -0.000068703678
 10      -0.001650557379
 11      -0.000004227982
 12       0.001390978075
 13      -0.001321861197
 14      -0.000356171869
 15       0.803566939682
 16       0.042048629002
 17      -0.033828263455
 18      -0.000132584817
 19       0.000349910068
 20      -0.001055041666
 21       0.002070782313
 22      -0.000547027321
 23       0.002522475826
 24       0.001415761511
 25       0.000167051337
 26      -0.001451550555
 27       0.001803626899
 28       0.000408231971
 29       0.002556403649
 30      -0.005038475770
 31      -0.001550084245
 32      -0.000543004108
 33       0.001383244147
 34      -0.004027095516
 35       0.005753289743
 36       0.002363363476
 37      -0.000126004272
 38       0.001345362546
 39      -0.003347935846
 40       0.006991706112
 41      -0.002224896397
 42      -0.000667605704
 43       0.001381301158
 44       0.026768951855
 45       0.002550352471
 46      -0.007709459680
 47       0.001300970162
 48       0.000181902307
 49       0.000728070629
 50      -0.003507974005
 51      -0.002041401339
 52      -0.000252882138
 53       0.000094079145
 54       0.000719494947
 55      -0.000223986507
 56       0.000893000058
 57      -0.000050201790
 58      -0.000841287389
 59      -0.000459975073
 60      -0.000387594071
 61       0.000099995745
 62       0.000056848499
 63       0.000085016543
 64       0.001528307944
 65      -0.000048035803
 66       0.000144499061
 67      -0.000249750059
 68       0.000003655936
 69      -0.003934158107
 70      -0.000184583178
 71       0.000048437276
 72      -0.000303585018
 73       0.000003002345
 74      -0.000005456723
 75       0.000051920070
 76      -0.000567759495
 77       0.002260473567
 78       0.000005037461
 79      -0.000009551148
 80       0.000001649025
 81      -0.000016829353
 82       0.000033508905
 83      -0.000004983951
 84       0.000052500376
 85      -0.000196948175
 86      -0.000014924121
 87       0.000141631643
 88       0.001293628386
 89       0.000546343711
 90      -0.000005239173
 91      -0.000000585583
 92       0.000014548217
 93      -0.000017733101
 94       0.000006243766
 95       0.000023044699
 96       0.000001108582
 97      -0.000068428455
 98       0.000080303892
 99      -0.000029844308
100      -0.000063749217
101       0.000015609115
102       0.000218143939
103      -0.000228686194
104       0.000097419768
 Sym=     1a
 Ene= -8.65587641520654E+00
 Spin= Alpha
 Occup= 1.000000
  1      -0.000029765500
  2       0.000368841047
  3      -0.000469764592
  4      -0.000032490431
  5      -0.000066211476
  6      -0.000025413520
  7      -0.000241414337
  8       0.000331971022
  9      -0.000694717816
 10       0.000011571715
 11      -0.000011376951
 12      -0.000009786666
 13       0.000008349669
 14       0.000024940893
 15      -0.000008693004
 16       0.000044969753
 17       0.000851092338
 18      -0.000002394273
 19      -0.000012211495
 20      -0.000012290025
 21      -0.000014630348
 22       0.000121061074
 23      -0.000443321467
 24       0.000002813144
 25       0.000004478246
 26       0.000004583475
 27       0.000022144636
 28       0.000004434756
 29       0.000035936536
 30       0.000006884033
 31       0.000010845598
 32      -0.000014018912
 33       0.000003666304
 34      -0.000012660992
 35       0.000029168765
 36      -0.000005241239
 37      -0.000006401035
 38       0.000011910100
 39       0.000011892612
 40      -0.000015167869
 41       0.000002318607
 42      -0.000001137075
 43       0.000008823825
 44      -0.000027462367
 45       0.000743789627
 46      -0.004364688485
 47       0.000045100311
 48      -0.000010365165
 49       0.000002741567
 50      -0.000367492701
 51       0.001501422759
 52       0.000854128319
 53       0.000028516678
 54      -0.000018805406
 55      -0.000106887252
 56       0.000099447493
 57      -0.000009438104
 58       0.000049967231
 59       0.000210037013
 60       0.000008215167
 61      -0.000008393335
 62       0.000017852855
 63       0.000191178247
 64       0.000312118783
 65       0.000039384050
 66       0.000018289055
 67       0.000005162338
 68      -0.000777692699
 69       0.007642939796
 70       0.000116657264
 71       0.000731886986
 72       0.000381777915
 73       0.136660748220
 74      -0.516879944876
 75       1.093421277655
 76       0.032379679181
 77      -0.014695218921
 78      -0.000266860109
 79      -0.001270498085
 80      -0.000654018232
 81       0.000625392644
 82       0.002988426746
 83       0.001537315318
 84       0.000268013414
 85       0.001134886972
 86       0.000595995249
 87      -0.000676177772
 88      -0.002876023222
 89      -0.001514206307
 90      -0.000207747089
 91       0.000140621744
 92       0.000704164664
 93      -0.000656571127
 94       0.000274939040
 95      -0.000174345776
 96       0.000130224730
 97       0.000592421192
 98      -0.000544937383
 99       0.000243254846
100       0.000067697163
101      -0.000062752427
102      -0.000238940977
103       0.000211900893
104      -0.000111824254
 Sym=     1a
 Ene= -6.48881638408863E+00
 Spin= Alpha
 Occup= 1.000000
  1       0.000014498956
  2      -0.000212084482
  3       0.000368821064
  4       0.000018292941
  5       0.000037043980
  6       0.000012857619
  7       0.000042176368
  8      -0.000200776183
  9       0.000314525193
 10      -0.000004812502
 11       0.000008343990
 12       0.000006554256
 13      -0.000002401555
 14      -0.000010157464
 15       0.000005153352