[Molden Format]
[Title]
 Molden file created by orca_2mkl for BaseName=radical_003

[Atoms] AU
C    1   6          1.2147858788         0.8107681005         0.3614403587 
C    2   6          1.3201532285         0.1213109692         2.8046389314 
H    3   1          2.9765435383         1.2844506327        -0.6244429934 
H    4   1          3.1131782967         0.0524002160         3.8314499721 
H    5   1         -0.3841680949        -0.4222782019         3.8459460613 
C    6   6         -1.1179525322         0.8294272563        -1.1688674234 
H    7   1         -2.8748195805         0.9330012560        -0.0640711646 
H    8   1         -1.1262522094         2.2022452625        -2.7299853005 
H    9   1         -1.2356371169        -1.0994010907        -2.2020619591 
Br  10  35         -1.8685800985        -4.3763714001        -3.8920402612 
[GTO]
  1 0
s   5 1.0 
     1238.4016938000         0.8208956682
      186.2900499200         1.4766449896
       42.2511763460         2.1526124058
       11.6765579320         2.1081722461
        3.5930506482         0.8290999933
s   1 1.0 
        0.4024514736         0.3601183351
s   1 1.0 
        0.1309018267         0.1551027052
p   3 1.0 
        9.4680970621         1.3467645142
        2.0103545142         1.0678070931
        0.5477100471         0.5108735714
p   1 1.0 
        0.1526861379         0.1360471976
d   1 1.0 
        0.8000000000         1.9292013661

  2 0
s   5 1.0 
     1238.4016938000         0.8208956682
      186.2900499200         1.4766449896
       42.2511763460         2.1526124058
       11.6765579320         2.1081722461
        3.5930506482         0.8290999933
s   1 1.0 
        0.4024514736         0.3601183351
s   1 1.0 
        0.1309018267         0.1551027052
p   3 1.0 
        9.4680970621         1.3467645142
        2.0103545142         1.0678070931
        0.5477100471         0.5108735714
p   1 1.0 
        0.1526861379         0.1360471976
d   1 1.0 
        0.8000000000         1.9292013661

  3 0
s   3 1.0 
       13.0107010000         0.1634903809
        1.9622572000         0.2773515510
        0.4445379600         0.3157501452
s   1 1.0 
        0.1219496200         0.1470772262
p   1 1.0 
        0.8000000000         1.0784563492

  4 0
s   3 1.0 
       13.0107010000         0.1634903809
        1.9622572000         0.2773515510
        0.4445379600         0.3157501452
s   1 1.0 
        0.1219496200         0.1470772262
p   1 1.0 
        0.8000000000         1.0784563492

  5 0
s   3 1.0 
       13.0107010000         0.1634903809
        1.9622572000         0.2773515510
        0.4445379600         0.3157501452
s   1 1.0 
        0.1219496200         0.1470772262
p   1 1.0 
        0.8000000000         1.0784563492

  6 0
s   5 1.0 
     1238.4016938000         0.8208956682
      186.2900499200         1.4766449896
       42.2511763460         2.1526124058
       11.6765579320         2.1081722461
        3.5930506482         0.8290999933
s   1 1.0 
        0.4024514736         0.3601183351
s   1 1.0 
        0.1309018267         0.1551027052
p   3 1.0 
        9.4680970621         1.3467645142
        2.0103545142         1.0678070931
        0.5477100471         0.5108735714
p   1 1.0 
        0.1526861379         0.1360471976
d   1 1.0 
        0.8000000000         1.9292013661

  7 0
s   3 1.0 
       13.0107010000         0.1634903809
        1.9622572000         0.2773515510
        0.4445379600         0.3157501452
s   1 1.0 
        0.1219496200         0.1470772262
p   1 1.0 
        0.8000000000         1.0784563492

  8 0
s   3 1.0 
       13.0107010000         0.1634903809
        1.9622572000         0.2773515510
        0.4445379600         0.3157501452
s   1 1.0 
        0.1219496200         0.1470772262
p   1 1.0 
        0.8000000000         1.0784563492

  9 0
s   3 1.0 
       13.0107010000         0.1634903809
        1.9622572000         0.2773515510
        0.4445379600         0.3157501452
s   1 1.0 
        0.1219496200         0.1470772262
p   1 1.0 
        0.8000000000         1.0784563492

 10 0
s   6 1.0 
   113286.3877600000         7.5076141183
    17009.6263030000        13.8835270484
     3870.1842567000        22.7307285566
     1093.0357227000        30.8227297499
      356.3972179700        27.2481937511
      123.1253964300         9.6953381145
s   3 1.0 
      236.7408400700        -4.7631125758
       28.4686610700         5.6113863182
       11.8834437220         1.9900291396
s   3 1.0 
       21.2696333120        -1.5429794477
        3.6129226841         1.3310800628
        1.6626648969         0.4300130345
s   1 1.0 
        0.3482379323         0.3230852630
s   1 1.0 
        0.1301903139         0.1544699827
p   5 1.0 
     1560.2801881000       115.0180051576
      368.4785920500       143.9035925417
      117.2297884900       137.5255986684
       42.6489092480        78.9578527439
       16.0872250960        15.8580577654
p   3 1.0 
        8.6352810058         6.8437546680
        3.5613665502         3.7974971038
        1.5292626609         0.5585414278
p   1 1.0 
        0.5306429485         0.6455696201
p   1 1.0 
        0.1570275896         0.1408996918
d   4 1.0 
      104.8551864200       261.4493931636
       30.2811436880       176.6993802449
       10.6513942670        76.9545600188
        3.8699456233        17.5937671387
d   1 1.0 
        1.3240876762         4.6593398042
d   1 1.0 
        0.3890000000         0.5462379705

[5D]
[7F]
[9G]
[MO]
 Sym=     1a
 Ene= -4.82767153739946E+02
 Spin= Alpha
 Occup= 1.000000
  1      -0.000005708360
  2       0.000078222116
  3      -0.000223891210
  4      -0.000008833918
  5      -0.000015261508
  6      -0.000005577920
  7       0.000014776126
  8       0.000065083150
  9      -0.000139814372
 10       0.000001587684
 11      -0.000001964765
 12      -0.000000911413
 13       0.000000946205
 14       0.000005716614
 15      -0.000001388328
 16       0.000008378204
 17       0.000215823722
 18      -0.000000162966
 19      -0.000002964519
 20      -0.000002761721
 21      -0.000020720248
 22       0.000027305875
 23      -0.000102966877
 24       0.000000109544
 25       0.000002094784
 26       0.000001388477
 27       0.000004360624
 28       0.000000922438
 29       0.000003025469
 30      -0.000005972236
 31       0.000001891174
 32      -0.000002228849
 33      -0.000000860095
 34      -0.000001254739
 35       0.000007929631
 36      -0.000000979950
 37      -0.000002033998
 38       0.000003396147
 39      -0.000000216167
 40      -0.000009456579
 41       0.000000716131
 42      -0.000000345038
 43       0.000001815790
 44      -0.000008226423
 45       0.000155714876
 46      -0.001059153499
 47       0.000008901379
 48      -0.000014179367
 49      -0.000007400002
 50      -0.000038876742
 51       0.000381557247
 52       0.000264573577
 53       0.000003828299
 54      -0.000005239689
 55      -0.000012179220
 56       0.000012998110
 57      -0.000005322981
 58       0.000010285838
 59      -0.000007497325
 60      -0.000006096602
 61      -0.000003548385
 62       0.000003198189
 63       0.000044224264
 64       0.000033434816
 65       0.000005864250
 66      -0.000001479313
 67      -0.000007574956
 68      -0.000007487228
 69       0.001464104566
 70      -0.000007805017
 71      -0.000004377830
 72      -0.000002530831
 73       0.994982757494
 74       0.015687129791
 75      -0.003907376075
 76       0.002333474693
 77      -0.001679135831
 78       0.000001684578
 79       0.000007451438
 80       0.000003759080
 81      -0.000005748087
 82      -0.000025058251
 83      -0.000012680069
 84       0.000027841593
 85       0.000123389765
 86       0.000062675684
 87      -0.000092126135
 88      -0.000434575004
 89      -0.000222508263
 90       0.000003256012
 91      -0.000002404409
 92      -0.000011151366
 93       0.000010365908
 94      -0.000004791030
 95      -0.000012587655
 96       0.000009244793
 97       0.000043122599
 98      -0.000040112190
 99       0.000018394984
100       0.000030150548
101      -0.000022000836
102      -0.000103791006
103       0.000096561080
104      -0.000043514766
 Sym=     1a
 Ene= -6.24500717021294E+01
 Spin= Alpha
 Occup= 1.000000
  1      -0.000013616997
  2       0.000188770299
  3      -0.000530681539
  4      -0.000021236865
  5      -0.000036601069
  6      -0.000013488336
  7       0.000029839006
  8       0.000156820776
  9      -0.000339819910
 10       0.000004006068
 11      -0.000004541721
 12      -0.000002355753
 13       0.000002506340
 14       0.000013699091
 15      -0.000003344525
 16       0.000020725959
 17       0.000518666609
 18      -0.000000581512
 19      -0.000007153236
 20      -0.000006715036
 21      -0.000047017323
 22       0.000066377709
 23      -0.000247885412
 24       0.000000261228
 25       0.000004994493
 26       0.000003279682
 27       0.000010328972
 28       0.000002168674
 29       0.000007950203
 30      -0.000014651694
 31       0.000004613754
 32      -0.000005169239
 33      -0.000001832299
 34      -0.000003335251
 35       0.000018514009
 36      -0.000002343165
 37      -0.000004841709
 38       0.000008008553
 39       0.000000160482
 40      -0.000021607602
 41       0.000001685970
 42      -0.000000777853
 43       0.000004211896
 44      -0.000018917432
 45       0.000372760033
 46      -0.002605717649
 47       0.000021949247
 48      -0.000028693346
 49      -0.000015178368
 50      -0.000099138591
 51       0.000935416982
 52       0.000644602558
 53       0.000009910448
 54      -0.000012822899
 55      -0.000032714290
 56       0.000034225006
 57      -0.000012608318
 58       0.000024016501
 59      -0.000016913295
 60      -0.000014475688
 61      -0.000008364458
 62       0.000008054884
 63       0.000106744708
 64       0.000082290831
 65       0.000014583490
 66      -0.000003203924
 67      -0.000018114798
 68      -0.000017045787
 69       0.003605568291
 70      -0.000016894005
 71       0.000001860309
 72       0.000000383165
 73       0.347189645499
 74      -1.046963815111
 75      -0.018551282989
 76       0.006313503905
 77      -0.004277907123
 78      -0.000010453017
 79      -0.000082035468
 80      -0.000038120674
 81      -0.000015375151
 82      -0.000069587299
 83      -0.000034931638
 84       0.000068814328
 85       0.000305999595
 86       0.000155283911
 87      -0.000226751684
 88      -0.001070493636
 89      -0.000547985920
 90       0.000022229536
 91      -0.000011542238
 92      -0.000070687389
 93       0.000069213402
 94      -0.000023504772
 95      -0.000035022653
 96       0.000023920568
 97       0.000117874707
 98      -0.000110959619
 99       0.000047947725
100       0.000074651691
101      -0.000053827588
102      -0.000256075568
103       0.000238726234
104      -0.000106780476
 Sym=     1a
 Ene= -5.62835815162520E+01
 Spin= Alpha
 Occup= 1.000000
  1       0.000015932559
  2      -0.000233026927
  3       0.000675557630
  4       0.000025164916
  5       0.000043727920
  6       0.000015845069
  7      -0.000090296615
  8      -0.000213683483
  9       0.000323713928
 10      -0.000003596089
 11       0.000006893658
 12       0.000007570263
 13      -0.000003487594
 14      -0.000009832866
 15       0.000004644663
 16      -0.000033777002
 17      -0.000550218575
 18       0.000002531579
 19       0.000010629639
 20       0.000010567639
 21       0.000052392831
 22      -0.000063354427
 23       0.000253280639
 24       0.000001063940
 25      -0.000007820913
 26      -0.000006194617
 27      -0.000011555352
 28      -0.000000326751
 29      -0.000013573158
 30       0.000026289019
 31      -0.000004319438
 32       0.000007851126
 33       0.000007469746
 34       0.000006401366
 35      -0.000017584660
 36       0.000000504382
 37       0.000005570301
 38      -0.000008924337
 39      -0.000005071329
 40       0.000031157711
 41      -0.000000037393
 42      -0.000000403936
 43      -0.000002462729
 44       0.000014204842
 45      -0.000346793313
 46       0.002877305842
 47      -0.000028750778
 48       0.000001027815
 49       0.000002476914
 50       0.000107413225
 51      -0.001064501579
 52      -0.000769283763
 53      -0.000013268284
 54       0.000017221799
 55       0.000046563813
 56      -0.000049366150
 57       0.000014022105
 58      -0.000003745277
 59       0.000071301786
 60       0.000017821928
 61      -0.000005644048
 62      -0.000017881466
 63      -0.000110160422
 64      -0.000055506992
 65      -0.000019802080
 66      -0.000011606270
 67       0.000013498291
 68      -0.000077823116
 69      -0.004474236686
 70       0.000026800477
 71       0.000012827693
 72       0.000009259298
 73       0.000049853081
 74      -0.000143016029
 75       0.000159982158
 76      -0.001032238348
 77       0.002160735473
 78       0.119570881359
 79       0.883983669724
 80       0.431060497149
 81       0.002880481159
 82       0.021240639347
 83       0.010359176747
 84      -0.000784871322
 85      -0.005544556068
 86      -0.002712635847
 87       0.000551485543
 88       0.003308078865
 89       0.001648479987
 90      -0.000012974895
 91       0.000008635370
 92       0.000043653567
 93      -0.000041283726
 94       0.000017379490
 95       0.000043101669
 96      -0.000030501655
 97      -0.000148413139
 98       0.000138653066
 99      -0.000061028282
100      -0.000101617651
101       0.000072490323
102       0.000352229223
103      -0.000328335046
104       0.000143832421
 Sym=     1a
 Ene= -5.62793728038028E+01
 Spin= Alpha
 Occup= 1.000000
  1      -0.000006116842
  2       0.000055737141
  3      -0.000182260910
  4      -0.000013035464
  5      -0.000023333460
  6      -0.000003469984
  7      -0.000002242494
  8       0.000196793223
  9      -0.000286630710
 10      -0.000006658158
 11       0.000002232271
 12       0.000002820772
 13      -0.000002231763
 14      -0.000010492034
 15      -0.000001275296
 16       0.000008081032
 17       0.000381049737
 18      -0.000004828594
 19       0.000002649265
 20      -0.000005350922
 21       0.000015650418
 22       0.000002562275
 23      -0.000164664711
 24       0.000003833099
 25       0.000002860113
 26       0.000003968321
 27       0.000004916719
 28      -0.000001105837
 29      -0.000016038654
 30      -0.000057262980
 31       0.000008392537
 32      -0.000017390368
 33       0.000001659334
 34      -0.000011044610
 35      -0.000020192335
 36      -0.000001273331
 37       0.000002375999
 38       0.000007994045
 39       0.000001372399
 40      -0.000017323029
 41       0.000002649262
 42       0.000003343516
 43       0.000007968135
 44       0.000003409163
 45      -0.000072033539
 46       0.000396834426
 47       0.000041302643
 48       0.000023698231
 49       0.000008931319
 50      -0.000303001059
 51      -0.000330778868
 52      -0.000061369246
 53      -0.000001370688
 54      -0.000025249062
 55       0.000016204914
 56      -0.000005151900
 57      -0.000018032052
 58      -0.000121150150
 59      -0.000028101854
 60       0.000011246364
 61       0.000016695219
 62       0.000017597132
 63       0.000014876042
 64       0.000039540441
 65       0.000031452745
 66       0.000005982288
 67       0.000010669319
 68      -0.000024623886
 69      -0.000622067801
 70      -0.000052323909
 71       0.000001966276
 72       0.000002014587
 73       0.000001265011
 74      -0.000003106063
 75       0.000012999250
 76      -0.000095021575
 77       0.000234933724
 78       0.978790775314
 79      -0.064385010616
 80      -0.139478441442
 81       0.023376059184
 82      -0.001531294861
 83      -0.003327551955
 84      -0.005666516755
 85       0.000339194703
 86       0.000789259959
 87       0.002123289868
 88       0.000007800828
 89      -0.000223775959
 90      -0.000002236299
 91       0.000005244064
 92       0.000001270308
 93      -0.000000757465
 94       0.000011096963
 95       0.000005510254
 96      -0.000008664483
 97      -0.000009715155
 98       0.000008714068
 99      -0.000017245048
100      -0.000012605517
101       0.000016440335
102       0.000028075655
103      -0.000025771096
104       0.000032062914
 Sym=     1a
 Ene= -5.62793613966537E+01
 Spin= Alpha
 Occup= 1.000000
  1       0.000006050961
  2      -0.000049981424
  3      -0.000077923484
  4       0.000008873418
  5       0.000016039135
  6       0.000024700987
  7       0.000104155104
  8       0.000018599840
  9      -0.000207797924
 10       0.000005315430
 11      -0.000001790569
 12      -0.000002626627
 13      -0.000001600169
 14       0.000000343003
 15      -0.000001435312
 16       0.000028426902
 17       0.000151350801
 18      -0.000009002781
 19       0.000007389207
 20      -0.000007349625
 21       0.000065513002
 22       0.000022819275
 23      -0.000014596537
 24      -0.000004201893
 25       0.000003643970
 26      -0.000001742600
 27      -0.000002735023
 28      -0.000002607953
 29      -0.000035049121
 30      -0.000083410040
 31       0.000005484878
 32       0.000007364022
 33       0.000007033371
 34      -0.000017892657
 35      -0.000054139163
 36       0.000003932154
 37      -0.000000375378
 38       0.000003670769
 39       0.000009699439
 40       0.000008097400
 41       0.000000787270
 42       0.000001393063
 43      -0.000001529876
 44       0.000003117230
 45      -0.000028641807
 46      -0.000018561237
 47      -0.000008303805
 48       0.000016543725
 49      -0.000043423879
 50      -0.000035960814
 51      -0.000095408559
 52       0.000351774445
 53       0.000006630559
 54      -0.000001978910
 55       0.000028387776
 56       0.000028839421
 57       0.000001405469
 58      -0.000074041011
 59      -0.000051918957
 60      -0.000019706590
 61       0.000014929783
 62      -0.000024154950
 63       0.000123266040
 64       0.000073244049
 65      -0.000002622437
 66      -0.000016854530
 67       0.000000669251
 68       0.000013032227
 69       0.000091703216
 70       0.000007005115
 71      -0.000024853512
 72       0.000046841617
 73       0.000000244112
 74      -0.000000933921
 75      -0.000003436726
 76       0.000021208992
 77      -0.000043013153
 78      -0.096436943479
 79       0.442702539996
 80      -0.881105190409
 81      -0.002303461763
 82       0.010570003214
 83      -0.021041702431
 84       0.000559491673
 85      -0.002549145688
 86       0.005095597272
 87      -0.000211523224
 88       0.000915965432
 89      -0.001893144746
 90      -0.000007017976
 91      -0.000001902573
 92      -0.000007267406
 93      -0.000003856643
 94      -0.000000477624
 95       0.000007917289
 96       0.000002730938
 97       0.000010238067
 98       0.000002776901
 99       0.000001013824
100      -0.000011523070
101      -0.000004603231
102      -0.000017713315
103      -0.000002018084
104      -0.000002295290
 Sym=     1a
 Ene= -1.02174702420190E+01
 Spin= Alpha
 Occup= 1.000000
  1       0.092908844581
  2       0.003331903624
  3       0.001792335109
  4       0.001317686634
  5      -0.000351327453
  6       0.000936716458
  7       0.000649347309
  8       0.001629730448
  9      -0.005319204149
 10       0.000074417122
 11      -0.001323556407
 12       0.000059211529
 13      -0.000938807045
 14       0.000151439820
 15       0.006988766959
 16      -0.000360804360
 17       0.006523829337
 18       0.000271042892
 19      -0.000047287093
 20       0.000166014431
 21      -0.004672634081
 22       0.000254641741
 23      -0.003318161808
 24       0.000076915318
 25      -0.000049514606
 26      -0.000067453444
 27       0.000210815828
 28       0.000125232686
 29      -0.000875345375
 30      -0.000793477928
 31      -0.000072031278
 32      -0.000024345951
 33      -0.000249835382
 34       0.000753553878
 35       0.001833691380
 36      -0.000064524685
 37       0.000005014847
 38      -0.000034185450
 39      -0.000903916068
 40      -0.001817957411
 41      -0.000005311468
 42      -0.000063497641
 43       0.000122524924
 44       0.983358010857
 45       0.053348936324
 46      -0.054762609906
 47      -0.000799854542
 48      -0.000737134262
 49      -0.000907171306
 50      -0.001891566623
 51       0.006463369895
 52       0.003247207120
 53       0.000235715185
 54      -0.000558272311
 55      -0.000470932446
 56      -0.000010409954
 57      -0.000122393957
 58      -0.002796771900
 59       0.007377449070
 60      -0.002205150313
 61      -0.000071678176
 62       0.001620961994
 63      -0.002644418007
 64       0.008039826123
 65       0.000257558544
 66       0.001715318946
 67      -0.002176538991
 68      -0.002376091227
 69       0.023976429812
 70       0.000052813097
 71      -0.002262578753
 72      -0.000989426516
 73      -0.000011484618
 74       0.000020686499
 75      -0.000199333219
 76       0.002116884702
 77      -0.006913260769
 78       0.000004959706
 79       0.000017682391
 80       0.000002959049
 81      -0.000017928810
 82      -0.000064299041
 83      -0.000012114720
 84       0.000133514377
 85       0.000512959368
 86       0.000171703530
 87      -0.000873503281
 88      -0.004000888183
 89      -0.001888359188
 90       0.000021356069
 91      -0.000013565743
 92      -0.000050223695
 93       0.000051314575
 94      -0.000030380277
 95      -0.000099332040
 96       0.000063318150
 97       0.000237776787
 98      -0.000241911179
 99       0.000141048577
100       0.000289202298
101      -0.000187635721
102      -0.000760086095
103       0.000756186614
104      -0.000405941471
 Sym=     1a
 Ene= -1.02164856435682E+01
 Spin= Alpha
 Occup= 1.000000
  1       0.982407831427
  2       0.047496183621
  3      -0.042120916692
  4       0.000467519820
  5      -0.000244813441
  6      -0.000344740336
  7       0.004401984808
  8       0.001985503848
  9      -0.004266612455
 10       0.001028091888
 11      -0.000253901447
 12      -0.000952801603
 13       0.001645055718
 14       0.000705847805
 15       0.054023159997
 16      -0.002142929231
 17       0.016436128367
 18       0.000141918815
 19      -0.000781615911
 20       0.002624166642
 21      -0.002440358002
 22       0.001088936266
 23      -0.004849469834
 24      -0.001052714256
 25      -0.000044296030
 26       0.000702659144
 27      -0.000282334961
 28      -0.000083760442
 29      -0.004671352897
 30       0.006265233896
 31       0.002553233790
 32       0.000601100709
 33      -0.001324765791
 34       0.000299345288
 35      -0.000003956745
 36      -0.000175692980
 37       0.000082075975
 38      -0.000385267312
 39      -0.000296340437
 40      -0.001387766942
 41       0.000134375836
 42       0.000139607833
 43      -0.000428455126
 44      -0.092469922212
 45      -0.005471281360
 46       0.004764898653
 47      -0.001594594610
 48      -0.000334659746
 49      -0.001236112269
 50       0.001321657292
 51       0.004075149739
 52       0.005745262827
 53       0.000175021515
 54      -0.001196764416
 55      -0.000064648966
 56      -0.001022329325
 57      -0.000103877855
 58       0.000288333009
 59      -0.001742502690
 60       0.000503607106
 61      -0.000192261306
 62      -0.000023656189
 63       0.000836673534
 64      -0.000390807320
 65       0.000300928087
 66      -0.000433772305
 67       0.000155188066
 68       0.000355979771
 69       0.011106707513
 70       0.000527906982
 71       0.000450655696
 72       0.000477996581
 73      -0.000008220344
 74       0.000015191816
 75      -0.000141284702
 76       0.001400270982
 77      -0.004006495303
 78      -0.000007545722
 79       0.000023272364
 80       0.000002158934
 81       0.000025178755
 82      -0.000081143069
 83      -0.000008449481
 84      -0.000071806417
 85       0.000487496039
 86       0.000115636607
 87      -0.000244650536
 88      -0.002583223758
 89      -0.001122564595
 90       0.000012139624
 91       0.000000355901
 92      -0.000035170571
 93       0.000038696516
 94      -0.000011291572
 95      -0.000057116352
 96       0.000001154619
 97       0.000168322457
 98      -0.000182768939
 99       0.000054866344
100       0.000171225381
101      -0.000038763195
102      -0.000539598228
103       0.000556258795
104      -0.000186425970
 Sym=     1a
 Ene= -1.02105989117183E+01
 Spin= Alpha
 Occup= 1.000000
  1      -0.053521491255
  2      -0.006900561566
  3       0.011869214910
  4      -0.000395686884
  5       0.000712924582
  6      -0.002674265477
  7      -0.000687723072
  8       0.000363981330
  9      -0.002045476923
 10      -0.001333143396
 11       0.000002110120
 12       0.000862741444
 13      -0.000407081604
 14      -0.000136641687
 15       0.986641137633
 16       0.048476840829
 17      -0.030473160291
 18      -0.000043646080
 19      -0.000135699778
 20       0.000300133276
 21       0.000940181055
 22       0.000233188786
 23       0.000127446431
 24       0.001116935719
 25       0.000209649488
 26      -0.001300304047
 27       0.002112720889
 28       0.000561290541
 29       0.000273033292
 30      -0.001579189993
 31      -0.000273514946
 32      -0.000265952701
 33       0.000834080032
 34      -0.004635871769
 35       0.006845105105
 36       0.002699359117
 37      -0.000084946719
 38       0.001408453059
 39      -0.004201162554
 40       0.007430733444
 41      -0.002561716180
 42      -0.000779789901
 43       0.001391606505
 44      -0.001995383478
 45       0.000265250926
 46      -0.004809988757
 47       0.000277582586
 48      -0.000003600787
 49       0.000005404849
 50      -0.002671494734
 51      -0.000173877084
 52       0.002125973913
 53       0.000197201390
 54       0.000199858228
 55      -0.000077094079
 56       0.000175109543
 57      -0.000068789360
 58      -0.000431285072
 59      -0.001116142113
 60       0.000005387067
 61       0.000098396348
 62       0.000050829167
 63       0.000623632280
 64       0.000928487082
 65       0.000062639343
 66      -0.000107338390
 67      -0.000153410521
 68      -0.000049251297
 69       0.002379366526
 70       0.000059693368
 71       0.000179943897
 72      -0.000210616001
 73      -0.000002503533
 74       0.000004824772
 75      -0.000042329983
 76       0.000343354962
 77      -0.000873741533
 78       0.000000307192
 79       0.000005906544
 80       0.000004664434
 81      -0.000001149597
 82      -0.000020455793
 83      -0.000016162245
 84       0.000010961599
 85       0.000111505051
 86       0.000086385382
 87      -0.000085969590
 88      -0.000520288262
 89      -0.000335691345
 90      -0.000000143397
 91      -0.000002059298
 92      -0.000010883240
 93       0.000005166611
 94      -0.000002001449
 95       0.000000337875
 96       0.000009596049
 97       0.000050534922
 98      -0.000024816414
 99       0.000009543268
100       0.000004763134
101      -0.000027434219
102      -0.000142181617
103       0.000081297532
104      -0.000030920935
 Sym=     1a
 Ene= -8.66823745864180E+00
 Spin= Alpha
 Occup= 1.000000
  1      -0.000034115179
  2       0.000411785321
  3      -0.001020486260
  4      -0.000044258032
  5      -0.000074568501
  6      -0.000028620274
  7      -0.000033879289
  8       0.000340190747
  9      -0.000799541606
 10       0.000011176645
 11      -0.000007592724
 12      -0.000007438766
 13       0.000008669746
 14       0.000028957108
 15      -0.000009723947
 16       0.000052417136
 17       0.001122128670
 18      -0.000003862840
 19      -0.000015081250
 20      -0.000015238460
 21      -0.000054110231
 22       0.000155807405
 23      -0.000543309116
 24       0.000000464244
 25       0.000009549496
 26       0.000005786857
 27       0.000020372104
 28       0.000004206893
 29       0.000024338431
 30      -0.000030328741
 31       0.000011359837
 32      -0.000008147799
 33       0.000001048172
 34      -0.000012215877
 35       0.000028486423
 36      -0.000005084985
 37      -0.000009816866
 38       0.000015527399
 39       0.000009285028
 40      -0.000025536859
 41       0.000003670797
 42      -0.000000950716
 43       0.000007500305
 44      -0.000033791639
 45       0.000771008360
 46      -0.006562960697
 47       0.000054439318
 48       0.000026463662
 49       0.000009758289
 50      -0.000303094652
 51       0.002290559832
 52       0.001519455977
 53       0.000032564884
 54      -0.000030563980
 55      -0.000124283940
 56       0.000120890804
 57      -0.000024223416
 58       0.000038397027
 59      -0.000009113972
 60      -0.000028484122
 61      -0.000015608379
 62       0.000021939486
 63       0.000235051185
 64       0.000216561337
 65       0.000038085325
 66      -0.000002548085
 67      -0.000037410752
 68      -0.000048500861
 69       0.009137765767
 70      -0.000003130749
 71       0.000220170371
 72       0.000113032467
 73       0.136666690575
 74      -0.516894545225
 75       1.093498962027
 76       0.032284913114
 77      -0.013739962644
 78      -0.000042589543
 79      -0.000300160471
 80      -0.000139962924
 81       0.000091906923
 82       0.000677272682
 83       0.000313842240
 84       0.000181831338
 85       0.000827681350
 86       0.000418672928
 87      -0.000570176044
 88      -0.002706661243
 89      -0.001384768816
 90      -0.000331936874
 91       0.000127541205
 92       0.000991171245
 93      -0.001010258132
 94       0.000265616297
 95      -0.000287455327
 96       0.000131310296
 97       0.000877767863
 98      -0.000878838926
 99       0.000270584233
100       0.000183021456
101      -0.000125441713
102      -0.000615685255
103       0.000579538178
104      -0.000250644933
 Sym=     1a
 Ene= -6.50536687303845E+00
 Spin= Alpha
 Occup= 1.000000
  1      -0.000018318065
  2       0.000254973016
  3      -0.000694792297
  4      -0.000027567438
  5      -0.000046714594
  6      -0.000018621169
  7       0.000077336620
  8       0.000236527815
  9      -0.000356585303
 10       0.000004549402
 11      -0.000006069654
 12      -0.000007596481
 13       0.000004279855
 14       0.000010351608
 15      -0.000005699793