[Molden Format]
[Title]
 Molden file created by orca_2mkl for BaseName=radical_036

[Atoms] AU
C    1   6          1.1716037469         0.9452277841         0.3655297261 
C    2   6          1.3262740515         0.0936378197         2.8365866414 
H    3   1          2.9428005885         1.3758207810        -0.6221545351 
H    4   1          3.1425786559        -0.0972207404         3.7980433935 
H    5   1         -0.3781871117        -0.4006068226         3.8986939869 
C    6   6         -1.0758702209         1.2693063674        -0.9702250814 
H    7   1         -2.9046545767         0.9048594544        -0.0749333104 
H    8   1         -1.0907121300         2.0574468872        -2.8782173081 
H    9   1         -1.2852310896        -2.0683940707        -2.5997907287 
Br  10  35         -1.8658494442        -4.4156285708        -3.9155352262 
[GTO]
  1 0
s   5 1.0 
     1238.4016938000         0.8208956682
      186.2900499200         1.4766449896
       42.2511763460         2.1526124058
       11.6765579320         2.1081722461
        3.5930506482         0.8290999933
s   1 1.0 
        0.4024514736         0.3601183351
s   1 1.0 
        0.1309018267         0.1551027052
p   3 1.0 
        9.4680970621         1.3467645142
        2.0103545142         1.0678070931
        0.5477100471         0.5108735714
p   1 1.0 
        0.1526861379         0.1360471976
d   1 1.0 
        0.8000000000         1.9292013661

  2 0
s   5 1.0 
     1238.4016938000         0.8208956682
      186.2900499200         1.4766449896
       42.2511763460         2.1526124058
       11.6765579320         2.1081722461
        3.5930506482         0.8290999933
s   1 1.0 
        0.4024514736         0.3601183351
s   1 1.0 
        0.1309018267         0.1551027052
p   3 1.0 
        9.4680970621         1.3467645142
        2.0103545142         1.0678070931
        0.5477100471         0.5108735714
p   1 1.0 
        0.1526861379         0.1360471976
d   1 1.0 
        0.8000000000         1.9292013661

  3 0
s   3 1.0 
       13.0107010000         0.1634903809
        1.9622572000         0.2773515510
        0.4445379600         0.3157501452
s   1 1.0 
        0.1219496200         0.1470772262
p   1 1.0 
        0.8000000000         1.0784563492

  4 0
s   3 1.0 
       13.0107010000         0.1634903809
        1.9622572000         0.2773515510
        0.4445379600         0.3157501452
s   1 1.0 
        0.1219496200         0.1470772262
p   1 1.0 
        0.8000000000         1.0784563492

  5 0
s   3 1.0 
       13.0107010000         0.1634903809
        1.9622572000         0.2773515510
        0.4445379600         0.3157501452
s   1 1.0 
        0.1219496200         0.1470772262
p   1 1.0 
        0.8000000000         1.0784563492

  6 0
s   5 1.0 
     1238.4016938000         0.8208956682
      186.2900499200         1.4766449896
       42.2511763460         2.1526124058
       11.6765579320         2.1081722461
        3.5930506482         0.8290999933
s   1 1.0 
        0.4024514736         0.3601183351
s   1 1.0 
        0.1309018267         0.1551027052
p   3 1.0 
        9.4680970621         1.3467645142
        2.0103545142         1.0678070931
        0.5477100471         0.5108735714
p   1 1.0 
        0.1526861379         0.1360471976
d   1 1.0 
        0.8000000000         1.9292013661

  7 0
s   3 1.0 
       13.0107010000         0.1634903809
        1.9622572000         0.2773515510
        0.4445379600         0.3157501452
s   1 1.0 
        0.1219496200         0.1470772262
p   1 1.0 
        0.8000000000         1.0784563492

  8 0
s   3 1.0 
       13.0107010000         0.1634903809
        1.9622572000         0.2773515510
        0.4445379600         0.3157501452
s   1 1.0 
        0.1219496200         0.1470772262
p   1 1.0 
        0.8000000000         1.0784563492

  9 0
s   3 1.0 
       13.0107010000         0.1634903809
        1.9622572000         0.2773515510
        0.4445379600         0.3157501452
s   1 1.0 
        0.1219496200         0.1470772262
p   1 1.0 
        0.8000000000         1.0784563492

 10 0
s   6 1.0 
   113286.3877600000         7.5076141183
    17009.6263030000        13.8835270484
     3870.1842567000        22.7307285566
     1093.0357227000        30.8227297499
      356.3972179700        27.2481937511
      123.1253964300         9.6953381145
s   3 1.0 
      236.7408400700        -4.7631125758
       28.4686610700         5.6113863182
       11.8834437220         1.9900291396
s   3 1.0 
       21.2696333120        -1.5429794477
        3.6129226841         1.3310800628
        1.6626648969         0.4300130345
s   1 1.0 
        0.3482379323         0.3230852630
s   1 1.0 
        0.1301903139         0.1544699827
p   5 1.0 
     1560.2801881000       115.0180051576
      368.4785920500       143.9035925417
      117.2297884900       137.5255986684
       42.6489092480        78.9578527439
       16.0872250960        15.8580577654
p   3 1.0 
        8.6352810058         6.8437546680
        3.5613665502         3.7974971038
        1.5292626609         0.5585414278
p   1 1.0 
        0.5306429485         0.6455696201
p   1 1.0 
        0.1570275896         0.1408996918
d   4 1.0 
      104.8551864200       261.4493931636
       30.2811436880       176.6993802449
       10.6513942670        76.9545600188
        3.8699456233        17.5937671387
d   1 1.0 
        1.3240876762         4.6593398042
d   1 1.0 
        0.3890000000         0.5462379705

[5D]
[7F]
[9G]
[MO]
 Sym=     1a
 Ene= -4.82768235032681E+02
 Spin= Alpha
 Occup= 1.000000
  1       0.000005656244
  2      -0.000068008004
  3       0.000075226926
  4       0.000007639356
  5       0.000016632847
  6       0.000006969880
  7       0.000054946940
  8      -0.000065620326
  9       0.000144268435
 10      -0.000001708251
 11       0.000001501373
 12      -0.000001836017
 13      -0.000000572905
 14      -0.000007250618
 15       0.000001099845
 16      -0.000003892402
 17      -0.000175889623
 18      -0.000000986893
 19       0.000002785735
 20       0.000001817796
 21       0.000017049183
 22      -0.000030688264
 23       0.000095341554
 24      -0.000001748746
 25       0.000000110347
 26      -0.000000319122
 27      -0.000005034955
 28      -0.000001506405
 29      -0.000005016957
 30      -0.000003387055
 31      -0.000002419437
 32       0.000004933249
 33      -0.000001192317
 34      -0.000000331425
 35      -0.000012530826
 36       0.000002140923
 37       0.000001657638
 38      -0.000002457117
 39       0.000001430059
 40       0.000005611134
 41      -0.000000984485
 42       0.000001466541
 43      -0.000003114289
 44       0.000008177305
 45      -0.000146602996
 46       0.000605554761
 47      -0.000008176383
 48       0.000023407405
 49       0.000006014704
 50       0.000073336489
 51      -0.000203373712
 52      -0.000097812326
 53      -0.000001447381
 54       0.000002297146
 55       0.000008807724
 56      -0.000006030781
 57       0.000003116384
 58      -0.000026061039
 59      -0.000039543662
 60      -0.000004489644
 61       0.000008351334
 62      -0.000000051314
 63      -0.000042078248
 64      -0.000063902328
 65      -0.000006575726
 66       0.000005387876
 67      -0.000000594190
 68       0.000135202186
 69      -0.000894672882
 70      -0.000028009279
 71      -0.000146547142
 72      -0.000079037129
 73      -0.994982004271
 74      -0.015688813098
 75       0.003922569030
 76      -0.002316780193
 77       0.001668440225
 78      -0.000003345588
 79      -0.000012385142
 80      -0.000007022687
 81       0.000010777788
 82       0.000039449330
 83       0.000022428301
 84      -0.000040907602
 85      -0.000149606044
 86      -0.000085047377
 87       0.000093407232
 88       0.000353649732
 89       0.000199964430
 90      -0.000001331873
 91       0.000001667468
 92       0.000006200620
 93      -0.000005076436
 94       0.000002961215
 95       0.000003912806
 96      -0.000004940276
 97      -0.000018257089
 98       0.000014930081
 99      -0.000008808342
100      -0.000001688344
101       0.000002731406
102       0.000008626537
103      -0.000006746347
104       0.000004993091
 Sym=     1a
 Ene= -6.24513169138572E+01
 Spin= Alpha
 Occup= 1.000000
  1       0.000013544089
  2      -0.000164984106
  3       0.000179859970
  4       0.000018512967
  5       0.000039878755
  6       0.000016970519
  7       0.000133349821
  8      -0.000158940359
  9       0.000343622574
 10      -0.000004094849
 11       0.000003479633
 12      -0.000003983070
 13      -0.000001673439
 14      -0.000016970720
 15       0.000002635861
 16      -0.000009724162
 17      -0.000419829146
 18      -0.000002259888
 19       0.000006782045
 20       0.000004469804
 21       0.000039787143
 22      -0.000073118339
 23       0.000227577309
 24      -0.000004113583
 25       0.000000162619
 26      -0.000000850304
 27      -0.000011873121
 28      -0.000003452780
 29      -0.000012726168
 30      -0.000008922064
 31      -0.000005688351
 32       0.000011770642
 33      -0.000002674920
 34      -0.000000636353
 35      -0.000029748044
 36       0.000005002353
 37       0.000003902319
 38      -0.000005764256
 39       0.000002936359
 40       0.000013554177
 41      -0.000002305690
 42       0.000003403369
 43      -0.000007308685
 44       0.000019444801
 45      -0.000353549873
 46       0.001472137531
 47      -0.000019674537
 48       0.000055252742
 49       0.000014060357
 50       0.000175554060
 51      -0.000493408400
 52      -0.000236564205
 53      -0.000003559530
 54       0.000005604828
 55       0.000021053300
 56      -0.000014423003
 57       0.000007258478
 58      -0.000061873148
 59      -0.000098841208
 60      -0.000011062037
 61       0.000019083484
 62      -0.000000369928
 63      -0.000100249435
 64      -0.000156028891
 65      -0.000015748648
 66       0.000012079484
 67      -0.000002105428
 68       0.000352665530
 69      -0.002213377592
 70      -0.000070326613
 71      -0.000364162243
 72      -0.000196800331
 73      -0.347186628136
 74       1.046958267124
 75       0.018587834831
 76      -0.006272850725
 77       0.004254201078
 78       0.000086626873
 79       0.000367598834
 80       0.000202473503
 81       0.000036619423
 82       0.000139112403
 83       0.000078562415
 84      -0.000104040571
 85      -0.000383862090
 86      -0.000218044804
 87       0.000230415581
 88       0.000874783824
 89       0.000494596643
 90      -0.000010509876
 91       0.000010837640
 92       0.000045605360
 93      -0.000038710621
 94       0.000019810662
 95       0.000011266577
 96      -0.000013590359
 97      -0.000051515266
 98       0.000042559522
 99      -0.000023893304
100      -0.000003375749
101       0.000005925725
102       0.000017847016
103      -0.000013780223
104       0.000010248779
 Sym=     1a
 Ene= -5.62830777349273E+01
 Spin= Alpha
 Occup= 1.000000
  1       0.000015323586
  2      -0.000180989588
  3       0.000083070457
  4       0.000022208652
  5       0.000045003782
  6       0.000020185238
  7       0.000187519082
  8      -0.000182545083
  9       0.000417215826
 10      -0.000005751777
 11       0.000002227208
 12      -0.000004460582
 13      -0.000003728216
 14      -0.000020578304
 15       0.000003044575
 16      -0.000013574464
 17      -0.000456101875
 18      -0.000003324132
 19       0.000008015229
 20       0.000004660210
 21       0.000046102153
 22      -0.000084130338
 23       0.000253884632
 24      -0.000004569420
 25       0.000001452833
 26      -0.000000623245
 27      -0.000013357291
 28      -0.000004189975
 29      -0.000011266794
 30       0.000000316851
 31      -0.000007745349
 32       0.000012757562
 33      -0.000004424566
 34      -0.000002873155
 35      -0.000039637448
 36       0.000006279490
 37       0.000004259944
 38      -0.000005012159
 39       0.000002946675
 40       0.000015173991
 41      -0.000002254271
 42       0.000004232795
 43      -0.000008617450
 44       0.000019418308
 45      -0.000397904436
 46       0.001781470188
 47      -0.000027621688
 48       0.000055800545
 49       0.000009956455
 50       0.000261911881
 51      -0.000574151670
 52      -0.000250451291
 53      -0.000004723427
 54       0.000007446497
 55       0.000029268265
 56      -0.000022135270
 57       0.000007986683
 58      -0.000068274667
 59      -0.000109739307
 60      -0.000017518999
 61       0.000027287281
 62      -0.000000666046
 63      -0.000117161348
 64      -0.000189313706
 65      -0.000023695610
 66       0.000021087611
 67      -0.000005336143
 68       0.000645036509
 69      -0.002581493360
 70      -0.000192171214
 71      -0.000863952926
 72      -0.000476207005
 73       0.000185446987
 74      -0.000552715422
 75       0.000273737770
 76      -0.000974756673
 77       0.001810784051
 78       0.183769371534
 79       0.856668938801
 80       0.462410663998
 81       0.004443973308
 82       0.020672412077
 83       0.011163578537
 84      -0.001221552597
 85      -0.005552247868
 86      -0.003012871570
 87       0.000636386691
 88       0.002747080949
 89       0.001507051694
 90      -0.000010874659
 91       0.000011495821
 92       0.000047127124
 93      -0.000040013017
 94       0.000020561769
 95       0.000005639920
 96      -0.000007663478
 97      -0.000026145697
 98       0.000021185793
 99      -0.000013028802
100       0.000039311459
101      -0.000041099074
102      -0.000173892912
103       0.000146949274
104      -0.000073847993
 Sym=     1a
 Ene= -5.62809109487320E+01
 Spin= Alpha
 Occup= 1.000000
  1       0.000000942230
  2      -0.000014666655
  3       0.000140752267
  4       0.000003002350
  5       0.000008332312
  6      -0.000002258810
  7      -0.000062913464
  8      -0.000097210913
  9       0.000093016145
 10       0.000000907034
 11       0.000000108369
 12      -0.000001147063
 13       0.000003756721
 14       0.000004263435
 15       0.000000167400
 16      -0.000002238004
 17      -0.000170962701
 18       0.000005503585
 19      -0.000008486972
 20       0.000001515617
 21      -0.000016845811
 22       0.000022206566
 23       0.000048280734
 24      -0.000000844322
 25      -0.000002469635
 26      -0.000002152865
 27      -0.000002758025
 28       0.000001023702
 29       0.000007673505
 30       0.000038372542
 31      -0.000001254967
 32       0.000006053262
 33       0.000002992559
 34       0.000010890509
 35       0.000029155951
 36      -0.000001859579
 37      -0.000003700820
 38      -0.000005622330
 39      -0.000001491304
 40       0.000029452386
 41      -0.000000614823
 42      -0.000003428234
 43      -0.000006151732
 44      -0.000003163490
 45       0.000047106009
 46      -0.000161348345
 47      -0.000013966300
 48      -0.000021348624
 49       0.000007946599
 50       0.000052287296
 51       0.000120754028
 52      -0.000041142699
 53       0.000004168297
 54       0.000004159911
 55      -0.000000055337
 56      -0.000002206300
 57      -0.000001903678
 58       0.000101268152
 59      -0.000110849559
 60      -0.000013211619
 61      -0.000004995412
 62       0.000011423332
 63      -0.000048950631
 64       0.000100504911
 65      -0.000009170139
 66      -0.000018951652
 67       0.000007680434
 68      -0.000002009835
 69       0.000156725669
 70      -0.000021632350
 71       0.000002696264
 72       0.000021634804
 73      -0.000001409491
 74       0.000004029075
 75      -0.000004764348
 76       0.000032495545
 77      -0.000104221646
 78      -0.677169064634
 79      -0.225635918994
 80       0.687138068404
 81      -0.016174875831
 82      -0.005391478554
 83       0.016409984006
 84       0.003911575080
 85       0.001312455513
 86      -0.003956436559
 87      -0.001445492523
 88      -0.000530097795
 89       0.001417108078
 90       0.000021679500
 91      -0.000007397151
 92       0.000017234378
 93       0.000003024218
 94      -0.000024253095
 95      -0.000007142273
 96       0.000004155495
 97      -0.000001819398
 98      -0.000004256538
 99       0.000009167305
100       0.000001698927
101      -0.000003936559
102      -0.000008619505
103       0.000008399961
104      -0.000004541362
 Sym=     1a
 Ene= -5.62808893013828E+01
 Spin= Alpha
 Occup= 1.000000
  1      -0.000007944162
  2       0.000089075476
  3      -0.000379083144
  4      -0.000019075432
  5      -0.000026697500
  6      -0.000018329594
  7       0.000215935128
  8       0.000134875034
  9       0.000117183032
 10      -0.000008413125
 11      -0.000006937826
 12       0.000004755886
 13      -0.000011190933
 14      -0.000009533563
 15      -0.000000572550
 16      -0.000005772172
 17       0.000099457176
 18       0.000000691803
 19      -0.000003927877
 20      -0.000003284608
 21      -0.000104882802
 22      -0.000038221060
 23      -0.000033916373
 24       0.000003837762
 25       0.000003197941
 26       0.000006882861
 27       0.000003977986
 28      -0.000002603932
 29       0.000001511464
 30      -0.000024912507
 31      -0.000003214429
 32      -0.000016084811
 33      -0.000018292802
 34       0.000009491520
 35       0.000029335639
 36       0.000000947985
 37       0.000002116087
 38       0.000003070647
 39      -0.000012583025
 40      -0.000068044013
 41      -0.000001459337
 42       0.000001634008
 43       0.000005812342
 44       0.000003336579
 45      -0.000066833274
 46       0.000483278124
 47       0.000021785578
 48       0.000029952277
 49       0.000034193233
 50       0.000031649432
 51      -0.000216937704
 52      -0.000074646304
 53       0.000004847210
 54      -0.000006983420
 55      -0.000002681861
 56      -0.000003925820
 57      -0.000000707158
 58      -0.000060550303
 59       0.000012842912
 60       0.000009421733
 61       0.000013918303
 62       0.000015359637
 63      -0.000094298594
 64       0.000081518430
 65       0.000007817511
 66       0.000007541532
 67       0.000015440908
 68       0.000009907115
 69      -0.000362592943
 70       0.000024487054
 71      -0.000049254903
 72       0.000001208599
 73       0.000004277312
 74      -0.000012324227
 75       0.000013540021
 76      -0.000077804760
 77       0.000235279975
 78       0.699493463633
 79      -0.443537102235
 80       0.543701347841
 81       0.016710330248
 82      -0.010585625363
 83       0.012990774648
 84      -0.004049011491
 85       0.002528393327
 86      -0.003155928003
 87       0.001514725656
 88      -0.000815138676
 89       0.001218186656
 90       0.000015941646
 91       0.000017685010
 92       0.000012169366
 93       0.000018148450
 94       0.000020584286
 95      -0.000003363796
 96      -0.000008053733
 97      -0.000011189926
 98      -0.000000378975
 99      -0.000010304645
100      -0.000003175159
101       0.000004864088
102       0.000014938747
103      -0.000010966483
104       0.000007541009
 Sym=     1a
 Ene= -1.02144532011196E+01
 Spin= Alpha
 Occup= 1.000000
  1      -0.134278906349
  2      -0.003787884553
  3      -0.003829731204
  4      -0.001895099129
  5       0.000688104508
  6      -0.001143719160
  7      -0.000724730353
  8      -0.001233355342
  9       0.004158720040
 10      -0.000135943176
 11       0.001087611852
 12      -0.000339413129
 13       0.000985664199
 14      -0.000444428809
 15      -0.026252382334
 16      -0.000523394442
 17      -0.004080114434
 18      -0.000262513803
 19       0.000106001053
 20      -0.000181996722
 21       0.004813155821
 22      -0.000515313276
 23       0.002170956383
 24      -0.000044766342
 25      -0.000049913386
 26       0.000072311761
 27      -0.000214844177
 28      -0.000045908654
 29       0.000881232509
 30       0.000599755550
 31       0.000199678311
 32      -0.000035997456
 33       0.000296256963
 34      -0.000687748062
 35      -0.001978332301
 36      -0.000031525577
 37       0.000000291428
 38       0.000059404445
 39       0.000983640021
 40       0.001710503195
 41       0.000029769370
 42       0.000070322986
 43      -0.000108820773
 44      -0.978410559652
 45      -0.051303742846
 46       0.042512768885
 47       0.000724759865
 48       0.000772746692
 49       0.000745017431
 50       0.001936725858
 51      -0.005121591119
 52      -0.001733832652
 53      -0.000808313444
 54       0.000217908773
 55       0.001374498806
 56      -0.001427681288
 57      -0.000140395435
 58       0.003143100452
 59      -0.007480664989
 60       0.002389048863
 61       0.000929851619
 62      -0.001366783596
 63       0.003142701770
 64      -0.007809556630
 65      -0.000279298731
 66      -0.000847663112
 67       0.002840007322
 68      -0.000772528342
 69      -0.013433516345
 70       0.000052095282
 71      -0.000182013816
 72      -0.000137666243
 73       0.000012593069
 74      -0.000023061497
 75       0.000217222613
 76      -0.002251381831
 77       0.008600642752
 78      -0.000008556987
 79      -0.000020306298
 80      -0.000009375351
 81       0.000030161788
 82       0.000072937030
 83       0.000034120090
 84      -0.000189039981
 85      -0.000546234640
 86      -0.000280911133
 87       0.001201650509
 88       0.004448624136
 89       0.002458636418
 90      -0.000012912393
 91       0.000017615141
 92       0.000058711821
 93      -0.000047355168
 94       0.000032328881
 95       0.000060787271
 96      -0.000082217622
 97      -0.000277913668
 98       0.000224535016
 99      -0.000150600773
100      -0.000193139151
101       0.000247755647
102       0.000886593267
103      -0.000723726721
104       0.000450834757
 Sym=     1a
 Ene= -1.02129937200427E+01
 Spin= Alpha
 Occup= 1.000000
  1       0.696912565787
  2       0.031583326128
  3      -0.024697773452
  4      -0.000202124265
  5       0.000452773731
  6      -0.002029192049
  7       0.002566725932
  8       0.002406946421
  9      -0.005897119189
 10      -0.000418383870
 11      -0.000024413525
 12      -0.000179696895
 13       0.001304570866
 14       0.000217868542
 15       0.691879910252
 16       0.031043540858
 17      -0.007494285387
 18       0.000062814888
 19      -0.000737846122
 20       0.002049503088
 21      -0.000504656856
 22       0.001324317971
 23      -0.003925760046
 24      -0.000384995982
 25       0.000084741843
 26      -0.000160654926
 27       0.001173462269
 28       0.000168749616
 29      -0.003463557213
 30       0.003553107725
 31       0.001833528025
 32       0.000191963916
 33      -0.000450015948
 34      -0.003071048344
 35       0.004334869708
 36       0.001683243679
 37      -0.000112693550
 38       0.000691032825
 39      -0.002920897107
 40       0.004330326401
 41      -0.001568428239
 42      -0.000356296501
 43       0.000680245203
 44      -0.113552239335
 45      -0.007340456792
 46       0.007616830930
 47      -0.001215519936
 48      -0.000105497935
 49      -0.001045541950
 50      -0.001802966184
 51       0.000226536871
 52       0.005403857696
 53       0.000046643035
 54      -0.000611033300
 55       0.000333424985
 56      -0.000988902521
 57       0.000045321864
 58       0.000094336618
 59      -0.003458737206
 60       0.000596801011
 61      -0.000010587966
 62      -0.000116524352
 63       0.001756922675
 64       0.000081802660
 65       0.000307275100
 66      -0.000277393294
 67       0.000491553846
 68      -0.000423263018
 69       0.006633688710
 70       0.000126001368
 71      -0.000251676964
 72      -0.000120317480
 73      -0.000007746822
 74       0.000014157635
 75      -0.000133704486
 76       0.001341437601
 77      -0.004614975931
 78      -0.000002974958
 79       0.000020938596
 80       0.000004899836
 81       0.000009446674
 82      -0.000073129727
 83      -0.000017846412
 84       0.000009272768
 85       0.000456693492
 86       0.000164333556
 87      -0.000511215583
 88      -0.002616448149
 89      -0.001330399174
 90       0.000009525594
 91      -0.000006933980
 92      -0.000037658832
 93       0.000033112222
 94      -0.000017104342
 95      -0.000045296450
 96       0.000035335634
 97       0.000181143132
 98      -0.000158004948
 99       0.000083585438
100       0.000135689402
101      -0.000126070423
102      -0.000565328332
103       0.000482960622
104      -0.000266507302
 Sym=     1a
 Ene= -1.02125932986729E+01
 Spin= Alpha
 Occup= 1.000000
  1       0.687669324036
  2       0.036273494643
  3      -0.037044916495
  4       0.000348470593
  5      -0.000611619135
  6       0.001324842975
  7       0.003000825206
  8       0.000460325648
  9      -0.000384552007
 10       0.001509609563
 11       0.000086959584
 12      -0.001610673631
 13       0.001550433714
 14       0.000222122823
 15      -0.704903072172
 16      -0.037569515638
 17       0.032451923593
 18       0.000131040009
 19      -0.000475189689
 20       0.001279944767
 21      -0.001971506214
 22       0.000861632694
 23      -0.002868320349
 24      -0.001370718953
 25      -0.000127065981
 26       0.001581568981
 27      -0.001583442111
 28      -0.000227905578
 29      -0.003035079391
 30       0.005714858587
 31       0.001846792326
 32       0.000560624429
 33      -0.001447809896
 34       0.003559446245
 35      -0.005251803151
 36      -0.002129818258
 37       0.000237538347
 38      -0.001179794133
 39       0.002953885925
 40      -0.006315238122
 41       0.001991308545
 42       0.000591727982
 43      -0.001295039361
 44      -0.074871526527
 45      -0.005652838055
 46       0.011873659409
 47      -0.001558569756
 48      -0.000046914019
 49      -0.000856745983
 50       0.003614652932
 51       0.001306041553
 52       0.000712602415
 53      -0.000080666670
 54      -0.000754249787
 55       0.000427516210
 56      -0.001126677540
 57       0.000107011447
 58       0.001015607573
 59      -0.000281481835
 60       0.000605134672
 61      -0.000011977207
 62      -0.000112561791
 63       0.000276365288
 64      -0.001953883454
 65       0.000070126864
 66      -0.000216049981
 67       0.000444057132
 68      -0.000175256853
 69       0.003641123651
 70       0.000158615406
 71      -0.000140225020
 72       0.000135874035
 73      -0.000004394184
 74       0.000008069473
 75      -0.000075718975
 76       0.000733478759
 77      -0.002526191322
 78      -0.000004283538
 79       0.000012771281
 80       0.000002169130
 81       0.000014146968
 82      -0.000044672646
 83      -0.000008180103
 84      -0.000032255436
 85       0.000263369046
 86       0.000084979669
 87      -0.000215949679
 88      -0.001435437695
 89      -0.000723782597
 90       0.000004610615
 91      -0.000002674115
 92      -0.000021570170
 93       0.000019809518
 94      -0.000008702083
 95      -0.000020632753
 96       0.000014361227
 97       0.000102058346
 98      -0.000091285463
 99       0.000042227097
100       0.000056735280
101      -0.000056935059
102      -0.000306385555
103       0.000258305179
104      -0.000133411086
 Sym=     1a
 Ene= -8.66924852603188E+00
 Spin= Alpha
 Occup= 1.000000
  1       0.000036049805
  2      -0.000388180073
  3       0.000486565656
  4       0.000041585433
  5       0.000083555122
  6       0.000038950285
  7       0.000255570800
  8      -0.000369857480
  9       0.000649021735
 10      -0.000007944342
 11       0.000008266773
 12      -0.000001214006
 13      -0.000006383051
 14      -0.000028157073
 15       0.000008059692
 16      -0.000028587392
 17      -0.000857182636
 18      -0.000002133719
 19       0.000016535035
 20       0.000012235513
 21       0.000071626801
 22      -0.000142268969
 23       0.000461335304
 24      -0.000007466496
 25      -0.000002000566
 26      -0.000004029659
 27      -0.000022936933
 28      -0.000004509352
 29      -0.000040648030
 30      -0.000033497480
 31      -0.000009305072
 32       0.000024994726
 33      -0.000000100588
 34       0.000001909100
 35      -0.000056287643
 36       0.000008039656
 37       0.000007509215
 38      -0.000011410933
 39      -0.000000821287
 40       0.000031919249
 41      -0.000003767345
 42       0.000005125287
 43      -0.000012655122
 44       0.000045618332
 45      -0.000757286024
 46       0.003278182923
 47      -0.000042190346
 48       0.000096277655
 49       0.000021946202
 50       0.000328966404
 51      -0.001117455994
 52      -0.000545313430
 53      -0.000010572681
 54       0.000013189468
 55       0.000045466501
 56      -0.000032429757
 57       0.000011735729
 58      -0.000111412564
 59      -0.000247580093
 60      -0.000023415120
 61       0.000020203860
 62      -0.000008206697
 63      -0.000189379532
 64      -0.000345813134
 65      -0.000031575154
 66       0.000004088458
 67      -0.000012707232
 68       0.001053895783
 69      -0.005953454150
 70      -0.000145702605
 71      -0.000749515955
 72      -0.000406761210
 73      -0.136660041346
 74       0.516878143187
 75      -1.093415513684
 76      -0.032230266477
 77       0.013975278298
 78       0.000363613652
 79       0.001506216463
 80       0.000834336705
 81      -0.000855164255
 82      -0.003549780846
 83      -0.001965226759
 84      -0.000308928381
 85      -0.001188928800
 86      -0.000671006978
 87       0.000620491093
 88       0.002396554045
 89       0.001352651783
 90       0.000173505497
 91      -0.000174215057
 92      -0.000736153747
 93       0.000626795678
 94      -0.000316522055
 95       0.000135939446
 96      -0.000149109280
 97      -0.000594073071
 98       0.000498314344
 99      -0.000259717783
100      -0.000017361368
101       0.000027284715
102       0.000088032447
103      -0.000069204768
104       0.000041647355
 Sym=     1a
 Ene= -6.50205435602576E+00
 Spin= Alpha
 Occup= 1.000000
  1       0.000018769918
  2      -0.000230376535
  3       0.000329781138
  4       0.000025590202
  5       0.000048332338
  6       0.000023022930
  7       0.000097837764
  8      -0.000215764625
  9       0.000335476395
 10      -0.000003915893
 11       0.000005090418
 12       0.000000028071
 13      -0.000003280021
 14      -0.000014734882
 15       0.000004519415