[Molden Format]
[Title]
 Molden file created by orca_2mkl for BaseName=radical_005

[Atoms] AU
C    1   6          1.2129150499         0.8139031562         0.3589383613 
C    2   6          1.3197204812         0.1174691559         2.8031611655 
H    3   1          2.9739640622         1.2852726635        -0.6271377429 
H    4   1          3.1119216288         0.0420539654         3.8262097616 
H    5   1         -0.3861088437        -0.4250787760         3.8431908406 
C    6   6         -1.1185893699         0.8326397908        -1.1686444357 
H    7   1         -2.8788654842         0.9292860544        -0.0683816299 
H    8   1         -1.1277791081         2.1906064392        -2.7412764141 
H    9   1         -1.2316422359        -1.1069524364        -2.1952022532 
Br  10  35         -1.8582867602        -4.3436489024        -3.8688533215 
[GTO]
  1 0
s   5 1.0 
     1238.4016938000         0.8208956682
      186.2900499200         1.4766449896
       42.2511763460         2.1526124058
       11.6765579320         2.1081722461
        3.5930506482         0.8290999933
s   1 1.0 
        0.4024514736         0.3601183351
s   1 1.0 
        0.1309018267         0.1551027052
p   3 1.0 
        9.4680970621         1.3467645142
        2.0103545142         1.0678070931
        0.5477100471         0.5108735714
p   1 1.0 
        0.1526861379         0.1360471976
d   1 1.0 
        0.8000000000         1.9292013661

  2 0
s   5 1.0 
     1238.4016938000         0.8208956682
      186.2900499200         1.4766449896
       42.2511763460         2.1526124058
       11.6765579320         2.1081722461
        3.5930506482         0.8290999933
s   1 1.0 
        0.4024514736         0.3601183351
s   1 1.0 
        0.1309018267         0.1551027052
p   3 1.0 
        9.4680970621         1.3467645142
        2.0103545142         1.0678070931
        0.5477100471         0.5108735714
p   1 1.0 
        0.1526861379         0.1360471976
d   1 1.0 
        0.8000000000         1.9292013661

  3 0
s   3 1.0 
       13.0107010000         0.1634903809
        1.9622572000         0.2773515510
        0.4445379600         0.3157501452
s   1 1.0 
        0.1219496200         0.1470772262
p   1 1.0 
        0.8000000000         1.0784563492

  4 0
s   3 1.0 
       13.0107010000         0.1634903809
        1.9622572000         0.2773515510
        0.4445379600         0.3157501452
s   1 1.0 
        0.1219496200         0.1470772262
p   1 1.0 
        0.8000000000         1.0784563492

  5 0
s   3 1.0 
       13.0107010000         0.1634903809
        1.9622572000         0.2773515510
        0.4445379600         0.3157501452
s   1 1.0 
        0.1219496200         0.1470772262
p   1 1.0 
        0.8000000000         1.0784563492

  6 0
s   5 1.0 
     1238.4016938000         0.8208956682
      186.2900499200         1.4766449896
       42.2511763460         2.1526124058
       11.6765579320         2.1081722461
        3.5930506482         0.8290999933
s   1 1.0 
        0.4024514736         0.3601183351
s   1 1.0 
        0.1309018267         0.1551027052
p   3 1.0 
        9.4680970621         1.3467645142
        2.0103545142         1.0678070931
        0.5477100471         0.5108735714
p   1 1.0 
        0.1526861379         0.1360471976
d   1 1.0 
        0.8000000000         1.9292013661

  7 0
s   3 1.0 
       13.0107010000         0.1634903809
        1.9622572000         0.2773515510
        0.4445379600         0.3157501452
s   1 1.0 
        0.1219496200         0.1470772262
p   1 1.0 
        0.8000000000         1.0784563492

  8 0
s   3 1.0 
       13.0107010000         0.1634903809
        1.9622572000         0.2773515510
        0.4445379600         0.3157501452
s   1 1.0 
        0.1219496200         0.1470772262
p   1 1.0 
        0.8000000000         1.0784563492

  9 0
s   3 1.0 
       13.0107010000         0.1634903809
        1.9622572000         0.2773515510
        0.4445379600         0.3157501452
s   1 1.0 
        0.1219496200         0.1470772262
p   1 1.0 
        0.8000000000         1.0784563492

 10 0
s   6 1.0 
   113286.3877600000         7.5076141183
    17009.6263030000        13.8835270484
     3870.1842567000        22.7307285566
     1093.0357227000        30.8227297499
      356.3972179700        27.2481937511
      123.1253964300         9.6953381145
s   3 1.0 
      236.7408400700        -4.7631125758
       28.4686610700         5.6113863182
       11.8834437220         1.9900291396
s   3 1.0 
       21.2696333120        -1.5429794477
        3.6129226841         1.3310800628
        1.6626648969         0.4300130345
s   1 1.0 
        0.3482379323         0.3230852630
s   1 1.0 
        0.1301903139         0.1544699827
p   5 1.0 
     1560.2801881000       115.0180051576
      368.4785920500       143.9035925417
      117.2297884900       137.5255986684
       42.6489092480        78.9578527439
       16.0872250960        15.8580577654
p   3 1.0 
        8.6352810058         6.8437546680
        3.5613665502         3.7974971038
        1.5292626609         0.5585414278
p   1 1.0 
        0.5306429485         0.6455696201
p   1 1.0 
        0.1570275896         0.1408996918
d   4 1.0 
      104.8551864200       261.4493931636
       30.2811436880       176.6993802449
       10.6513942670        76.9545600188
        3.8699456233        17.5937671387
d   1 1.0 
        1.3240876762         4.6593398042
d   1 1.0 
        0.3890000000         0.5462379705

[5D]
[7F]
[9G]
[MO]
 Sym=     1a
 Ene= -4.82765872495459E+02
 Spin= Alpha
 Occup= 1.000000
  1       0.000005798240
  2      -0.000079943823
  3       0.000222395104
  4       0.000008942103
  5       0.000015419506
  6       0.000005769264
  7      -0.000012668595
  8      -0.000066885314
  9       0.000137647346
 10      -0.000001603848
 11       0.000002073636
 12       0.000001155656
 13      -0.000001157564
 14      -0.000005531302
 15       0.000001426329
 16      -0.000008759480
 17      -0.000213078651
 18       0.000000177564
 19       0.000003151114
 20       0.000002834516
 21       0.000020126440
 22      -0.000027577857
 23       0.000102167461
 24      -0.000000099005
 25      -0.000002117493
 26      -0.000001422145
 27      -0.000004484599
 28      -0.000000843078
 29      -0.000003634013
 30       0.000005190320
 31      -0.000001898202
 32       0.000002366490
 33       0.000000971381
 34       0.000001355433
 35      -0.000008097442
 36       0.000000937138
 37       0.000002095517
 38      -0.000003357215
 39      -0.000000050161
 40       0.000009173339
 41      -0.000000658136
 42       0.000000307992
 43      -0.000001735955
 44       0.000008001015
 45      -0.000154726635
 46       0.001073026191
 47      -0.000009202252
 48       0.000012649474
 49       0.000006183412
 50       0.000041480638
 51      -0.000387258636
 52      -0.000261872689
 53      -0.000004108370
 54       0.000005294276
 55       0.000013238031
 56      -0.000013769082
 57       0.000005192610
 58      -0.000010203682
 59       0.000007008341
 60       0.000005761228
 61       0.000003121623
 62      -0.000003768588
 63      -0.000043300497
 64      -0.000033032031
 65      -0.000006177944
 66       0.000000722362
 67       0.000007170289
 68       0.000005686212
 69      -0.001496825686
 70       0.000007721658
 71       0.000001953196
 72       0.000001707144
 73      -0.994982722421
 74      -0.015687201376
 75       0.003907968428
 76      -0.002339179864
 77       0.001702839853
 78      -0.000001712904
 79      -0.000007520472
 80      -0.000003821057
 81       0.000005836792
 82       0.000025242940
 83       0.000012867043
 84      -0.000028314335
 85      -0.000124531276
 86      -0.000063685064
 87       0.000095117578
 88       0.000446464942
 89       0.000229756719
 90      -0.000003249372
 91       0.000002454640
 92       0.000011313329
 93      -0.000010449850
 94       0.000004870078
 95       0.000012573914
 96      -0.000009443736
 97      -0.000043776279
 98       0.000040467561
 99      -0.000018711542
100      -0.000030285744
101       0.000022568450
102       0.000105845032
103      -0.000097903511
104       0.000044454889
 Sym=     1a
 Ene= -6.24488171375083E+01
 Spin= Alpha
 Occup= 1.000000
  1      -0.000013818191
  2       0.000192755973
  3      -0.000526266065
  4      -0.000021461472
  5      -0.000036944450
  6      -0.000013940973
  7       0.000024443513
  8       0.000161029996
  9      -0.000334519463
 10       0.000004051367
 11      -0.000004797255
 12      -0.000002931497
 13       0.000003009452
 14       0.000013260076
 15      -0.000003429431
 16       0.000021615907
 17       0.000511677492
 18      -0.000000618677
 19      -0.000007593009
 20      -0.000006884110
 21      -0.000045471186
 22       0.000067023222
 23      -0.000245826865
 24       0.000000238887
 25       0.000005039209
 26       0.000003351447
 27       0.000010617139
 28       0.000001980443
 29       0.000009409176
 30      -0.000012744566
 31       0.000004640393
 32      -0.000005485620
 33      -0.000002079476
 34      -0.000003571924
 35       0.000018896063
 36      -0.000002248467
 37      -0.000004985937
 38       0.000007906833
 39       0.000000809797
 40      -0.000020848928
 41       0.000001555016
 42      -0.000000687880
 43       0.000004020661
 44      -0.000018297027
 45       0.000369730416
 46      -0.002638348833
 47       0.000022653793
 48      -0.000024534213
 49      -0.000012045585
 50      -0.000105711668
 51       0.000948876162
 52       0.000637473976
 53       0.000010719058
 54      -0.000012962377
 55      -0.000035517766
 56       0.000036322020
 57      -0.000012253466
 58       0.000023731377
 59      -0.000015689672
 60      -0.000013680536
 61      -0.000007386966
 62       0.000009427865
 63       0.000104319111
 64       0.000081324804
 65       0.000015346676
 66      -0.000001380656
 67      -0.000017180042
 68      -0.000012810049
 69       0.003683668792
 70      -0.000016476223
 71       0.000009001164
 72       0.000003022808
 73       0.347189546328
 74      -1.046963593372
 75      -0.018552788826
 76       0.006326943346
 77      -0.004334856658
 78      -0.000011495437
 79      -0.000087832669
 80      -0.000041081053
 81      -0.000015683172
 82      -0.000070552751
 83      -0.000035668103
 84       0.000069932812
 85       0.000308753751
 86       0.000157756547
 87      -0.000233875164
 88      -0.001098771041
 89      -0.000565331258
 90       0.000022087558
 91      -0.000011679526
 92      -0.000070709307
 93       0.000069004466
 94      -0.000023713765
 95      -0.000034902785
 96       0.000024377798
 97       0.000119083239
 98      -0.000111463747
 99       0.000048627153
100       0.000074846321
101      -0.000055130173
102      -0.000260495558
103       0.000241460926
104      -0.000108853288
 Sym=     1a
 Ene= -5.62823033361386E+01
 Spin= Alpha
 Occup= 1.000000
  1       0.000015958241
  2      -0.000235843475
  3       0.000667101530
  4       0.000024904616
  5       0.000043717585
  6       0.000016076442
  7      -0.000084203840
  8      -0.000216768701
  9       0.000311992706
 10      -0.000003585222
 11       0.000007371341
 12       0.000008240245
 13      -0.000003835699
 14      -0.000009078369
 15       0.000004747139
 16      -0.000035100691
 17      -0.000534616154
 18       0.000002637948
 19       0.000011122423
 20       0.000010787867
 21       0.000049122259
 22      -0.000063399208
 23       0.000247377856
 24       0.000001118125
 25      -0.000007833356
 26      -0.000006262305
 27      -0.000011775607
 28      -0.000000039696
 29      -0.000015592050
 30       0.000023577681
 31      -0.000004243869
 32       0.000008093072
 33       0.000007757750
 34       0.000006806868
 35      -0.000017551553
 36       0.000000320718
 37       0.000005730353
 38      -0.000008709325
 39      -0.000006125298
 40       0.000029584494
 41       0.000000179119
 42      -0.000000557942
 43      -0.000002104647
 44       0.000012130133
 45      -0.000330456583
 46       0.002885788085
 47      -0.000029295567
 48      -0.000011379871
 49      -0.000004906009
 50       0.000114851829
 51      -0.001074286623
 52      -0.000755108996
 53      -0.000015404240
 54       0.000017359961
 55       0.000054345648
 56      -0.000056029447
 57       0.000013302656
 58      -0.000001615860
 59       0.000072363863
 60       0.000017284613
 61      -0.000007052929
 62      -0.000020001228
 63      -0.000104365898
 64      -0.000050676873
 65      -0.000020721273
 66      -0.000014475859
 67       0.000012809548
 68      -0.000088290900
 69      -0.004547924443
 70       0.000023533882
 71      -0.000011908044
 72      -0.000002281519
 73       0.000052389569
 74      -0.000150674487
 75       0.000161530222
 76      -0.001045268556
 77       0.002222540834
 78       0.120806240680
 79       0.883729888056
 80       0.431236078188
 81       0.002910210580
 82       0.021234838011
 83       0.010363799212
 84      -0.000792869932
 85      -0.005544718709
 86      -0.002715736984
 87       0.000561362830
 88       0.003336569103
 89       0.001667152261
 90      -0.000012965657
 91       0.000008764985
 92       0.000044123448
 93      -0.000041546089
 94       0.000017569010
 95       0.000042663665
 96      -0.000030752609
 97      -0.000148839989
 98       0.000138353620
 99      -0.000061278650
100      -0.000101137780
101       0.000073462821
102       0.000355170742
103      -0.000329445165
104       0.000145192940
 Sym=     1a
 Ene= -5.62781166856671E+01
 Spin= Alpha
 Occup= 1.000000
  1      -0.000006114188
  2       0.000056344245
  3      -0.000192428244
  4      -0.000013022467
  5      -0.000023624264
  6      -0.000002950195
  7       0.000004069533
  8       0.000202668880
  9      -0.000294945964
 10      -0.000006555418
 11       0.000002107991
 12       0.000002917565
 13      -0.000002615379
 14      -0.000010686559
 15      -0.000001358456
 16       0.000009116910
 17       0.000391689375
 18      -0.000005256409
 19       0.000002972169
 20      -0.000005726745
 21       0.000017676779
 22       0.000002763608
 23      -0.000167248852
 24       0.000003771616
 25       0.000003090488
 26       0.000004105759
 27       0.000004956267
 28      -0.000001269683
 29      -0.000016995273
 30      -0.000061124824
 31       0.000008561625
 32      -0.000017735606
 33       0.000001573748
 34      -0.000011980122
 35      -0.000022543088
 36      -0.000001090512
 37       0.000002456684
 38       0.000008329535
 39       0.000001639607
 40      -0.000017878011
 41       0.000002709665
 42       0.000003459977
 43       0.000008086097
 44       0.000003516195
 45      -0.000075007307
 46       0.000413997532
 47       0.000041540652
 48       0.000024270178
 49       0.000007443666
 50      -0.000307385418
 51      -0.000343607175
 52      -0.000050111793
 53      -0.000001692433
 54      -0.000024948058
 55       0.000017610413
 56      -0.000004740100
 57      -0.000017373547
 58      -0.000126618044
 59      -0.000028925260
 60       0.000011034749
 61       0.000017155440
 62       0.000016644158
 63       0.000018563924
 64       0.000042415515
 65       0.000031983101
 66       0.000005786758
 67       0.000010999486
 68      -0.000025892941
 69      -0.000639544201
 70      -0.000051555176
 71      -0.000000011089
 72       0.000002837929
 73       0.000001319354
 74      -0.000003272164
 75       0.000012977637
 76      -0.000095883553
 77       0.000243182052
 78       0.975722376157
 79      -0.053618644134
 80      -0.163467238698
 81       0.023303363165
 82      -0.001274336468
 83      -0.003900485770
 84      -0.005650016351
 85       0.000277453649
 86       0.000927977036
 87       0.002119827810
 88       0.000033982226
 89      -0.000272920023
 90      -0.000002502098
 91       0.000005513863
 92       0.000000968569
 93      -0.000000688680
 94       0.000011701980
 95       0.000005755077
 96      -0.000009044216
 97      -0.000009371463
 98       0.000008553002
 99      -0.000018026473
100      -0.000013018878
101       0.000017159171
102       0.000027815571
103      -0.000025696564
104       0.000033481063
 Sym=     1a
 Ene= -5.62781055868536E+01
 Spin= Alpha
 Occup= 1.000000
  1       0.000006252356
  2      -0.000051856096
  3      -0.000077062655
  4       0.000009316025
  5       0.000016751401
  6       0.000025241007
  7       0.000102390096
  8       0.000014368432
  9      -0.000214731795
 10       0.000005688802
 11      -0.000001718270
 12      -0.000002499605
 13      -0.000001418137
 14       0.000001051723
 15      -0.000001379608
 16       0.000028079155
 17       0.000155579165
 18      -0.000008929948
 19       0.000007745992
 20      -0.000007119794
 21       0.000066159500
 22       0.000024818972
 23      -0.000016902614
 24      -0.000004245683
 25       0.000003508773
 26      -0.000002095161
 27      -0.000002769788
 28      -0.000002474974
 29      -0.000035518605
 30      -0.000083744553
 31       0.000005564362
 32       0.000008074678
 33       0.000007553328
 34      -0.000017885569
 35      -0.000054454647
 36       0.000003799627
 37      -0.000000484122
 38       0.000003705609
 39       0.000009472108
 40       0.000009148791
 41       0.000000946539
 42       0.000001321077
 43      -0.000001408619
 44       0.000002759497
 45      -0.000021579031
 46      -0.000061664832
 47      -0.000009327425
 48       0.000015167272
 49      -0.000044616594
 50      -0.000033229769
 51      -0.000075363375
 52       0.000365826032
 53       0.000005850177
 54      -0.000001666273
 55       0.000027091470
 56       0.000029204639
 57       0.000001746134
 58      -0.000071454724
 59      -0.000052061858
 60      -0.000020605320
 61       0.000013767507
 62      -0.000025334363
 63       0.000127453404
 64       0.000071483774
 65      -0.000003228076
 66      -0.000016836115
 67      -0.000000389698
 68       0.000015297879
 69       0.000138835902
 70       0.000008405648
 71      -0.000023572329
 72       0.000046979268
 73       0.000000119197
 74      -0.000000600712
 75      -0.000004264083
 76       0.000027567969
 77      -0.000060523523
 78      -0.122474118146
 79       0.444639736355
 80      -0.876884933912
 81      -0.002925457546
 82       0.010616133390
 83      -0.020941581200
 84       0.000710783941
 85      -0.002558816293
 86       0.005073105269
 87      -0.000269857061
 88       0.000910568847
 89      -0.001891019229
 90      -0.000007394214
 91      -0.000002213358
 92      -0.000007790801
 93      -0.000004038693
 94      -0.000000858159
 95       0.000008177628
 96       0.000003246646
 97       0.000011357561
 98       0.000002529595
 99       0.000001737973
100      -0.000011681009
101      -0.000005613467
102      -0.000020412447
103      -0.000000793476
104      -0.000003805616
 Sym=     1a
 Ene= -1.02181621862555E+01
 Spin= Alpha
 Occup= 1.000000
  1       0.083927979633
  2       0.002921539132
  3       0.002134367125
  4       0.001316795244
  5      -0.000358687187
  6       0.000940086077
  7       0.000614011301
  8       0.001644840708
  9      -0.005276385307
 10       0.000064452659
 11      -0.001321078010
 12       0.000068475117
 13      -0.000955170594
 14       0.000143025098
 15       0.006520537953
 16      -0.000335168736
 17       0.006382725805
 18       0.000270118105
 19      -0.000044319086
 20       0.000138962201
 21      -0.004672406513
 22       0.000266421414
 23      -0.003289274181
 24       0.000086719140
 25      -0.000045606721
 26      -0.000072784416
 27       0.000214802769
 28       0.000125520668
 29      -0.000823831784
 30      -0.000848377354
 31      -0.000099070924
 32      -0.000033516354
 33      -0.000240005662
 34       0.000753041493
 35       0.001849832812
 36      -0.000061869402
 37       0.000003543371
 38      -0.000029580090
 39      -0.000901114506
 40      -0.001808286572
 41      -0.000006869406
 42      -0.000064697159
 43       0.000125226538
 44       0.984155599383
 45       0.053442355357
 46      -0.055003538252
 47      -0.000774966391
 48      -0.000761859965
 49      -0.000898125287
 50      -0.001930207659
 51       0.006591506730
 52       0.003214678257
 53       0.000244053917
 54      -0.000543620627
 55      -0.000488527502
 56       0.000018053738
 57      -0.000120618851
 58      -0.002794736140
 59       0.007386798608
 60      -0.002214585846
 61      -0.000079364998
 62       0.001621931597
 63      -0.002662747367
 64       0.008035459670
 65       0.000256563983
 66       0.001705373036
 67      -0.002197199428
 68      -0.002322838198
 69       0.024247989184
 70       0.000047124110
 71      -0.002286783130
 72      -0.000994549367
 73      -0.000011240740
 74       0.000020116762
 75      -0.000195567439
 76       0.002115528610
 77      -0.007097620303
 78       0.000004940665
 79       0.000016108815
 80       0.000002653668
 81      -0.000017909148
 82      -0.000059028020
 83      -0.000011139494
 84       0.000135457545
 85       0.000494218631
 86       0.000170333717
 87      -0.000900531080
 88      -0.004058611938
 89      -0.001938540328
 90       0.000020688452
 91      -0.000014115762
 92      -0.000050438963
 93       0.000050456543
 94      -0.000031045980
 95      -0.000096460394
 96       0.000065910766
 97       0.000239223439
 98      -0.000238478748
 99       0.000144285210
100       0.000283173349
101      -0.000194513861
102      -0.000766569274
103       0.000750731022
104      -0.000415142217
 Sym=     1a
 Ene= -1.02170457454885E+01
 Spin= Alpha
 Occup= 1.000000
  1       0.983201000130
  2       0.047565410001
  3      -0.042199570468
  4       0.000471013637
  5      -0.000264693009
  6      -0.000356660431
  7       0.004391134146
  8       0.002061500548
  9      -0.004368045971
 10       0.001018711929
 11      -0.000264023096
 12      -0.000952497612
 13       0.001643164570
 14       0.000706779455
 15       0.054315383973
 16      -0.002112079374
 17       0.016550713420
 18       0.000144474099
 19      -0.000790019877
 20       0.002614356592
 21      -0.002493235029
 22       0.001119368224
 23      -0.004931746990
 24      -0.001054532332
 25      -0.000046046955
 26       0.000711869954
 27      -0.000273234393
 28      -0.000079843114
 29      -0.004681044257
 30       0.006271960584
 31       0.002552137917
 32       0.000591482418
 33      -0.001328029262
 34       0.000304263730
 35       0.000026021521
 36      -0.000177688415
 37       0.000081813687
 38      -0.000380851958
 39      -0.000309154712
 40      -0.001399304613
 41       0.000133371849
 42       0.000138480285
 43      -0.000421922104
 44      -0.083486205369
 45      -0.004938853733
 46       0.003970358957
 47      -0.001602138578
 48      -0.000355059120
 49      -0.001247308824
 50       0.001260388135
 51       0.004272417035
 52       0.005808448061
 53       0.000178447042
 54      -0.001202074802
 55      -0.000066815528
 56      -0.001024866954
 57      -0.000105719827
 58       0.000275298397
 59      -0.001689678652
 60       0.000485488392
 61      -0.000195770857
 62      -0.000007400727
 63       0.000833045544
 64      -0.000335285653
 65       0.000304712878
 66      -0.000418845804
 67       0.000135830301
 68       0.000341185300
 69       0.011777876950
 70       0.000526831708
 71       0.000418472034
 72       0.000461012616
 73      -0.000008467833
 74       0.000015637960
 75      -0.000145570541
 76       0.001459931355
 77      -0.004284857837
 78      -0.000007688119
 79       0.000023626702
 80       0.000002217774
 81       0.000025645391
 82      -0.000082402310
 83      -0.000008681486
 84      -0.000072400617
 85       0.000497951260
 86       0.000119558597
 87      -0.000270847505
 88      -0.002729640108
 89      -0.001198668537
 90       0.000012415115
 91       0.000000303111
 92      -0.000036431801
 93       0.000039859946
 94      -0.000011916703
 95      -0.000058423401
 96       0.000001499573
 97       0.000174372992
 98      -0.000188295837
 99       0.000057837521
100       0.000176252406
101      -0.000041584364
102      -0.000562461642
103       0.000576637569
104      -0.000196762440
 Sym=     1a
 Ene= -1.02112675129823E+01
 Spin= Alpha
 Occup= 1.000000
  1      -0.053752211525
  2      -0.006879289372
  3       0.011838616630
  4      -0.000396846655
  5       0.000716113033
  6      -0.002660959870
  7      -0.000671698455
  8       0.000381132307
  9      -0.002078332597
 10      -0.001335729895
 11       0.000000783464
 12       0.000872677422
 13      -0.000403718073
 14      -0.000133974814
 15       0.986627342899
 16       0.048485636697
 17      -0.030454019585
 18      -0.000036184524
 19      -0.000139275453
 20       0.000307238563
 21       0.000933121042
 22       0.000238163820
 23       0.000114812925
 24       0.001098991581
 25       0.000213927719
 26      -0.001305223864
 27       0.002114772483
 28       0.000548811944
 29       0.000268316856
 30      -0.001592601564
 31      -0.000272589467
 32      -0.000266881013
 33       0.000831126023
 34      -0.004653444895
 35       0.006866714291
 36       0.002699213575
 37      -0.000095674492
 38       0.001404922384
 39      -0.004197153013
 40       0.007427863142
 41      -0.002561589109
 42      -0.000778318854
 43       0.001391101692
 44      -0.002002902508
 45       0.000280391236
 46      -0.004894917140
 47       0.000279474688
 48      -0.000004870143
 49       0.000003266319
 50      -0.002693810224
 51      -0.000158378275
 52       0.002173053039
 53       0.000195563316
 54       0.000197971582
 55      -0.000076903935
 56       0.000177590533
 57      -0.000069022346
 58      -0.000436718185
 59      -0.001137407462
 60       0.000000941130
 61       0.000099375152
 62       0.000050076054
 63       0.000636977830
 64       0.000951419793
 65       0.000065345972
 66      -0.000106361594
 67      -0.000150886982
 68      -0.000054897955
 69       0.002500487488
 70       0.000058243253
 71       0.000177598546
 72      -0.000213240490
 73      -0.000002575425
 74       0.000004953001
 75      -0.000043581413
 76       0.000357944372
 77      -0.000931563935
 78       0.000000295438
 79       0.000006089669
 80       0.000004706511
 81      -0.000001116178
 82      -0.000021097685
 83      -0.000016320840
 84       0.000011227862
 85       0.000115460396
 86       0.000088082022
 87      -0.000091865615
 88      -0.000551455004
 89      -0.000353460272
 90      -0.000000099498
 91      -0.000002140617
 92      -0.000011373156
 93       0.000005391445
 94      -0.000002157243
 95       0.000000147353
 96       0.000009989719
 97       0.000052820910
 98      -0.000025888969
 99       0.000010265138
100       0.000005272206
101      -0.000028777921
102      -0.000149171962
103       0.000085034907
104      -0.000033104414
 Sym=     1a
 Ene= -8.66700616133855E+00
 Spin= Alpha
 Occup= 1.000000
  1      -0.000034329187
  2       0.000417792041
  3      -0.000997431073
  4      -0.000044353095
  5      -0.000074691228
  6      -0.000029343903
  7      -0.000050882508
  8       0.000347612347
  9      -0.000786423750
 10       0.000011310873
 11      -0.000008136304
 12      -0.000008562620
 13       0.000009672185
 14       0.000028076207
 15      -0.000009884027
 16       0.000054079469
 17       0.001100603496
 18      -0.000003933324
 19      -0.000015880760
 20      -0.000015420589
 21      -0.000049073488
 22       0.000156832814
 23      -0.000536660634
 24       0.000000438912
 25       0.000009437849
 26       0.000005795494
 27       0.000020904021
 28       0.000003857350
 29       0.000027490588
 30      -0.000025670020
 31       0.000011471401
 32      -0.000008672325
 33       0.000000850332
 34      -0.000012677834
 35       0.000029077582
 36      -0.000004958775
 37      -0.000010061992
 38       0.000015226821
 39       0.000010696140
 40      -0.000022787326
 41       0.000003439437
 42      -0.000000750849
 43       0.000007158997
 44      -0.000031531713
 45       0.000758288266
 46      -0.006625578397
 47       0.000055535310
 48       0.000039342318
 49       0.000018220217
 50      -0.000321510231
 51       0.002314630678
 52       0.001493821010
 53       0.000035465063
 54      -0.000030590201
 55      -0.000131729373
 56       0.000127728312
 57      -0.000022858188
 58       0.000036804290
 59      -0.000004486674
 60      -0.000026702710
 61      -0.000013707342
 62       0.000025039205
 63       0.000227526881
 64       0.000215459600
 65       0.000039813354
 66       0.000001247543
 67      -0.000035380686
 68      -0.000045424654
 69       0.009299237801
 70       0.000000325088
 71       0.000250029623
 72       0.000125971482
 73       0.136666444247
 74      -0.516893974665
 75       1.093494934175
 76       0.032312230135
 77      -0.013864439578
 78      -0.000046697098
 79      -0.000321986626
 80      -0.000151294907
 81       0.000101670884
 82       0.000729550140
 83       0.000340797590
 84       0.000184488217
 85       0.000835596772
 86       0.000425540915
 87      -0.000584880763
 88      -0.002763986725
 89      -0.001421298419
 90      -0.000328392292
 91       0.000127499957
 92       0.000980615173
 93      -0.000998652303
 94       0.000265275115
 95      -0.000284022133
 96       0.000131819246
 97       0.000869809037
 98      -0.000868851148
 99       0.000270402375
100       0.000181374930
101      -0.000127128481
102      -0.000617521811
103       0.000578088966
104      -0.000252297163
 Sym=     1a
 Ene= -6.50400569446725E+00
 Spin= Alpha
 Occup= 1.000000
  1      -0.000018167029
  2       0.000255919641
  3      -0.000676607047
  4      -0.000027147862
  5      -0.000046154862
  6      -0.000018676752
  7       0.000068855413
  8       0.000238672603
  9      -0.000341103533
 10       0.000004553631
 11      -0.000006467170
 12      -0.000008356856
 13       0.000004724702
 14       0.000009522600
 15      -0.000005796329