
                                 *****************
                                 * O   R   C   A *
                                 *****************

                                            #,                                       
                                            ###                                      
                                            ####                                     
                                            #####                                    
                                            ######                                   
                                           ########,                                 
                                     ,,################,,,,,                         
                               ,,#################################,,                 
                          ,,##########################################,,             
                       ,#########################################, ''#####,          
                    ,#############################################,,   '####,        
                  ,##################################################,,,,####,       
                ,###########''''           ''''###############################       
              ,#####''   ,,,,##########,,,,          '''####'''          '####       
            ,##' ,,,,###########################,,,                        '##       
           ' ,,###''''                  '''############,,,                           
         ,,##''                                '''############,,,,        ,,,,,,###''
      ,#''                                            '''#######################'''  
     '                                                          ''''####''''         
             ,#######,   #######,   ,#######,      ##                                
            ,#'     '#,  ##    ##  ,#'     '#,    #''#        ,####,    ,#,          
            ##       ##  ##   ,#'  ##            #'  '#       #'       ,# #          
            ##       ##  #######   ##           ,######,      #####,      #          
            '#,     ,#'  ##    ##  '#,     ,#' ,#      #,     #,   #      #          
             '#######'   ##     ##  '#######'  #'      '#     '####' #    #          



                #########################################################
                #                        -***-                          #
                #          Department of theory and spectroscopy        #
                #                                                       #
                #                      Frank Neese                      #
                #                                                       #
                #     Directorship, Architecture, Infrastructure        #
                #                    SHARK, DRIVERS                     #
                #        Core code/Algorithms in most modules           #
                #                                                       #
                #        Max Planck Institute fuer Kohlenforschung      #
                #                Kaiser Wilhelm Platz 1                 #
                #                 D-45470 Muelheim/Ruhr                 #
                #                      Germany                          #
                #                                                       #
                #                  All rights reserved                  #
                #                        -***-                          #
                #########################################################


                         Program Version 6.1.0  -  RELEASE   -
                                (GIT: $679e74b$)
                          ($2025-06-10 18:02:51 +0200$)


 With contributions from (in alphabetic order):
[Max-Planck-Institut fuer Kohlenforschung]                               
  Daniel Aravena         : Magnetic Suceptibility                        
  Michael Atanasov       : Ab Initio Ligand Field Theory (pilot matlab implementation)
  Alexander A. Auer      : GIAO ZORA, VPT2 properties, NMR spectrum      
  Ute Becker             : All parallelization in ORCA, NUMFREQ, NUMCALC 
  Giovanni Bistoni       : ED, misc. LED, open-shell LED, HFLD           
  Dmytro Bykov           : pre 5.0 version of the SCF Hessian            
  Marcos Casanova-Páez   : Triplet and SCS-CIS(D). UHF-(DLPNO)-IP/EA/STEOM-CCSD. UHF-CVS-IP/STEOM-CCSD   
  Vijay G. Chilkuri      : MRCI spin determinant printing, contributions to CSF-ICE 
  Pauline Colinet        : FMM embedding                                 
  Dipayan Datta          : RHF DLPNO-CCSD density                        
  Achintya Kumar Dutta   : EOM-CC, STEOM-CC                              
  Nicolas Foglia         : Exact transition moments, OPA infrastructure, MCD improvements    
  Dmitry Ganyushin       : Spin-Orbit,Spin-Spin,Magnetic field MRCI      
  Miquel Garcia-Rates    : C-PCM and meta-GGA Hessian, CCSD/C-PCM, Gaussian charge scheme 
  Tiago L. C. Gouveia    : GS-ROHF, GS-ROCIS                             
  Yang Guo               : DLPNO-NEVPT2, F12-NEVPT2, CIM, IAO-localization        
  Andreas Hansen         : Spin unrestricted coupled pair/coupled cluster methods 
  Ingolf Harden          : AUTO-CI MPn and infrastructure                
  Benjamin Helmich-Paris : MC-RPA, TRAH-(SCF,CASSCF), AVAS, COSX integrals, SCF dyn. polar., MC-PDFT, srDFT 
  Lee Huntington         : MR-EOM, pCC                                   
  Robert Izsak           : Overlap fitted RIJCOSX, COSX-SCS-MP3, EOM     
  Riya Kayal             : Wick's Theorem for AUTO-CI, AUTO-CI UHF-CCSDT 
  Emily Kempfer          : AUTO-CI RHF CISDT and CCSDT, approximate NEVPT4
  Christian Kollmar      : KDIIS, OOCD, Brueckner-CCSD(T), CCSD density, CASPT2, CASPT2-K, improved NEVPT2 
  Axel Koslowski         : Symmetry handling                             
  Simone Kossmann        : meta-GGA functionals, TD-DFT gradient, OOMP2, (MP2 Hessian; deprecated post 5.0) 
  Lucas Lang             : DCDCAS, Hyperfine gauge corrections, ICE-SOC+SSC
  Marvin Lechner         : AUTO-CI (C++ implementation), FIC-MRCC        
  Spencer Leger          : CASSCF response                               
  Dagmar Lenk            : GEPOL surface, SMD, ORCA-2-JSON               
  Dimitrios Liakos       : Extrapolation schemes; Compound Job, Property file
  Dimitrios Manganas     : Further ROCIS development; embedding schemes. LFT, Crystal Embedding 
  Dimitrios Pantazis     : SARC Basis sets                               
  Anastasios Papadopoulos: AUTO-CI, single reference methods and gradients 
  Taras Petrenko         : pre 6.0 DFT Hessian and TD-DFT gradient,  ECA, NRVS 
  Petra Pikulova         : Analytic Raman intensities                    
  Peter Pinski           : DLPNO-MP2, DLPNO-MP2 Gradient                 
  Shashank Vittal Rao    : ES-AILFT, MagRelax                            
  Christoph Reimann      : Effective Core Potentials                     
  Marius Retegan         : Local ZFS, SOC                                
  Christoph Riplinger    : Optimizer, TS searches, QM/MM, DLPNO-CCSD(T), (RO)-DLPNO pert. Triples 
  Michael Roemelt        : Original ROCIS implementation, recursive CI coupling coefficients
  Masaaki Saitow         : Open-shell DLPNO-CCSD energy and density      
  Barbara Sandhoefer     : DKH picture change effects                    
  Yorick L. A. Schmerwitz: GMF and freeze-and-release deltaSCF, NEB S-IDPP initial path                    
  Kantharuban Sivalingam : CASSCF convergence/infrastructure, NEVPT2, NEVPT3, NEVPT4(SD), FIC-MRCI and CEPA variants
  Bernardo de Souza      : ESD, SOC TD-DFT                               
  Georgi L. Stoychev     : AutoAux, RI-MP2 NMR, DLPNO-MP2 response, X2C  
  Van Anh Tran           : RI-MP2 g-tensors                              
  Willem Van den Heuvel  : Paramagnetic NMR                              
  Zikuan Wang            : NOTCH, Electric field optimization            
  Frank Wennmohs         : Technical directorship and infrastructure     
  Hang Xu                : AUTO-CI-Response properties                   
                                                                         
[FACCTs GmbH]                                                            
  Markus Bursch, Nicolas Foglia, Miquel Garcia-Rates, Ingolf Harden, Hagen Neugebauer, Anastasios Papadopoulos, 
  Christoph Riplinger, Bernardo de Souza, Georgi L. Stoychev                                                    
                                                                 
  APM, various basis sets, CI-OPT, improved COSX, DLPNO-Multilevel,           
  DOCKER, DRACO, updates on ESD, Fragmentator, GOAT, IRC, LR-CPCM, L-BFGS, MBIS, meta-GGA TD-DFT gradient, ML-optimized integration grids, 
  MM, NACMEs, nearIR, NEB, NEB-TS, NL-DFT gradient (VV10), 2- and 3-layer-ONIOM, interface openCOSMO-RS, QMMM,   
  Crystal-QMMM, RESP, rigid body optimization, SF, symmetry and pop. for TD-DFT, various functionals, SOLVATOR                                   
                                                                         
[Other institutions]                                                     
  V. Asgeirsson          : NEB                                           
  Christoph Bannwarth    : sTDA-DFT, sTD-DFT, PBEh-3c, B97-3c, D3        
  Giovanni Bistoni       : ETS/NOCV, ADLD/ADEX, COVALED                  
  Martin Brehm           : Molecular dynamics                            
  Ronald Cardenas        : ETS/NOCV                                      
  Martina Colucci        : COVALED                                       
  Sebastian Ehlert       : rSCAN, r2SCAN, r2SCAN-3c, D4, dhf basis sets  
  Marvin Friede          : D4 for Fr, Ra, Ac-Lr                          
  Lars Goerigk           : TD-DFT with DH, B97 family of functionals     
  Stefan Grimme          : VdW corrections, initial TS optimization, DFT functionals, gCP, sTDA/sTD-DF 
  Waldemar Hujo          : DFT-NL                                        
  H. Jonsson             : NEB                                           
  Holger Kruse           : gCP                                           
  Marcel Mueller         : wB97X-3c, vDZP basis set                      
  Hagen Neugebauer       : wr2SCAN, Native XTB                           
  Gianluca Regni         : ADLD/ADEX                                     
  Tobias Risthaus        : pre 6.0 range-separated hybrid DFT and stability analysis
  Lukas Wittmann         : regularized MP2, r2SCAN double-hybrids, wr2SCAN        
                                                                         
We gratefully acknowledge several colleagues who have allowed us to      
interface, adapt or use parts of their codes:                            
  Ed Valeev, F. Pavosevic, A. Kumar             : LibInt (2-el integral package), F12 methods 
  Garnet Chan, S. Sharma, J. Yang, R. Olivares  : DMRG                   
  Ulf Ekstrom                                   : XCFun DFT Library      
  Mihaly Kallay                                 : mrcc  (arbitrary order and MRCC methods)
  Frank Weinhold                                : gennbo (NPA and NBO analysis)           
  Simon Mueller                                 : openCOSMO-RS                            
  Christopher J. Cramer and Donald G. Truhlar   : smd solvation model                     
  S Lehtola, MJT Oliveira, MAL Marques          : LibXC Library                           
  Liviu Ungur et al                             : ANISO software                          


 Your calculation uses the libint2 library for the computation of 2-el integrals
 For citations please refer to: http://libint.valeyev.net

 Your ORCA version has been built with support for libXC version: 7.0.0
 For citations please refer to: https://libxc.gitlab.io

 This ORCA versions uses:
   CBLAS   interface :  Fast vector & matrix operations
   LAPACKE interface :  Fast linear algebra routines
   SCALAPACK package :  Parallel linear algebra routines
   Shared memory     :  Shared parallel matrices
   BLAS/LAPACK       :  OpenBLAS 0.3.29  USE64BITINT DYNAMIC_ARCH NO_AFFINITY Zen SINGLE_THREADED
        Core in use  :  Zen
   Copyright (c) 2011-2014, The OpenBLAS Project


  ***********************************
  * Starting time: Sun Apr  5 14:30:36 2026
  * Host name:     QC1
  * Process ID:    26503
  * Working dir.:  /home/user/QC/radical/allyl/split-ts1_2
  ***********************************

NOTE: MaxCore=1200 MB was set to SCF,MP2,MDCI,CIPSI,MRCI,RASCI and CIS
      => If you want to overwrite this, your respective input block should be placed after the MaxCore statement
Warning: RI is on but no J-basis has been assigned. Assigning Def2/J (nothing to worry about!)
================================================================================

----- Orbital basis set information -----
Your calculation utilizes the basis: def-SVP
   H-Kr: A. Schäfer, H. Horn, R. Ahlrichs; J. Chem. Phys. 97, 2571 (1992)
   Rb-At: K. Eichkorn, F. Weigend, O. Treutler, R. Ahlrichs; Theor. Chem. Acc. 97, 119 (1997)
   Rn: F. Weigend, R. Ahlrichs; Phys. Chem. Chem. Phys. 7, 3297 (2005)
   Fr-Ra: I. S. Lim, P. Schwerdtfeger, B. Metz, H. Stoll, J. Chem. Phys. 122, 104103 (2005)
   Ac-Lr: X. Cao, M. Dolg, J. Molec. Struct. Theochem. 673 (2004)
----- AuxJ basis set information -----
Your calculation utilizes the auxiliary basis: def2/J
   H-Rn: F. Weigend, Phys. Chem. Chem. Phys. 8, 1057 (2006).
   Fr-Lr: K. Eichkorn, F. Weigend, O. Treutler, R. Ahlrichs; Theor. Chem. Acc. 97, 119 (1997).

================================================================================
                                        WARNINGS
                       Please study these warnings very carefully!
================================================================================


WARNING: your system is open-shell and RHF/RKS was chosen
  ===> : WILL SWITCH to UHF/UKS


================================================================================
                                       INPUT FILE
================================================================================
NAME = radical_015.inp
|  1> ! B3LYP def-SVP 
|  2> %maxcore 1200
|  3> %pal nprocs 8 end
|  4> * xyz 0 2
|  5> C    0.62963900   0.43752700   0.17681500
|  6> C    0.69430000   0.04855200   1.48141200
|  7> H    1.56342000   0.68196900  -0.34320200
|  8> H    1.64652800   0.00077600   2.01517400
|  9> H   -0.20859100  -0.22716800   2.03554700
| 10> C   -0.57880500   0.49302000  -0.58747700
| 11> H   -1.53333600   0.43879500  -0.05080000
| 12> H   -0.59108900   1.09282000  -1.50384700
| 13> H   -0.66550900  -0.77670300  -1.24408300
| 14> Br  -0.95655700  -2.18958800  -1.97953900
| 15> *
| 16> 
| 17>                          ****END OF INPUT****
================================================================================

                       ****************************
                       * Single Point Calculation *
                       ****************************

---------------------------------
CARTESIAN COORDINATES (ANGSTROEM)
---------------------------------
  C      0.629639    0.437527    0.176815
  C      0.694300    0.048552    1.481412
  H      1.563420    0.681969   -0.343202
  H      1.646528    0.000776    2.015174
  H     -0.208591   -0.227168    2.035547
  C     -0.578805    0.493020   -0.587477
  H     -1.533336    0.438795   -0.050800
  H     -0.591089    1.092820   -1.503847
  H     -0.665509   -0.776703   -1.244083
  Br    -0.956557   -2.189588   -1.979539

----------------------------
CARTESIAN COORDINATES (A.U.)
----------------------------
  NO LB      ZA    FRAG     MASS         X           Y           Z
   0 C     6.0000    0    12.011    1.189845    0.826806    0.334132
   1 C     6.0000    0    12.011    1.312037    0.091750    2.799463
   2 H     1.0000    0     1.008    2.954436    1.288735   -0.648558
   3 H     1.0000    0     1.008    3.111487    0.001466    3.808127
   4 H     1.0000    0     1.008   -0.394180   -0.429285    3.846626
   5 C     6.0000    0    12.011   -1.093783    0.931673   -1.110171
   6 H     1.0000    0     1.008   -2.897585    0.829202   -0.095998
   7 H     1.0000    0     1.008   -1.116996    2.065131   -2.841859
   8 H     1.0000    0     1.008   -1.257630   -1.467756   -2.350976
   9 Br   35.0000    0    79.900   -1.807631   -4.137722   -3.740787

--------------------------------
INTERNAL COORDINATES (ANGSTROEM)
--------------------------------
 C      0   0   0     0.000000000000     0.00000000     0.00000000
 C      1   0   0     1.362885148483     0.00000000     0.00000000
 H      1   2   0     1.096410747674   118.50460406     0.00000000
 H      2   1   3     1.092667645171   121.42806860     1.47182269
 H      2   1   3     1.094668568337   121.15245625   181.38929353
 C      1   2   3     1.430929290863   124.22298494   177.07499222
 H      6   1   2     1.096399554412   118.15605806    14.19344793
 H      6   1   2     1.095283028973   118.52769388   161.54297245
 H      6   1   2     1.432077344134   105.16744964   267.01470301
 Br     9   6   1     1.619212305248   173.11435366   150.59789345

---------------------------
INTERNAL COORDINATES (A.U.)
---------------------------
 C      0   0   0     0.000000000000     0.00000000     0.00000000
 C      1   0   0     2.575479682621     0.00000000     0.00000000
 H      1   2   0     2.071916043391   118.50460406     0.00000000
 H      2   1   3     2.064842604770   121.42806860     1.47182269
 H      2   1   3     2.068623801569   121.15245625   181.38929353
 C      1   2   3     2.704064476737   124.22298494   177.07499222
 H      6   1   2     2.071894891192   118.15605806    14.19344793
 H      6   1   2     2.069784963890   118.52769388   161.54297245
 H      6   1   2     2.706233983006   105.16744964   267.01470301
 Br     9   6   1     3.059867809593   173.11435366   150.59789345

---------------------
BASIS SET INFORMATION
---------------------
There are 3 groups of distinct atoms

 Group   1 Type C   : 7s4p1d contracted to 3s2p1d pattern {511/31/1}
 Group   2 Type H   : 4s1p contracted to 2s1p pattern {31/1}
 Group   3 Type Br  : 14s10p6d contracted to 5s4p3d pattern {63311/5311/411}

Atom   0C    basis set group =>   1
Atom   1C    basis set group =>   1
Atom   2H    basis set group =>   2
Atom   3H    basis set group =>   2
Atom   4H    basis set group =>   2
Atom   5C    basis set group =>   1
Atom   6H    basis set group =>   2
Atom   7H    basis set group =>   2
Atom   8H    basis set group =>   2
Atom   9Br   basis set group =>   3
---------------------------------
AUXILIARY/J BASIS SET INFORMATION
---------------------------------
There are 3 groups of distinct atoms

 Group   1 Type C   : 12s5p4d2f1g contracted to 6s4p3d1f1g pattern {711111/2111/211/2/1}
 Group   2 Type H   : 5s2p1d contracted to 3s1p1d pattern {311/2/1}
 Group   3 Type Br  : 19s5p5d3f1g contracted to 8s4p3d2f1g pattern {121111111/2111/311/21/1}

Atom   0C    basis set group =>   1
Atom   1C    basis set group =>   1
Atom   2H    basis set group =>   2
Atom   3H    basis set group =>   2
Atom   4H    basis set group =>   2
Atom   5C    basis set group =>   1
Atom   6H    basis set group =>   2
Atom   7H    basis set group =>   2
Atom   8H    basis set group =>   2
Atom   9Br   basis set group =>   3


           ************************************************************
           *        Program running with 8 parallel MPI-processes     *
           *              working on a common directory               *
           ************************************************************
------------------------------------------------------------------------------
                             ORCA STARTUP CALCULATIONS
                           -- RI-GTO INTEGRALS CHOSEN --
------------------------------------------------------------------------------
------------------------------------------------------------------------------
                   ___                                                        
                  /   \      - P O W E R E D   B Y -                         
                 /     \                                                     
                 |  |  |   _    _      __       _____    __    __             
                 |  |  |  | |  | |    /  \     |  _  \  |  |  /  |          
                  \  \/   | |  | |   /    \    | | | |  |  | /  /          
                 / \  \   | |__| |  /  /\  \   | |_| |  |  |/  /          
                |  |  |   |  __  | /  /__\  \  |    /   |      \           
                |  |  |   | |  | | |   __   |  |    \   |  |\   \          
                \     /   | |  | | |  |  |  |  | |\  \  |  | \   \       
                 \___/    |_|  |_| |__|  |__|  |_| \__\ |__|  \__/        
                                                                              
                      - O R C A' S   B I G   F R I E N D -                    
                                      &                                       
                       - I N T E G R A L  F E E D E R -                       
                                                                              
 v1 FN, 2020, v2 2021, v3 2022-2024                                           
------------------------------------------------------------------------------


----------------------
SHARK INTEGRAL PACKAGE
----------------------

Number of atoms                             ...     10
Number of basis functions                   ...    104
Number of shells                            ...     48
Maximum angular momentum                    ...      2
Integral batch strategy                     ... SHARK/LIBINT Hybrid
RI-J (if used) integral strategy            ... SPLIT-RIJ (Revised 2003 algorithm where possible)
Printlevel                                  ...      1
Contraction scheme used                     ... SEGMENTED contraction
Prescreening option                         ... SCHWARTZ
   Thresh                                   ... 1.000e-10
   Tcut                                     ... 1.000e-11
   Tpresel                                  ... 1.000e-11 
Coulomb Range Separation                    ... NOT USED
Exchange Range Separation                   ... NOT USED
Multipole approximations                    ... NOT USED
Finite Nucleus Model                        ... NOT USED
CABS basis                                  ... NOT available
Auxiliary Coulomb fitting basis             ... AVAILABLE
   # of basis functions in Aux-J            ...    271
   # of shells in Aux-J                     ...     93
   Maximum angular momentum in Aux-J        ...      4
Auxiliary J/K fitting basis                 ... NOT available
Auxiliary Correlation fitting basis         ... NOT available
Auxiliary 'external' fitting basis          ... NOT available

Checking pre-screening integrals            ... done (  0.0 sec) Dimension = 48
   => SHARK Basis and OBASIS are compatible. Storing Pre-screening
Shell pair information
Shell pair cut-off parameter TPreSel        ...   1.0e-11
Total number of shell pairs                 ...      1176
Shell pairs after pre-screening             ...      1084
Total number of primitive shell pairs       ...      4753
Primitive shell pairs kept                  ...      3318
          la=0 lb=0:    331 shell pairs
          la=1 lb=0:    383 shell pairs
          la=1 lb=1:    124 shell pairs
          la=2 lb=0:    142 shell pairs
          la=2 lb=1:     86 shell pairs
          la=2 lb=2:     18 shell pairs

Checking whether 4 symmetric matrices of dimension 104 fit in memory
:Max Core in MB      =   1200.00
 MB in use           =      4.72
 MB left             =   1195.28
 MB needed           =      0.17
 Data fit in memory  = YES
Calculating RI/J V-Matrix + Cholesky decomp.... done (  0.0 sec)
Calculating Nuclear repulsion               ... done (  0.0 sec) ENN=    195.910477512103 Eh

Diagonalization of the overlap matrix:
Smallest eigenvalue                        ... 2.709e-03
Time for diagonalization                   ...    0.001 sec
Threshold for overlap eigenvalues          ... 1.000e-07
Number of eigenvalues below threshold      ... 0
Time for construction of square roots      ...    0.000 sec
Total time needed                          ...    0.002 sec

-------------------
DFT GRID GENERATION
-------------------

General Integration Accuracy     IntAcc      ... 4.388
Radial Grid Type                 RadialGrid  ... OptM3 with GC (2021)
Angular Grid (max. ang.)         AngularGrid ... 4 (Lebedev-302)
Angular grid pruning method      GridPruning ... 4 (adaptive)
Weight generation scheme         WeightScheme... mBecke (2022)
Basis function cutoff            BFCut       ... 1.0000e-10
Integration weight cutoff        WCut        ... 1.0000e-14
Partially contracted basis set               ... off
Rotationally invariant grid construction     ... off
Angular grids for H and He will be reduced by one unit
Core-polarized basis detected: some atoms will have their core
                               angular grid increased.

Total number of grid points                  ...    49010
Total number of batches                      ...      772
Average number of points per batch           ...       63
Average number of grid points per atom       ...     4901

--------------------
COSX GRID GENERATION
--------------------

GRIDX 1
-------
General Integration Accuracy     IntAcc      ... 3.816
Radial Grid Type                 RadialGrid  ... OptM3 with GC (2021)
Angular Grid (max. ang.)         AngularGrid ... 1 (Lebedev-50)
Angular grid pruning method      GridPruning ... 4 (adaptive)
Weight generation scheme         WeightScheme... mBecke (2022)
Basis function cutoff            BFCut       ... 1.0000e-10
Integration weight cutoff        WCut        ... 1.0000e-14
Partially contracted basis set               ... on
Rotationally invariant grid construction     ... off
Angular grids for H and He will be reduced by one unit
Core-polarized basis detected: some atoms will have their core
                               angular grid increased.

Total number of grid points                  ...    11057
Total number of batches                      ...       92
Average number of points per batch           ...      120
Average number of grid points per atom       ...     1106
UseSFitting                                  ... on

GRIDX 2
-------
General Integration Accuracy     IntAcc      ... 4.020
Radial Grid Type                 RadialGrid  ... OptM3 with GC (2021)
Angular Grid (max. ang.)         AngularGrid ... 2 (Lebedev-110)
Angular grid pruning method      GridPruning ... 4 (adaptive)
Weight generation scheme         WeightScheme... mBecke (2022)
Basis function cutoff            BFCut       ... 1.0000e-10
Integration weight cutoff        WCut        ... 1.0000e-14
Partially contracted basis set               ... on
Rotationally invariant grid construction     ... off
Angular grids for H and He will be reduced by one unit
Core-polarized basis detected: some atoms will have their core
                               angular grid increased.

Total number of grid points                  ...    16374
Total number of batches                      ...      131
Average number of points per batch           ...      124
Average number of grid points per atom       ...     1637
UseSFitting                                  ... on

GRIDX 3
-------
General Integration Accuracy     IntAcc      ... 4.338
Radial Grid Type                 RadialGrid  ... OptM3 with GC (2021)
Angular Grid (max. ang.)         AngularGrid ... 3 (Lebedev-194)
Angular grid pruning method      GridPruning ... 4 (adaptive)
Weight generation scheme         WeightScheme... mBecke (2022)
Basis function cutoff            BFCut       ... 1.0000e-10
Integration weight cutoff        WCut        ... 1.0000e-14
Partially contracted basis set               ... on
Rotationally invariant grid construction     ... off
Angular grids for H and He will be reduced by one unit
Core-polarized basis detected: some atoms will have their core
                               angular grid increased.

Total number of grid points                  ...    28533
Total number of batches                      ...      229
Average number of points per batch           ...      124
Average number of grid points per atom       ...     2853
UseSFitting                                  ... on
Grids setup in   0.4 sec
Initializing property integral containers    ... done (  0.0 sec)

SHARK setup successfully completed in   0.4 seconds

Maximum memory used throughout the entire STARTUP-calculation: 17.6 MB


           ************************************************************
           *        Program running with 8 parallel MPI-processes     *
           *              working on a common directory               *
           ************************************************************
-------------------------------------------------------------------------------
                                 ORCA GUESS
                   Start orbitals & Density for SCF / CASSCF
-------------------------------------------------------------------------------

------------
SCF SETTINGS
------------
Hamiltonian:
 Density Functional     Method          .... DFT(GTOs)
 Exchange Functional    Exchange        .... B88
   X-Alpha parameter    XAlpha          ....  0.666667
   Becke's b parameter  XBeta           ....  0.004200
 Correlation Functional Correlation     .... LYP
 LDA part of GGA corr.  LDAOpt          .... VWN-5
 Gradients option       PostSCFGGA      .... off
 Hybrid DFT is turned on
   Fraction HF Exchange ScalHFX         ....  0.200000
   Scaling of DF-GGA-X  ScalDFX         ....  0.720000
   Scaling of DF-GGA-C  ScalDFC         ....  0.810000
   Scaling of DF-LDA-C  ScalLDAC        ....  1.000000
   Perturbative correction              ....  0.000000
   NL short-range parameter             ....  4.800000
 RI-approximation to the Coulomb term is turned on
   Number of AuxJ basis functions       .... 271
   RIJ-COSX (HFX calculated with COS-X)).... on


General Settings:
 Integral files         IntName         .... radical_015
 Hartree-Fock type      HFTyp           .... UHF
 Total Charge           Charge          ....    0
 Multiplicity           Mult            ....    2
 Number of Electrons    NEL             ....   59
 Basis Dimension        Dim             ....  104
 Nuclear Repulsion      ENuc            ....    195.9104775121 Eh

Convergence Acceleration:
 AO-DIIS                CNVDIIS         .... on
   Start iteration      DIISMaxIt       ....    12
   Startup error        DIISStart       ....  0.200000
   # of expansion vecs  DIISMaxEq       ....     5
   Bias factor          DIISBfac        ....   1.050
   Max. coefficient     DIISMaxC        ....  10.000
 MO-DIIS                CNVKDIIS        .... off
 Trust-Rad. Augm. Hess. CNVTRAH         .... auto
   Auto Start mean grad. ratio tolernc. ....  1.125000
   Auto Start start iteration           ....    50
   Auto Start num. interpolation iter.  ....    10
   Max. Number of Micro iterations      ....    24
   Max. Number of Macro iterations      .... Maxiter - #DIIS iter
   Number of Davidson start vectors     ....     2
   Converg. threshold    (grad. norm)   ....   5.000e-05
   Grad. Scal. Fac. for Micro threshold ....   0.100
   Minimum threshold for Micro iter.    ....   1.000e-02
   NR start threshold (gradient norm)   ....   1.000e-04
   Initial trust radius                 ....   0.400
   Minimum AH scaling param. (alpha)    ....   1.000
   Maximum AH scaling param. (alpha)    .... 1000.000
   Quad. conv. algorithm                .... NR
   White noise on init. David. guess    .... on
   Maximum white noise                  ....   0.010
   Pseudo random numbers                .... off
   Inactive MOs                         .... canonical
   Orbital update algorithm             .... Taylor
   Preconditioner                       .... Diag
   Full preconditioner red. dimension   ....   250
 SOSCF                 CNVSOSCF           .... on
   Start iteration     SOSCFMaxIt         ....   150
   Startup grad/error  SOSCFStart         ....  0.003300
   Hessian update      SOSCFHessUp        .... L-BFGS
   Autom. constraints  SOSCFAutoConstrain .... off
 Level Shifting         CNVShift        .... on
   Level shift para.    LevelShift      ....    0.2500
   Turn off err/grad.   ShiftErr        ....    0.0010
 Zerner damping         CNVZerner       .... off
 Static damping         CNVDamp         .... on
   Fraction old density DampFac         ....    0.7000
   Max. Damping (<1)    DampMax         ....    0.9800
   Min. Damping (>=0)   DampMin         ....    0.0000
   Turn off err/grad.   DampErr         ....    0.1000

SCF Procedure:
 Maximum # iterations   MaxIter         ....   125
 SCF integral mode      SCFMode         .... Direct
   Integral package                     .... SHARK and LIBINT hybrid scheme
 Reset frequency        DirectResetFreq ....    20
 Integral Threshold     Thresh          ....  1.000e-10 Eh
 Primitive CutOff       TCut            ....  1.000e-11 Eh

Convergence Tolerance:
 Convergence Check Mode ConvCheckMode   .... Total+1el-Energy
 Convergence forced     ConvForced      .... 0
 Energy Change          TolE            ....  1.000e-06 Eh
 1-El. energy change                    ....  1.000e-03 Eh
 Orbital Gradient       TolG            ....  5.000e-05
 Orbital Rotation angle TolX            ....  5.000e-05
 DIIS Error             TolErr          ....  1.000e-06

------------------------------
INITIAL GUESS: MODEL POTENTIAL
------------------------------
Loading Hartree-Fock densities                     ... done
Calculating cut-offs                               ... done
Initializing the effective Hamiltonian             ... done
Setting up the integral package (SHARK)            ... done
Starting the Coulomb interaction                   ... done (   0.0 sec)
Making the grid                                    ... done (   0.1 sec)
Mapping shells                                     ... done
Starting the XC term evaluation                    ... done (   0.0 sec)
  promolecular density results
     # of electrons  =     58.998203574
     EX              =   -106.845583475
     EC              =     -2.450401275
     EX+EC           =   -109.295984750
Transforming the Hamiltonian                       ... done (   0.0 sec)
Diagonalizing the Hamiltonian                      ... done (   0.0 sec)
Back transforming the eigenvectors                 ... done (   0.0 sec)
Now organizing SCF variables                       ... done
                      ------------------
                      INITIAL GUESS DONE (   0.1 sec)
                      ------------------
             **** ENERGY FILE WAS UPDATED (radical_015.en.tmp) ****
Finished Guess after   0.4 sec
Maximum memory used throughout the entire GUESS-calculation: 8.9 MB


           ************************************************************
           *        Program running with 8 parallel MPI-processes     *
           *              working on a common directory               *
           ************************************************************

-------------------------------------------------------------------------------------------
                                      ORCA LEAN-SCF
                              memory conserving SCF solver
-------------------------------------------------------------------------------------------

----------------------------------------D-I-I-S--------------------------------------------
Iteration    Energy (Eh)           Delta-E    RMSDP     MaxDP     DIISErr   Damp  Time(sec)
-------------------------------------------------------------------------------------------
               ***  Starting incremental Fock matrix formation  ***
    1    -2691.3352690675069425     0.00e+00  4.21e-03  3.10e-02  7.04e-02  0.700   0.3
    2    -2691.3734452079834227    -3.82e-02  3.10e-03  2.00e-02  3.82e-02  0.700   0.2
                               ***Turning on AO-DIIS***
    3    -2691.3899765353166913    -1.65e-02  1.47e-03  1.27e-02  1.55e-02  0.700   0.2
    4    -2691.3995352150359395    -9.56e-03  3.01e-03  2.60e-02  9.58e-03  0.000   0.2
    5    -2691.4206101498180033    -2.11e-02  6.24e-04  4.98e-03  3.58e-03  0.000   0.2
                              *** Initializing SOSCF ***
---------------------------------------S-O-S-C-F--------------------------------------
Iteration    Energy (Eh)           Delta-E    RMSDP     MaxDP     MaxGrad    Time(sec)
--------------------------------------------------------------------------------------
    6    -2691.4208872534431976    -2.77e-04  3.73e-04  4.00e-03  2.35e-03     0.2
               *** Restarting incremental Fock matrix formation ***
    7    -2691.4209730310517443    -8.58e-05  3.53e-04  3.55e-03  2.40e-03     0.2
    8    -2691.4210301626767432    -5.71e-05  4.96e-04  5.74e-03  1.97e-03     0.2
    9    -2691.4210466941094637    -1.65e-05  1.89e-04  1.49e-03  1.59e-03     0.2
   10    -2691.4210601857275833    -1.35e-05  7.70e-05  5.19e-04  3.48e-04     0.2
   11    -2691.4210607061959308    -5.20e-07  4.04e-05  3.66e-04  2.29e-04     0.2
                 **** Energy Check signals convergence ****

               *****************************************************
               *                     SUCCESS                       *
               *           SCF CONVERGED AFTER  11 CYCLES          *
               *****************************************************

Recomputing exchange energy using gridx3       ... done (    0.249 sec)
Old exchange energy                            :    -21.426351971 Eh
New exchange energy                            :    -21.426363956 Eh
Exchange energy change after final integration :     -0.000011985 Eh
Total energy after final integration           :  -2691.421073391 Eh
             **** ENERGY FILE WAS UPDATED (radical_015.en.tmp) ****

----------------
TOTAL SCF ENERGY
----------------

Total Energy       :      -2691.42107339095128 Eh          -73237.29072 eV

Components:
Nuclear Repulsion  :        195.91047751210334 Eh            5330.99512 eV
Electronic Energy  :      -2887.33153891832262 Eh          -78568.28551 eV
One Electron Energy:      -4129.44866471064779 Eh         -112368.01085 eV
Two Electron Energy:       1242.11712579232517 Eh           33799.72534 eV

Virial components:
Potential Energy   :      -5378.50761527751638 Eh         -146356.63284 eV
Kinetic Energy     :       2687.08654188656510 Eh           73119.34212 eV
Virial Ratio       :          2.00161309709859

DFT components:
N(Alpha)           :       29.999990901002 electrons
N(Beta)            :       28.999987868179 electrons
N(Total)           :       58.999978769181 electrons
E(X)               :      -85.239623884865 Eh       
E(C)               :       -2.874029438852 Eh       
E(XC)              :      -88.113653323716 Eh       

---------------
SCF CONVERGENCE
---------------

  Last Energy change         ...    5.2047e-07  Tolerance :   1.0000e-06
  Last MAX-Density change    ...    3.6621e-04  Tolerance :   1.0000e-05
  Last RMS-Density change    ...    4.0365e-05  Tolerance :   1.0000e-06
  Last DIIS Error            ...    2.3511e-03  Tolerance :   1.0000e-06
  Last Orbital Gradient      ...    2.2942e-04  Tolerance :   5.0000e-05
  Last Orbital Rotation      ...    7.5837e-04  Tolerance :   5.0000e-05


----------------------
UHF SPIN CONTAMINATION
----------------------

Warning: in a DFT calculation there is little theoretical justification to 
         calculate <S**2> as in Hartree-Fock theory. We will do it anyways
         but you should keep in mind that the values have only limited relevance

Expectation value of <S**2>     :     0.773937
Ideal value S*(S+1) for S=0.5   :     0.750000
Deviation                       :     0.023937

----------------
ORBITAL ENERGIES
----------------
                 SPIN UP ORBITALS
  NO   OCC          E(Eh)            E(eV) 
   0   1.0000    -482.749260    -13136.2752 
   1   1.0000     -62.432385     -1698.8716 
   2   1.0000     -56.264862     -1531.0447 
   3   1.0000     -56.261848     -1530.9627 
   4   1.0000     -56.261839     -1530.9625 
   5   1.0000     -10.228248      -278.3248 
   6   1.0000     -10.222773      -278.1758 
   7   1.0000     -10.221736      -278.1476 
   8   1.0000      -8.650493      -235.3919 
   9   1.0000      -6.484322      -176.4474 
  10   1.0000      -6.471095      -176.0874 
  11   1.0000      -6.471024      -176.0855 
  12   1.0000      -2.597973       -70.6944 
  13   1.0000      -2.594527       -70.6007 
  14   1.0000      -2.594478       -70.5993 
  15   1.0000      -2.584350       -70.3237 
  16   1.0000      -2.584346       -70.3236 
  17   1.0000      -0.817258       -22.2387 
  18   1.0000      -0.742912       -20.2157 
  19   1.0000      -0.701804       -19.0970 
  20   1.0000      -0.578585       -15.7441 
  21   1.0000      -0.502692       -13.6789 
  22   1.0000      -0.462254       -12.5786 
  23   1.0000      -0.438090       -11.9210 
  24   1.0000      -0.411319       -11.1926 
  25   1.0000      -0.384761       -10.4699 
  26   1.0000      -0.320788        -8.7291 
  27   1.0000      -0.263391        -7.1672 
  28   1.0000      -0.263083        -7.1588 
  29   1.0000      -0.234609        -6.3840 
  30   0.0000      -0.016644        -0.4529 
  31   0.0000       0.058790         1.5998 
  32   0.0000       0.076146         2.0720 
  33   0.0000       0.094034         2.5588 
  34   0.0000       0.135054         3.6750 
  35   0.0000       0.135760         3.6942 
  36   0.0000       0.145342         3.9550 
  37   0.0000       0.247737         6.7413 
  38   0.0000       0.313249         8.5239 
  39   0.0000       0.342471         9.3191 
  40   0.0000       0.374847        10.2001 

                 SPIN DOWN ORBITALS
  NO   OCC          E(Eh)            E(eV) 
   0   1.0000    -482.748268    -13136.2482 
   1   1.0000     -62.431863     -1698.8574 
   2   1.0000     -56.262791     -1530.9884 
   3   1.0000     -56.261463     -1530.9523 
   4   1.0000     -56.261453     -1530.9520 
   5   1.0000     -10.225279      -278.2440 
   6   1.0000     -10.220419      -278.1117 
   7   1.0000     -10.215515      -277.9783 
   8   1.0000      -8.649020      -235.3518 
   9   1.0000      -6.480325      -176.3386 
  10   1.0000      -6.470424      -176.0692 
  11   1.0000      -6.470352      -176.0672 
  12   1.0000      -2.595169       -70.6181 
  13   1.0000      -2.592307       -70.5403 
  14   1.0000      -2.592257       -70.5389 
  15   1.0000      -2.583966       -70.3133 
  16   1.0000      -2.583962       -70.3132 
  17   1.0000      -0.808794       -22.0084 
  18   1.0000      -0.728825       -19.8323 
  19   1.0000      -0.683538       -18.6000 
  20   1.0000      -0.573505       -15.6059 
  21   1.0000      -0.498719       -13.5708 
  22   1.0000      -0.457428       -12.4472 
  23   1.0000      -0.413750       -11.2587 
  24   1.0000      -0.406238       -11.0543 
  25   1.0000      -0.382591       -10.4108 
  26   1.0000      -0.297941        -8.1074 
  27   1.0000      -0.258488        -7.0338 
  28   1.0000      -0.258160        -7.0249 
  29   0.0000      -0.142984        -3.8908 
  30   0.0000      -0.000349        -0.0095 
  31   0.0000       0.060807         1.6546 
  32   0.0000       0.078539         2.1371 
  33   0.0000       0.098245         2.6734 
  34   0.0000       0.138947         3.7810 
  35   0.0000       0.139769         3.8033 
  36   0.0000       0.162084         4.4105 
  37   0.0000       0.249076         6.7777 
  38   0.0000       0.317614         8.6427 
  39   0.0000       0.346534         9.4297 
*Only the first 10 virtual orbitals were printed.

                    ********************************
                    * MULLIKEN POPULATION ANALYSIS *
                    ********************************

--------------------------------------------
MULLIKEN ATOMIC CHARGES AND SPIN POPULATIONS
--------------------------------------------
   0 C :   -0.061166   -0.199160
   1 C :    0.003259    0.471338
   2 H :    0.025458    0.007165
   3 H :    0.044395   -0.021479
   4 H :    0.037988   -0.020285
   5 C :   -0.003007    0.489970
   6 H :    0.053222   -0.014620
   7 H :    0.054152   -0.013077
   8 H :    0.096923   -0.040090
   9 Br:   -0.251224    0.340238
Sum of atomic charges         :   -0.0000000
Sum of atomic spin populations:    1.0000000

-----------------------------------------------------
MULLIKEN REDUCED ORBITAL CHARGES AND SPIN POPULATIONS
-----------------------------------------------------
CHARGE
  0 C s       :     3.150626  s :     3.150626
      pz      :     0.959402  p :     2.874026
      px      :     0.962299
      py      :     0.952325
      dz2     :     0.008919  d :     0.036515
      dxz     :     0.012906
      dyz     :     0.006420
      dx2y2   :     0.004663
      dxy     :     0.003607

  1 C s       :     3.131049  s :     3.131049
      pz      :     0.968286  p :     2.840153
      px      :     0.938954
      py      :     0.932914
      dz2     :     0.006749  d :     0.025539
      dxz     :     0.010269
      dyz     :     0.004588
      dx2y2   :     0.002849
      dxy     :     0.001084

  2 H s       :     0.952110  s :     0.952110
      pz      :     0.006023  p :     0.022431
      px      :     0.011813
      py      :     0.004595

  3 H s       :     0.932194  s :     0.932194
      pz      :     0.006552  p :     0.023411
      px      :     0.012373
      py      :     0.004486

  4 H s       :     0.938696  s :     0.938696
      pz      :     0.006848  p :     0.023316
      px      :     0.011413
      py      :     0.005055

  5 C s       :     3.062911  s :     3.062911
      pz      :     0.973403  p :     2.913167
      px      :     0.977106
      py      :     0.962658
      dz2     :     0.004251  d :     0.026929
      dxz     :     0.007923
      dyz     :     0.005370
      dx2y2   :     0.006648
      dxy     :     0.002737

  6 H s       :     0.923469  s :     0.923469
      pz      :     0.006612  p :     0.023309
      px      :     0.012158
      py      :     0.004539

  7 H s       :     0.922195  s :     0.922195
      pz      :     0.011536  p :     0.023653
      px      :     0.003777
      py      :     0.008339

  8 H s       :     0.863913  s :     0.863913
      pz      :     0.010548  p :     0.039163
      px      :     0.006418
      py      :     0.022198

  9 Brs       :     7.957351  s :     7.957351
      pz      :     5.855382  p :    17.277605
      px      :     5.968244
      py      :     5.453979
      dz2     :     2.000909  d :    10.016268
      dxz     :     2.000434
      dyz     :     2.007181
      dx2y2   :     2.006187
      dxy     :     2.001558


SPIN
  0 C s       :    -0.026804  s :    -0.026804
      pz      :    -0.033532  p :    -0.178625
      px      :    -0.017973
      py      :    -0.127121
      dz2     :     0.001322  d :     0.006269
      dxz     :     0.000047
      dyz     :     0.003229
      dx2y2   :     0.000352
      dxy     :     0.001320

  1 C s       :     0.047202  s :     0.047202
      pz      :     0.041209  p :     0.425751
      px      :     0.025524
      py      :     0.359018
      dz2     :    -0.000343  d :    -0.001615
      dxz     :    -0.000024
      dyz     :    -0.000591
      dx2y2   :    -0.000611
      dxy     :    -0.000045

  2 H s       :     0.007900  s :     0.007900
      pz      :    -0.000080  p :    -0.000735
      px      :    -0.000042
      py      :    -0.000613

  3 H s       :    -0.023620  s :    -0.023620
      pz      :     0.000136  p :     0.002142
      px      :     0.000122
      py      :     0.001884

  4 H s       :    -0.022194  s :    -0.022194
      pz      :     0.000098  p :     0.001908
      px      :     0.000107
      py      :     0.001703

  5 C s       :     0.043785  s :     0.043785
      pz      :     0.081071  p :     0.447611
      px      :     0.018410
      py      :     0.348129
      dz2     :     0.000037  d :    -0.001425
      dxz     :    -0.000244
      dyz     :    -0.000496
      dx2y2   :    -0.000322
      dxy     :    -0.000399

  6 H s       :    -0.016532  s :    -0.016532
      pz      :     0.000137  p :     0.001912
      px      :     0.000118
      py      :     0.001657

  7 H s       :    -0.015277  s :    -0.015277
      pz      :     0.000863  p :     0.002200
      px      :    -0.000053
      py      :     0.001390

  8 H s       :    -0.052629  s :    -0.052629
      pz      :     0.002584  p :     0.012539
      px      :     0.000187
      py      :     0.009769

  9 Brs       :     0.000503  s :     0.000503
      pz      :     0.064612  p :     0.341082
      px      :     0.006349
      py      :     0.270121
      dz2     :    -0.000027  d :    -0.001348
      dxz     :    -0.000019
      dyz     :    -0.000660
      dx2y2   :    -0.000581
      dxy     :    -0.000060



                     *******************************
                     * LOEWDIN POPULATION ANALYSIS *
                     *******************************

-------------------------------------------
LOEWDIN ATOMIC CHARGES AND SPIN POPULATIONS
-------------------------------------------
   0 C :   -0.026336   -0.119211
   1 C :    0.006721    0.388899
   2 H :    0.036678    0.000403
   3 H :    0.032374   -0.001359
   4 H :    0.030334   -0.001670
   5 C :   -0.022164    0.391769
   6 H :    0.038186    0.001167
   7 H :    0.040930    0.002643
   8 H :    0.033938    0.028768
   9 Br:   -0.170661    0.308590

----------------------------------------------------
LOEWDIN REDUCED ORBITAL CHARGES AND SPIN POPULATIONS
----------------------------------------------------
CHARGE
  0 C s       :     2.875109  s :     2.875109
      pz      :     1.065605  p :     3.057624
      px      :     1.051583
      py      :     0.940436
      dz2     :     0.024415  d :     0.093603
      dxz     :     0.035004
      dyz     :     0.014527
      dx2y2   :     0.011441
      dxy     :     0.008216

  1 C s       :     2.898958  s :     2.898958
      pz      :     1.054180  p :     3.028744
      px      :     1.048170
      py      :     0.926393
      dz2     :     0.018249  d :     0.065578
      dxz     :     0.027511
      dyz     :     0.010039
      dx2y2   :     0.006956
      dxy     :     0.002823

  2 H s       :     0.897777  s :     0.897777
      pz      :     0.017259  p :     0.065545
      px      :     0.034207
      py      :     0.014080

  3 H s       :     0.899162  s :     0.899162
      pz      :     0.017987  p :     0.068464
      px      :     0.036395
      py      :     0.014081

  4 H s       :     0.901544  s :     0.901544
      pz      :     0.018720  p :     0.068122
      px      :     0.033698
      py      :     0.015704

  5 C s       :     2.895509  s :     2.895509
      pz      :     1.038573  p :     3.058901
      px      :     1.060084
      py      :     0.960244
      dz2     :     0.009745  d :     0.067754
      dxz     :     0.021686
      dyz     :     0.013537
      dx2y2   :     0.017303
      dxy     :     0.005483

  6 H s       :     0.892198  s :     0.892198
      pz      :     0.019679  p :     0.069616
      px      :     0.035782
      py      :     0.014155

  7 H s       :     0.888742  s :     0.888742
      pz      :     0.034255  p :     0.070328
      px      :     0.010752
      py      :     0.025321

  8 H s       :     0.837919  s :     0.837919
      pz      :     0.031411  p :     0.128143
      px      :     0.014141
      py      :     0.082591

  9 Brs       :     7.885530  s :     7.885530
      pz      :     5.848535  p :    17.258511
      px      :     5.966056
      py      :     5.443920
      dz2     :     2.001210  d :    10.026620
      dxz     :     2.000604
      dyz     :     2.012168
      dx2y2   :     2.010423
      dxy     :     2.002215


SPIN
  0 C s       :    -0.007174  s :    -0.007174
      pz      :    -0.015251  p :    -0.127342
      px      :    -0.007478
      py      :    -0.104613
      dz2     :     0.003337  d :     0.015305
      dxz     :     0.000630
      dyz     :     0.007240
      dx2y2   :     0.000710
      dxy     :     0.003388

  1 C s       :     0.012688  s :     0.012688
      pz      :     0.034058  p :     0.379727
      px      :     0.013057
      py      :     0.332611
      dz2     :    -0.000855  d :    -0.003516
      dxz     :    -0.000488
      dyz     :    -0.001382
      dx2y2   :    -0.000718
      dxy     :    -0.000073

  2 H s       :     0.003622  s :     0.003622
      pz      :    -0.000363  p :    -0.003219
      px      :    -0.000456
      py      :    -0.002400

  3 H s       :    -0.010537  s :    -0.010537
      pz      :     0.000962  p :     0.009178
      px      :     0.001183
      py      :     0.007033

  4 H s       :    -0.010271  s :    -0.010271
      pz      :     0.000975  p :     0.008601
      px      :     0.001027
      py      :     0.006599

  5 C s       :     0.019442  s :     0.019442
      pz      :     0.063859  p :     0.376233
      px      :     0.009551
      py      :     0.302822
      dz2     :    -0.000169  d :    -0.003906
      dxz     :    -0.000753
      dyz     :    -0.001240
      dx2y2   :    -0.000811
      dxy     :    -0.000932

  6 H s       :    -0.008826  s :    -0.008826
      pz      :     0.001522  p :     0.009993
      px      :     0.001145
      py      :     0.007326

  7 H s       :    -0.008144  s :    -0.008144
      pz      :     0.002956  p :     0.010787
      px      :     0.000161
      py      :     0.007670

  8 H s       :    -0.020960  s :    -0.020960
      pz      :     0.010334  p :     0.049728
      px      :     0.000797
      py      :     0.038597

  9 Brs       :     0.000207  s :     0.000207
      pz      :     0.058198  p :     0.308245
      px      :     0.005529
      py      :     0.244518
      dz2     :     0.000027  d :     0.000138
      dxz     :    -0.000014
      dyz     :     0.000062
      dx2y2   :     0.000070
      dxy     :    -0.000007



                      *****************************
                      * MAYER POPULATION ANALYSIS *
                      *****************************

  NA   - Mulliken gross atomic population
  ZA   - Total nuclear charge
  QA   - Mulliken gross atomic charge
  VA   - Mayer's total valence
  BVA  - Mayer's bonded valence
  FA   - Mayer's free valence

  ATOM       NA         ZA         QA         VA         BVA        FA
  0 C      6.0612     6.0000    -0.0612     4.1182     4.0978     0.0204
  1 C      5.9967     6.0000     0.0033     3.9338     3.7765     0.1573
  2 H      0.9745     1.0000     0.0255     0.9800     0.9799     0.0001
  3 H      0.9556     1.0000     0.0444     0.9759     0.9753     0.0006
  4 H      0.9620     1.0000     0.0380     0.9849     0.9844     0.0005
  5 C      6.0030     6.0000    -0.0030     3.8846     3.7019     0.1827
  6 H      0.9468     1.0000     0.0532     0.9912     0.9909     0.0003
  7 H      0.9458     1.0000     0.0542     0.9831     0.9828     0.0004
  8 H      0.9031     1.0000     0.0969     1.0590     1.0546     0.0044
  9 Br    35.2512    35.0000    -0.2512     0.9474     0.8302     0.1172

  Mayer bond orders larger than 0.100000
B(  0-C ,  1-C ) :   1.7302 B(  0-C ,  2-H ) :   0.9623 B(  0-C ,  5-C ) :   1.2775 
B(  1-C ,  3-H ) :   0.9547 B(  1-C ,  4-H ) :   0.9573 B(  5-C ,  6-H ) :   0.9517 
B(  5-C ,  7-H ) :   0.9393 B(  5-C ,  8-H ) :   0.4062 B(  8-H ,  9-Br) :   0.6143 


-------
TIMINGS
-------

Total SCF time: 0 days 0 hours 0 min 2 sec 

Total time                  ....       2.899 sec
Sum of individual times     ....       2.700 sec  ( 93.1%)

SCF preparation             ....       0.306 sec  ( 10.6%)
Fock matrix formation       ....       2.232 sec  ( 77.0%)
  Startup                   ....       0.004 sec  (  0.2% of F)
  Split-RI-J                ....       0.136 sec  (  6.1% of F)
  Chain of spheres X        ....       1.700 sec  ( 76.2% of F)
  XC integration            ....       0.496 sec  ( 22.2% of F)
    XC Preparation          ....       0.000 sec  (  0.0% of XC)
    Basis function eval.    ....       0.111 sec  ( 22.4% of XC)
    Density eval.           ....       0.100 sec  ( 20.2% of XC)
    XC-Functional eval.     ....       0.037 sec  (  7.4% of XC)
    XC-Potential eval.      ....       0.129 sec  ( 26.0% of XC)
Diagonalization             ....       0.000 sec  (  0.0%)
Density matrix formation    ....       0.025 sec  (  0.9%)
Total Energy calculation    ....       0.012 sec  (  0.4%)
Population analysis         ....       0.009 sec  (  0.3%)
Orbital Transformation      ....       0.014 sec  (  0.5%)
Orbital Orthonormalization  ....       0.000 sec  (  0.0%)
DIIS solution               ....       0.062 sec  (  2.1%)
SOSCF solution              ....       0.040 sec  (  1.4%)
Finished LeanSCF after   2.9 sec

Maximum memory used throughout the entire LEANSCF-calculation: 9.2 MB

-------------------------   --------------------
FINAL SINGLE POINT ENERGY     -2691.421073390951
-------------------------   --------------------



           ************************************************************
           *        Program running with 8 parallel MPI-processes     *
           *              working on a common directory               *
           ************************************************************

------------------------------------------------------------------------------
                              ORCA PROPERTY CALCULATIONS
------------------------------------------------------------------------------

GBWName                                 ... radical_015.gbw
Number of atoms                         ...     10
Number of basis functions               ...    104
Max core memory                         ...   1200 MB

Electric properties:
Dipole moment                           ... YES
Quadrupole moment                       ...  NO
Static polarizability (Dipole/Dipole)   ...  NO
Static polarizability (Dipole/Quad.)    ...  NO
Static polarizability (Quad./Quad.)     ...  NO
Static polarizability (Velocity)        ...  NO
Static hyperpolarizability              ...  NO

Atomic electric properties:
Dipole moment                           ...  NO
Quadrupole moment                       ...  NO
Static polarizability                   ...  NO

Choice of electric origin               ... Center of mass
Position of electric origin             ...    -1.042083    -2.509203    -2.236860

General magnetic properties:
Magnetizability                         ...  NO

EPR properties:
g-Tensor (aka g-matrix)                 ...  NO
Zero-Field splitting spin-orbit         ...  NO
Zero-field splitting spin-spin          ...  NO
Hyperfine couplings                     ...  NO (   0 nuclei)
Quadrupole couplings                    ...  NO (   0 nuclei)
Contact density                         ...  NO (   0 nuclei)

NMR properties:
Chemical shifts                         ...  NO (   0 nuclei)
Spin-rotation constants                 ...  NO (   0 nuclei)
Spin-spin couplings                     ...  NO (   0 nuclei,    0 pairs)

Choice of magnetic origin               ... GIAO
Position of magnetic origin             ...     0.000000     0.000000     0.000000

Properties with geometric perturbations:
SCF Hessian                             ...  NO
IR spectrum                             ...  NO
VCD spectrum                            ...  NO
X-ray spectroscopy properties:
SCF XES/XAS/RIXS spectra                ...  NO

SCF SOC stabilization energy            ...  NO
Diagonal Born-Oppenheimer correction    ...  NO

-------------
DIPOLE MOMENT
-------------

Method             : SCF
Type of density    : Electron Density
Multiplicity       :   2
Irrep              :   0
Energy             : -2691.4210733909512783 Eh
Basis              : AO
                                X                 Y                 Z
Electronic contribution:     -6.663469736     -15.544379861     -14.063975570
Nuclear contribution   :      7.063929755      16.611574167      14.905106983
                        -----------------------------------------
Total Dipole Moment    :      0.400460019       1.067194305       0.841131412
                        -----------------------------------------
Magnitude (a.u.)       :      1.416606496
Magnitude (Debye)      :      3.600727558



--------------------
Rotational spectrum 
--------------------
 
Rotational constants in cm-1:             0.407258             0.043469             0.041023 
Rotational constants in MHz :         12209.282630          1303.165017          1229.830641 

Dipole components along the rotational axes: 
x,y,z [a.u.] :     1.399314    -0.219264     0.024836 
x,y,z [Debye]:     3.556774    -0.557325     0.063128 

 

Dipole moment calculation done in   0.0 sec 

Maximum memory used throughout the entire PROP-calculation: 5.2 MB

--------------------------------
SUGGESTED CITATIONS FOR THIS RUN
--------------------------------

Below you find a list of papers that are relevant to this ORCA run
We neither can nor want to force you to cite these papers, but we appreciate if you do
You receive ORCA, which is the product of decades of hard work by many enthusiastic individuals, for free
The only thing we kindly ask in return is that you cite our papers,
We deeply appreciate it, if you show your appreciation for ORCA by not just citing the generic ORCA reference.

Please note that relegating all ORCA citations to the supporting information does *not* help us.
SI sections are not indexed - citations you put there will not count into any citation statistics
But we need these citations in order to attract the funding resources that allow us to do what we are doing

Therefore, if you are a happy ORCA user, please consider citing a few of the papers listed below in the main body of your paper

In addition to the list printed below, the program has created the file radical_015.bibtex that contains the list in bibtex format
You can import this file easily into all common literature databanks and citation aid programs


List of essential papers. We consider these as the minimum necessary citations

  1. Neese, F.
     Software update: the ORCA program system, version 6.0
     WIRES Comput. Molec. Sci. 2025 15(1), e70019
     doi.org/10.1002/wcms.7019

List of papers to cite with high priority. The work reported in these papers was absolutely
necessary for this run to complete.
Our perspective: the developers of density functionals and basis sets usually get cited in chemistry papers
Good! But without the algorithms to do something with them, the functionals or basis sets would not do anything.
Hence, in our opinion, the algorithm design and method developments papers are equally worthy of getting cited

  1. Neese, F.
     An improvement of the resolution of the identity approximation for the formation of the Coulomb matrix
     J. Comp. Chem. 2003 24(14), 1740-1747
     doi.org/10.1002/jcc.10318
  2. Neese, F.; Wennmohs, F.; Hansen, A.; Becker, U.
     Efficient, approximate and parallel Hartree-Fock and hybrid DFT calculations. A 'chain-of-spheres' algorithm for the Hartree-Fock exchange
     Chem. Phys. 2009 356(1-3), 98-109
     doi.org/10.1016/j.chemphys.2008.10.036
  3. Helmich-Paris, B.; de Souza, B.; Neese, F.; Izsák, R.
     An improved chain of spheres for exchange algorithm
     J. Chem. Phys. 2021 155(10), 104109
     doi.org/10.1063/5.0058766
  4. Neese, F.
     The SHARK Integral Generation and Digestion System
     J. Comp. Chem. 2022 44(3), 381
     doi.org/10.1002/jcc.26942

List of suggested additional citations. These are papers that are important in the 'surrounding' of 
of this run, or papers that preceded the highly important papers. If you like your results we are grateful for a citation.

  1. Izsak, R.; Neese, F.
     An overlap fitted chain of spheres exchange method
     J. Chem. Phys. 2011 135 , 144105
     doi.org/10.1063/1.3646921
  2. Izsak, R.; Hansen, A.; Neese, F.
     The resolution of identity and chain of spheres approximations for the LPNO-CCSD singles Fock term
     Molec. Phys. 2012 110 , 2413-2417
     doi.org/10.1080/00268976.2012.687466
  3. Neese, F.
     The ORCA program system
     WIRES Comput. Molec. Sci. 2012 2(1), 73-78
     doi.org/10.1002/wcms.81
  4. Izsak, R.; Neese, F.; Klopper, W.
     Robust fitting techniques in the chain of spheres approximation to the Fock exchange: The role of the complementary space
     J. Chem. Phys. 2013 139 , 
     doi.org/10.1063/1.4819264
  5. Neese, F.
     Software update: the ORCA program system, version 4.0
     WIRES Comput. Molec. Sci. 2018 8(1), 1-6
     doi.org/10.1002/wcms.1327
  6. Neese, F.; Wennmohs, F.; Becker, U.; Riplinger, C.
     The ORCA quantum chemistry program package
     J. Chem. Phys. 2020 152(22), 224108
     doi.org/10.1063/5.0004608
  7. Neese, F.
     Software update: The ORCA program system—Version 5.0
     WIRES Comput. Molec. Sci. 2022 12(1), e1606
     doi.org/10.1002/wcms.1606

List of optional additional citations

  1. Neese, F.
     Approximate second-order SCF convergence for spin unrestricted wavefunctions
     Chem. Phys. Lett. 2000 325(1-3), 93-98
     doi.org/10.1016/s0009-2614(00)00662-x

Timings for individual modules:

Sum of individual times          ...        4.817 sec (=   0.080 min)
Startup calculation              ...        0.821 sec (=   0.014 min)  17.1 %
SCF iterations                   ...        3.554 sec (=   0.059 min)  73.8 %
Property calculations            ...        0.442 sec (=   0.007 min)   9.2 %
                             ****ORCA TERMINATED NORMALLY****
TOTAL RUN TIME: 0 days 0 hours 0 minutes 5 seconds 288 msec
