
                                 *****************
                                 * O   R   C   A *
                                 *****************

                                            #,                                       
                                            ###                                      
                                            ####                                     
                                            #####                                    
                                            ######                                   
                                           ########,                                 
                                     ,,################,,,,,                         
                               ,,#################################,,                 
                          ,,##########################################,,             
                       ,#########################################, ''#####,          
                    ,#############################################,,   '####,        
                  ,##################################################,,,,####,       
                ,###########''''           ''''###############################       
              ,#####''   ,,,,##########,,,,          '''####'''          '####       
            ,##' ,,,,###########################,,,                        '##       
           ' ,,###''''                  '''############,,,                           
         ,,##''                                '''############,,,,        ,,,,,,###''
      ,#''                                            '''#######################'''  
     '                                                          ''''####''''         
             ,#######,   #######,   ,#######,      ##                                
            ,#'     '#,  ##    ##  ,#'     '#,    #''#        ,####,    ,#,          
            ##       ##  ##   ,#'  ##            #'  '#       #'       ,# #          
            ##       ##  #######   ##           ,######,      #####,      #          
            '#,     ,#'  ##    ##  '#,     ,#' ,#      #,     #,   #      #          
             '#######'   ##     ##  '#######'  #'      '#     '####' #    #          



                #########################################################
                #                        -***-                          #
                #          Department of theory and spectroscopy        #
                #                                                       #
                #                      Frank Neese                      #
                #                                                       #
                #     Directorship, Architecture, Infrastructure        #
                #                    SHARK, DRIVERS                     #
                #        Core code/Algorithms in most modules           #
                #                                                       #
                #        Max Planck Institute fuer Kohlenforschung      #
                #                Kaiser Wilhelm Platz 1                 #
                #                 D-45470 Muelheim/Ruhr                 #
                #                      Germany                          #
                #                                                       #
                #                  All rights reserved                  #
                #                        -***-                          #
                #########################################################


                         Program Version 6.1.0  -  RELEASE   -
                                (GIT: $679e74b$)
                          ($2025-06-10 18:02:51 +0200$)


 With contributions from (in alphabetic order):
[Max-Planck-Institut fuer Kohlenforschung]                               
  Daniel Aravena         : Magnetic Suceptibility                        
  Michael Atanasov       : Ab Initio Ligand Field Theory (pilot matlab implementation)
  Alexander A. Auer      : GIAO ZORA, VPT2 properties, NMR spectrum      
  Ute Becker             : All parallelization in ORCA, NUMFREQ, NUMCALC 
  Giovanni Bistoni       : ED, misc. LED, open-shell LED, HFLD           
  Dmytro Bykov           : pre 5.0 version of the SCF Hessian            
  Marcos Casanova-Páez   : Triplet and SCS-CIS(D). UHF-(DLPNO)-IP/EA/STEOM-CCSD. UHF-CVS-IP/STEOM-CCSD   
  Vijay G. Chilkuri      : MRCI spin determinant printing, contributions to CSF-ICE 
  Pauline Colinet        : FMM embedding                                 
  Dipayan Datta          : RHF DLPNO-CCSD density                        
  Achintya Kumar Dutta   : EOM-CC, STEOM-CC                              
  Nicolas Foglia         : Exact transition moments, OPA infrastructure, MCD improvements    
  Dmitry Ganyushin       : Spin-Orbit,Spin-Spin,Magnetic field MRCI      
  Miquel Garcia-Rates    : C-PCM and meta-GGA Hessian, CCSD/C-PCM, Gaussian charge scheme 
  Tiago L. C. Gouveia    : GS-ROHF, GS-ROCIS                             
  Yang Guo               : DLPNO-NEVPT2, F12-NEVPT2, CIM, IAO-localization        
  Andreas Hansen         : Spin unrestricted coupled pair/coupled cluster methods 
  Ingolf Harden          : AUTO-CI MPn and infrastructure                
  Benjamin Helmich-Paris : MC-RPA, TRAH-(SCF,CASSCF), AVAS, COSX integrals, SCF dyn. polar., MC-PDFT, srDFT 
  Lee Huntington         : MR-EOM, pCC                                   
  Robert Izsak           : Overlap fitted RIJCOSX, COSX-SCS-MP3, EOM     
  Riya Kayal             : Wick's Theorem for AUTO-CI, AUTO-CI UHF-CCSDT 
  Emily Kempfer          : AUTO-CI RHF CISDT and CCSDT, approximate NEVPT4
  Christian Kollmar      : KDIIS, OOCD, Brueckner-CCSD(T), CCSD density, CASPT2, CASPT2-K, improved NEVPT2 
  Axel Koslowski         : Symmetry handling                             
  Simone Kossmann        : meta-GGA functionals, TD-DFT gradient, OOMP2, (MP2 Hessian; deprecated post 5.0) 
  Lucas Lang             : DCDCAS, Hyperfine gauge corrections, ICE-SOC+SSC
  Marvin Lechner         : AUTO-CI (C++ implementation), FIC-MRCC        
  Spencer Leger          : CASSCF response                               
  Dagmar Lenk            : GEPOL surface, SMD, ORCA-2-JSON               
  Dimitrios Liakos       : Extrapolation schemes; Compound Job, Property file
  Dimitrios Manganas     : Further ROCIS development; embedding schemes. LFT, Crystal Embedding 
  Dimitrios Pantazis     : SARC Basis sets                               
  Anastasios Papadopoulos: AUTO-CI, single reference methods and gradients 
  Taras Petrenko         : pre 6.0 DFT Hessian and TD-DFT gradient,  ECA, NRVS 
  Petra Pikulova         : Analytic Raman intensities                    
  Peter Pinski           : DLPNO-MP2, DLPNO-MP2 Gradient                 
  Shashank Vittal Rao    : ES-AILFT, MagRelax                            
  Christoph Reimann      : Effective Core Potentials                     
  Marius Retegan         : Local ZFS, SOC                                
  Christoph Riplinger    : Optimizer, TS searches, QM/MM, DLPNO-CCSD(T), (RO)-DLPNO pert. Triples 
  Michael Roemelt        : Original ROCIS implementation, recursive CI coupling coefficients
  Masaaki Saitow         : Open-shell DLPNO-CCSD energy and density      
  Barbara Sandhoefer     : DKH picture change effects                    
  Yorick L. A. Schmerwitz: GMF and freeze-and-release deltaSCF, NEB S-IDPP initial path                    
  Kantharuban Sivalingam : CASSCF convergence/infrastructure, NEVPT2, NEVPT3, NEVPT4(SD), FIC-MRCI and CEPA variants
  Bernardo de Souza      : ESD, SOC TD-DFT                               
  Georgi L. Stoychev     : AutoAux, RI-MP2 NMR, DLPNO-MP2 response, X2C  
  Van Anh Tran           : RI-MP2 g-tensors                              
  Willem Van den Heuvel  : Paramagnetic NMR                              
  Zikuan Wang            : NOTCH, Electric field optimization            
  Frank Wennmohs         : Technical directorship and infrastructure     
  Hang Xu                : AUTO-CI-Response properties                   
                                                                         
[FACCTs GmbH]                                                            
  Markus Bursch, Nicolas Foglia, Miquel Garcia-Rates, Ingolf Harden, Hagen Neugebauer, Anastasios Papadopoulos, 
  Christoph Riplinger, Bernardo de Souza, Georgi L. Stoychev                                                    
                                                                 
  APM, various basis sets, CI-OPT, improved COSX, DLPNO-Multilevel,           
  DOCKER, DRACO, updates on ESD, Fragmentator, GOAT, IRC, LR-CPCM, L-BFGS, MBIS, meta-GGA TD-DFT gradient, ML-optimized integration grids, 
  MM, NACMEs, nearIR, NEB, NEB-TS, NL-DFT gradient (VV10), 2- and 3-layer-ONIOM, interface openCOSMO-RS, QMMM,   
  Crystal-QMMM, RESP, rigid body optimization, SF, symmetry and pop. for TD-DFT, various functionals, SOLVATOR                                   
                                                                         
[Other institutions]                                                     
  V. Asgeirsson          : NEB                                           
  Christoph Bannwarth    : sTDA-DFT, sTD-DFT, PBEh-3c, B97-3c, D3        
  Giovanni Bistoni       : ETS/NOCV, ADLD/ADEX, COVALED                  
  Martin Brehm           : Molecular dynamics                            
  Ronald Cardenas        : ETS/NOCV                                      
  Martina Colucci        : COVALED                                       
  Sebastian Ehlert       : rSCAN, r2SCAN, r2SCAN-3c, D4, dhf basis sets  
  Marvin Friede          : D4 for Fr, Ra, Ac-Lr                          
  Lars Goerigk           : TD-DFT with DH, B97 family of functionals     
  Stefan Grimme          : VdW corrections, initial TS optimization, DFT functionals, gCP, sTDA/sTD-DF 
  Waldemar Hujo          : DFT-NL                                        
  H. Jonsson             : NEB                                           
  Holger Kruse           : gCP                                           
  Marcel Mueller         : wB97X-3c, vDZP basis set                      
  Hagen Neugebauer       : wr2SCAN, Native XTB                           
  Gianluca Regni         : ADLD/ADEX                                     
  Tobias Risthaus        : pre 6.0 range-separated hybrid DFT and stability analysis
  Lukas Wittmann         : regularized MP2, r2SCAN double-hybrids, wr2SCAN        
                                                                         
We gratefully acknowledge several colleagues who have allowed us to      
interface, adapt or use parts of their codes:                            
  Ed Valeev, F. Pavosevic, A. Kumar             : LibInt (2-el integral package), F12 methods 
  Garnet Chan, S. Sharma, J. Yang, R. Olivares  : DMRG                   
  Ulf Ekstrom                                   : XCFun DFT Library      
  Mihaly Kallay                                 : mrcc  (arbitrary order and MRCC methods)
  Frank Weinhold                                : gennbo (NPA and NBO analysis)           
  Simon Mueller                                 : openCOSMO-RS                            
  Christopher J. Cramer and Donald G. Truhlar   : smd solvation model                     
  S Lehtola, MJT Oliveira, MAL Marques          : LibXC Library                           
  Liviu Ungur et al                             : ANISO software                          


 Your calculation uses the libint2 library for the computation of 2-el integrals
 For citations please refer to: http://libint.valeyev.net

 Your ORCA version has been built with support for libXC version: 7.0.0
 For citations please refer to: https://libxc.gitlab.io

 This ORCA versions uses:
   CBLAS   interface :  Fast vector & matrix operations
   LAPACKE interface :  Fast linear algebra routines
   SCALAPACK package :  Parallel linear algebra routines
   Shared memory     :  Shared parallel matrices
   BLAS/LAPACK       :  OpenBLAS 0.3.29  USE64BITINT DYNAMIC_ARCH NO_AFFINITY Zen SINGLE_THREADED
        Core in use  :  Zen
   Copyright (c) 2011-2014, The OpenBLAS Project


  ***********************************
  * Starting time: Sun Apr  5 14:29:22 2026
  * Host name:     QC1
  * Process ID:    24424
  * Working dir.:  /home/user/QC/radical/allyl/split-ts1_2
  ***********************************

NOTE: MaxCore=1200 MB was set to SCF,MP2,MDCI,CIPSI,MRCI,RASCI and CIS
      => If you want to overwrite this, your respective input block should be placed after the MaxCore statement
Warning: RI is on but no J-basis has been assigned. Assigning Def2/J (nothing to worry about!)
================================================================================

----- Orbital basis set information -----
Your calculation utilizes the basis: def-SVP
   H-Kr: A. Schäfer, H. Horn, R. Ahlrichs; J. Chem. Phys. 97, 2571 (1992)
   Rb-At: K. Eichkorn, F. Weigend, O. Treutler, R. Ahlrichs; Theor. Chem. Acc. 97, 119 (1997)
   Rn: F. Weigend, R. Ahlrichs; Phys. Chem. Chem. Phys. 7, 3297 (2005)
   Fr-Ra: I. S. Lim, P. Schwerdtfeger, B. Metz, H. Stoll, J. Chem. Phys. 122, 104103 (2005)
   Ac-Lr: X. Cao, M. Dolg, J. Molec. Struct. Theochem. 673 (2004)
----- AuxJ basis set information -----
Your calculation utilizes the auxiliary basis: def2/J
   H-Rn: F. Weigend, Phys. Chem. Chem. Phys. 8, 1057 (2006).
   Fr-Lr: K. Eichkorn, F. Weigend, O. Treutler, R. Ahlrichs; Theor. Chem. Acc. 97, 119 (1997).

================================================================================
                                        WARNINGS
                       Please study these warnings very carefully!
================================================================================


WARNING: your system is open-shell and RHF/RKS was chosen
  ===> : WILL SWITCH to UHF/UKS


================================================================================
                                       INPUT FILE
================================================================================
NAME = radical_001.inp
|  1> ! B3LYP def-SVP 
|  2> %maxcore 1200
|  3> %pal nprocs 8 end
|  4> * xyz 0 2
|  5> C    0.64356800   0.42779100   0.19139600
|  6> C    0.69957100   0.06556400   1.48575000
|  7> H    1.57598900   0.67904500  -0.32938400
|  8> H    1.64740200   0.03206800   2.02933100
|  9> H   -0.20270900  -0.22211900   2.03654500
| 10> C   -0.59121900   0.43770400  -0.61881200
| 11> H   -1.51983500   0.49423700  -0.03220400
| 12> H   -0.59530400   1.16939600  -1.44022800
| 13> H   -0.65550600  -0.57896900  -1.16846600
| 14> Br  -0.99283000  -2.32715100  -2.06819900
| 15> *
| 16> 
| 17>                          ****END OF INPUT****
================================================================================

                       ****************************
                       * Single Point Calculation *
                       ****************************

---------------------------------
CARTESIAN COORDINATES (ANGSTROEM)
---------------------------------
  C      0.643568    0.427791    0.191396
  C      0.699571    0.065564    1.485750
  H      1.575989    0.679045   -0.329384
  H      1.647402    0.032068    2.029331
  H     -0.202709   -0.222119    2.036545
  C     -0.591219    0.437704   -0.618812
  H     -1.519835    0.494237   -0.032204
  H     -0.595304    1.169396   -1.440228
  H     -0.655506   -0.578969   -1.168466
  Br    -0.992830   -2.327151   -2.068199

----------------------------
CARTESIAN COORDINATES (A.U.)
----------------------------
  NO LB      ZA    FRAG     MASS         X           Y           Z
   0 C     6.0000    0    12.011    1.216167    0.808408    0.361686
   1 C     6.0000    0    12.011    1.321998    0.123898    2.807661
   2 H     1.0000    0     1.008    2.978188    1.283209   -0.622446
   3 H     1.0000    0     1.008    3.113139    0.060600    3.834880
   4 H     1.0000    0     1.008   -0.383064   -0.419744    3.848512
   5 C     6.0000    0    12.011   -1.117242    0.827141   -1.169385
   6 H     1.0000    0     1.008   -2.872072    0.933973   -0.060857
   7 H     1.0000    0     1.008   -1.124962    2.209838   -2.721636
   8 H     1.0000    0     1.008   -1.238727   -1.094093   -2.208081
   9 Br   35.0000    0    79.900   -1.876177   -4.397678   -3.908330

--------------------------------
INTERNAL COORDINATES (ANGSTROEM)
--------------------------------
 C      0   0   0     0.000000000000     0.00000000     0.00000000
 C      1   0   0     1.345249795709     0.00000000     0.00000000
 H      1   2   0     1.097155094851   118.88079200     0.00000000
 H      2   1   3     1.093154101734   121.51976542     0.97025033
 H      2   1   3     1.095557318863   121.34248261   181.82847689
 C      1   2   3     1.476900201842   124.36373709   176.20958060
 H      6   1   2     1.099832987871   114.43507190    21.82204547
 H      6   1   2     1.100051869298   114.65809983   151.97319980
 H      6   1   2     1.157530270453   107.51978322   266.15531357
 Br     9   6   1     1.994855197098   173.34721838   139.42442959

---------------------------
INTERNAL COORDINATES (A.U.)
---------------------------
 C      0   0   0     0.000000000000     0.00000000     0.00000000
 C      1   0   0     2.542153695603     0.00000000     0.00000000
 H      1   2   0     2.073322655704   118.88079200     0.00000000
 H      2   1   3     2.065761874450   121.51976542     0.97025033
 H      2   1   3     2.070303296664   121.34248261   181.82847689
 C      1   2   3     2.790936908615   124.36373709   176.20958060
 H      6   1   2     2.078383140128   114.43507190    21.82204547
 H      6   1   2     2.078796766080   114.65809983   151.97319980
 H      6   1   2     2.187415202879   107.51978322   266.15531357
 Br     9   6   1     3.769729999345   173.34721838   139.42442959

---------------------
BASIS SET INFORMATION
---------------------
There are 3 groups of distinct atoms

 Group   1 Type C   : 7s4p1d contracted to 3s2p1d pattern {511/31/1}
 Group   2 Type H   : 4s1p contracted to 2s1p pattern {31/1}
 Group   3 Type Br  : 14s10p6d contracted to 5s4p3d pattern {63311/5311/411}

Atom   0C    basis set group =>   1
Atom   1C    basis set group =>   1
Atom   2H    basis set group =>   2
Atom   3H    basis set group =>   2
Atom   4H    basis set group =>   2
Atom   5C    basis set group =>   1
Atom   6H    basis set group =>   2
Atom   7H    basis set group =>   2
Atom   8H    basis set group =>   2
Atom   9Br   basis set group =>   3
---------------------------------
AUXILIARY/J BASIS SET INFORMATION
---------------------------------
There are 3 groups of distinct atoms

 Group   1 Type C   : 12s5p4d2f1g contracted to 6s4p3d1f1g pattern {711111/2111/211/2/1}
 Group   2 Type H   : 5s2p1d contracted to 3s1p1d pattern {311/2/1}
 Group   3 Type Br  : 19s5p5d3f1g contracted to 8s4p3d2f1g pattern {121111111/2111/311/21/1}

Atom   0C    basis set group =>   1
Atom   1C    basis set group =>   1
Atom   2H    basis set group =>   2
Atom   3H    basis set group =>   2
Atom   4H    basis set group =>   2
Atom   5C    basis set group =>   1
Atom   6H    basis set group =>   2
Atom   7H    basis set group =>   2
Atom   8H    basis set group =>   2
Atom   9Br   basis set group =>   3


           ************************************************************
           *        Program running with 8 parallel MPI-processes     *
           *              working on a common directory               *
           ************************************************************
------------------------------------------------------------------------------
                             ORCA STARTUP CALCULATIONS
                           -- RI-GTO INTEGRALS CHOSEN --
------------------------------------------------------------------------------
------------------------------------------------------------------------------
                   ___                                                        
                  /   \      - P O W E R E D   B Y -                         
                 /     \                                                     
                 |  |  |   _    _      __       _____    __    __             
                 |  |  |  | |  | |    /  \     |  _  \  |  |  /  |          
                  \  \/   | |  | |   /    \    | | | |  |  | /  /          
                 / \  \   | |__| |  /  /\  \   | |_| |  |  |/  /          
                |  |  |   |  __  | /  /__\  \  |    /   |      \           
                |  |  |   | |  | | |   __   |  |    \   |  |\   \          
                \     /   | |  | | |  |  |  |  | |\  \  |  | \   \       
                 \___/    |_|  |_| |__|  |__|  |_| \__\ |__|  \__/        
                                                                              
                      - O R C A' S   B I G   F R I E N D -                    
                                      &                                       
                       - I N T E G R A L  F E E D E R -                       
                                                                              
 v1 FN, 2020, v2 2021, v3 2022-2024                                           
------------------------------------------------------------------------------


----------------------
SHARK INTEGRAL PACKAGE
----------------------

Number of atoms                             ...     10
Number of basis functions                   ...    104
Number of shells                            ...     48
Maximum angular momentum                    ...      2
Integral batch strategy                     ... SHARK/LIBINT Hybrid
RI-J (if used) integral strategy            ... SPLIT-RIJ (Revised 2003 algorithm where possible)
Printlevel                                  ...      1
Contraction scheme used                     ... SEGMENTED contraction
Prescreening option                         ... SCHWARTZ
   Thresh                                   ... 1.000e-10
   Tcut                                     ... 1.000e-11
   Tpresel                                  ... 1.000e-11 
Coulomb Range Separation                    ... NOT USED
Exchange Range Separation                   ... NOT USED
Multipole approximations                    ... NOT USED
Finite Nucleus Model                        ... NOT USED
CABS basis                                  ... NOT available
Auxiliary Coulomb fitting basis             ... AVAILABLE
   # of basis functions in Aux-J            ...    271
   # of shells in Aux-J                     ...     93
   Maximum angular momentum in Aux-J        ...      4
Auxiliary J/K fitting basis                 ... NOT available
Auxiliary Correlation fitting basis         ... NOT available
Auxiliary 'external' fitting basis          ... NOT available

Checking pre-screening integrals            ... done (  0.0 sec) Dimension = 48
   => SHARK Basis and OBASIS are compatible. Storing Pre-screening
Shell pair information
Shell pair cut-off parameter TPreSel        ...   1.0e-11
Total number of shell pairs                 ...      1176
Shell pairs after pre-screening             ...      1075
Total number of primitive shell pairs       ...      4753
Primitive shell pairs kept                  ...      3274
          la=0 lb=0:    329 shell pairs
          la=1 lb=0:    383 shell pairs
          la=1 lb=1:    124 shell pairs
          la=2 lb=0:    138 shell pairs
          la=2 lb=1:     83 shell pairs
          la=2 lb=2:     18 shell pairs

Checking whether 4 symmetric matrices of dimension 104 fit in memory
:Max Core in MB      =   1200.00
 MB in use           =      4.71
 MB left             =   1195.29
 MB needed           =      0.17
 Data fit in memory  = YES
Calculating RI/J V-Matrix + Cholesky decomp.... done (  0.0 sec)
Calculating Nuclear repulsion               ... done (  0.0 sec) ENN=    189.650447606910 Eh

Diagonalization of the overlap matrix:
Smallest eigenvalue                        ... 2.771e-03
Time for diagonalization                   ...    0.001 sec
Threshold for overlap eigenvalues          ... 1.000e-07
Number of eigenvalues below threshold      ... 0
Time for construction of square roots      ...    0.000 sec
Total time needed                          ...    0.002 sec

-------------------
DFT GRID GENERATION
-------------------

General Integration Accuracy     IntAcc      ... 4.388
Radial Grid Type                 RadialGrid  ... OptM3 with GC (2021)
Angular Grid (max. ang.)         AngularGrid ... 4 (Lebedev-302)
Angular grid pruning method      GridPruning ... 4 (adaptive)
Weight generation scheme         WeightScheme... mBecke (2022)
Basis function cutoff            BFCut       ... 1.0000e-10
Integration weight cutoff        WCut        ... 1.0000e-14
Partially contracted basis set               ... off
Rotationally invariant grid construction     ... off
Angular grids for H and He will be reduced by one unit
Core-polarized basis detected: some atoms will have their core
                               angular grid increased.

Total number of grid points                  ...    48996
Total number of batches                      ...      773
Average number of points per batch           ...       63
Average number of grid points per atom       ...     4900

--------------------
COSX GRID GENERATION
--------------------

GRIDX 1
-------
General Integration Accuracy     IntAcc      ... 3.816
Radial Grid Type                 RadialGrid  ... OptM3 with GC (2021)
Angular Grid (max. ang.)         AngularGrid ... 1 (Lebedev-50)
Angular grid pruning method      GridPruning ... 4 (adaptive)
Weight generation scheme         WeightScheme... mBecke (2022)
Basis function cutoff            BFCut       ... 1.0000e-10
Integration weight cutoff        WCut        ... 1.0000e-14
Partially contracted basis set               ... on
Rotationally invariant grid construction     ... off
Angular grids for H and He will be reduced by one unit
Core-polarized basis detected: some atoms will have their core
                               angular grid increased.

Total number of grid points                  ...    11061
Total number of batches                      ...       91
Average number of points per batch           ...      121
Average number of grid points per atom       ...     1106
UseSFitting                                  ... on

GRIDX 2
-------
General Integration Accuracy     IntAcc      ... 4.020
Radial Grid Type                 RadialGrid  ... OptM3 with GC (2021)
Angular Grid (max. ang.)         AngularGrid ... 2 (Lebedev-110)
Angular grid pruning method      GridPruning ... 4 (adaptive)
Weight generation scheme         WeightScheme... mBecke (2022)
Basis function cutoff            BFCut       ... 1.0000e-10
Integration weight cutoff        WCut        ... 1.0000e-14
Partially contracted basis set               ... on
Rotationally invariant grid construction     ... off
Angular grids for H and He will be reduced by one unit
Core-polarized basis detected: some atoms will have their core
                               angular grid increased.

Total number of grid points                  ...    16375
Total number of batches                      ...      132
Average number of points per batch           ...      124
Average number of grid points per atom       ...     1638
UseSFitting                                  ... on

GRIDX 3
-------
General Integration Accuracy     IntAcc      ... 4.338
Radial Grid Type                 RadialGrid  ... OptM3 with GC (2021)
Angular Grid (max. ang.)         AngularGrid ... 3 (Lebedev-194)
Angular grid pruning method      GridPruning ... 4 (adaptive)
Weight generation scheme         WeightScheme... mBecke (2022)
Basis function cutoff            BFCut       ... 1.0000e-10
Integration weight cutoff        WCut        ... 1.0000e-14
Partially contracted basis set               ... on
Rotationally invariant grid construction     ... off
Angular grids for H and He will be reduced by one unit
Core-polarized basis detected: some atoms will have their core
                               angular grid increased.

Total number of grid points                  ...    28551
Total number of batches                      ...      229
Average number of points per batch           ...      124
Average number of grid points per atom       ...     2855
UseSFitting                                  ... on
Grids setup in   0.4 sec
Initializing property integral containers    ... done (  0.0 sec)

SHARK setup successfully completed in   0.4 seconds

Maximum memory used throughout the entire STARTUP-calculation: 17.7 MB


           ************************************************************
           *        Program running with 8 parallel MPI-processes     *
           *              working on a common directory               *
           ************************************************************
-------------------------------------------------------------------------------
                                 ORCA GUESS
                   Start orbitals & Density for SCF / CASSCF
-------------------------------------------------------------------------------

------------
SCF SETTINGS
------------
Hamiltonian:
 Density Functional     Method          .... DFT(GTOs)
 Exchange Functional    Exchange        .... B88
   X-Alpha parameter    XAlpha          ....  0.666667
   Becke's b parameter  XBeta           ....  0.004200
 Correlation Functional Correlation     .... LYP
 LDA part of GGA corr.  LDAOpt          .... VWN-5
 Gradients option       PostSCFGGA      .... off
 Hybrid DFT is turned on
   Fraction HF Exchange ScalHFX         ....  0.200000
   Scaling of DF-GGA-X  ScalDFX         ....  0.720000
   Scaling of DF-GGA-C  ScalDFC         ....  0.810000
   Scaling of DF-LDA-C  ScalLDAC        ....  1.000000
   Perturbative correction              ....  0.000000
   NL short-range parameter             ....  4.800000
 RI-approximation to the Coulomb term is turned on
   Number of AuxJ basis functions       .... 271
   RIJ-COSX (HFX calculated with COS-X)).... on


General Settings:
 Integral files         IntName         .... radical_001
 Hartree-Fock type      HFTyp           .... UHF
 Total Charge           Charge          ....    0
 Multiplicity           Mult            ....    2
 Number of Electrons    NEL             ....   59
 Basis Dimension        Dim             ....  104
 Nuclear Repulsion      ENuc            ....    189.6504476069 Eh

Convergence Acceleration:
 AO-DIIS                CNVDIIS         .... on
   Start iteration      DIISMaxIt       ....    12
   Startup error        DIISStart       ....  0.200000
   # of expansion vecs  DIISMaxEq       ....     5
   Bias factor          DIISBfac        ....   1.050
   Max. coefficient     DIISMaxC        ....  10.000
 MO-DIIS                CNVKDIIS        .... off
 Trust-Rad. Augm. Hess. CNVTRAH         .... auto
   Auto Start mean grad. ratio tolernc. ....  1.125000
   Auto Start start iteration           ....    50
   Auto Start num. interpolation iter.  ....    10
   Max. Number of Micro iterations      ....    24
   Max. Number of Macro iterations      .... Maxiter - #DIIS iter
   Number of Davidson start vectors     ....     2
   Converg. threshold    (grad. norm)   ....   5.000e-05
   Grad. Scal. Fac. for Micro threshold ....   0.100
   Minimum threshold for Micro iter.    ....   1.000e-02
   NR start threshold (gradient norm)   ....   1.000e-04
   Initial trust radius                 ....   0.400
   Minimum AH scaling param. (alpha)    ....   1.000
   Maximum AH scaling param. (alpha)    .... 1000.000
   Quad. conv. algorithm                .... NR
   White noise on init. David. guess    .... on
   Maximum white noise                  ....   0.010
   Pseudo random numbers                .... off
   Inactive MOs                         .... canonical
   Orbital update algorithm             .... Taylor
   Preconditioner                       .... Diag
   Full preconditioner red. dimension   ....   250
 SOSCF                 CNVSOSCF           .... on
   Start iteration     SOSCFMaxIt         ....   150
   Startup grad/error  SOSCFStart         ....  0.003300
   Hessian update      SOSCFHessUp        .... L-BFGS
   Autom. constraints  SOSCFAutoConstrain .... off
 Level Shifting         CNVShift        .... on
   Level shift para.    LevelShift      ....    0.2500
   Turn off err/grad.   ShiftErr        ....    0.0010
 Zerner damping         CNVZerner       .... off
 Static damping         CNVDamp         .... on
   Fraction old density DampFac         ....    0.7000
   Max. Damping (<1)    DampMax         ....    0.9800
   Min. Damping (>=0)   DampMin         ....    0.0000
   Turn off err/grad.   DampErr         ....    0.1000

SCF Procedure:
 Maximum # iterations   MaxIter         ....   125
 SCF integral mode      SCFMode         .... Direct
   Integral package                     .... SHARK and LIBINT hybrid scheme
 Reset frequency        DirectResetFreq ....    20
 Integral Threshold     Thresh          ....  1.000e-10 Eh
 Primitive CutOff       TCut            ....  1.000e-11 Eh

Convergence Tolerance:
 Convergence Check Mode ConvCheckMode   .... Total+1el-Energy
 Convergence forced     ConvForced      .... 0
 Energy Change          TolE            ....  1.000e-06 Eh
 1-El. energy change                    ....  1.000e-03 Eh
 Orbital Gradient       TolG            ....  5.000e-05
 Orbital Rotation angle TolX            ....  5.000e-05
 DIIS Error             TolErr          ....  1.000e-06

------------------------------
INITIAL GUESS: MODEL POTENTIAL
------------------------------
Loading Hartree-Fock densities                     ... done
Calculating cut-offs                               ... done
Initializing the effective Hamiltonian             ... done
Setting up the integral package (SHARK)            ... done
Starting the Coulomb interaction                   ... done (   0.0 sec)
Making the grid                                    ... done (   0.1 sec)
Mapping shells                                     ... done
Starting the XC term evaluation                    ... done (   0.0 sec)
  promolecular density results
     # of electrons  =     58.997514895
     EX              =   -106.838685865
     EC              =     -2.448387967
     EX+EC           =   -109.287073832
Transforming the Hamiltonian                       ... done (   0.0 sec)
Diagonalizing the Hamiltonian                      ... done (   0.0 sec)
Back transforming the eigenvectors                 ... done (   0.0 sec)
Now organizing SCF variables                       ... done
                      ------------------
                      INITIAL GUESS DONE (   0.1 sec)
                      ------------------
             **** ENERGY FILE WAS UPDATED (radical_001.en.tmp) ****
Finished Guess after   0.4 sec
Maximum memory used throughout the entire GUESS-calculation: 8.9 MB


           ************************************************************
           *        Program running with 8 parallel MPI-processes     *
           *              working on a common directory               *
           ************************************************************

-------------------------------------------------------------------------------------------
                                      ORCA LEAN-SCF
                              memory conserving SCF solver
-------------------------------------------------------------------------------------------

----------------------------------------D-I-I-S--------------------------------------------
Iteration    Energy (Eh)           Delta-E    RMSDP     MaxDP     DIISErr   Damp  Time(sec)
-------------------------------------------------------------------------------------------
               ***  Starting incremental Fock matrix formation  ***
    1    -2691.3213187174956147     0.00e+00  4.62e-03  3.63e-02  7.75e-02  0.700   0.2
Warning: op=1 Small HOMO/LUMO gap (   0.059) - skipping pre-diagonalization
         Will do a full diagonalization
    2    -2691.3704009511416189    -4.91e-02  3.54e-03  2.16e-02  4.13e-02  0.700   0.2
                               ***Turning on AO-DIIS***
    3    -2691.3903942627975994    -2.00e-02  1.57e-03  1.25e-02  1.65e-02  0.700   0.2
    4    -2691.4013876621729651    -1.10e-02  3.00e-03  2.99e-02  8.45e-03  0.000   0.2
    5    -2691.4258567937545195    -2.45e-02  7.26e-04  5.19e-03  3.91e-03  0.000   0.2
                              *** Initializing SOSCF ***
---------------------------------------S-O-S-C-F--------------------------------------
Iteration    Energy (Eh)           Delta-E    RMSDP     MaxDP     MaxGrad    Time(sec)
--------------------------------------------------------------------------------------
    6    -2691.4263006857568143    -4.44e-04  3.26e-04  2.64e-03  2.01e-03     0.2
               *** Restarting incremental Fock matrix formation ***
    7    -2691.4263929441071923    -9.23e-05  4.90e-04  4.01e-03  2.44e-03     0.2
    8    -2691.4264583393182875    -6.54e-05  4.58e-04  2.83e-03  1.47e-03     0.2
    9    -2691.4264749639082765    -1.66e-05  1.47e-04  1.18e-03  6.89e-04     0.2
   10    -2691.4264851633233775    -1.02e-05  8.25e-05  6.18e-04  3.08e-04     0.2
   11    -2691.4264859554946270    -7.92e-07  4.84e-05  3.84e-04  2.33e-04     0.2
                 **** Energy Check signals convergence ****

               *****************************************************
               *                     SUCCESS                       *
               *           SCF CONVERGED AFTER  11 CYCLES          *
               *****************************************************

Recomputing exchange energy using gridx3       ... done (    0.239 sec)
Old exchange energy                            :    -21.427915238 Eh
New exchange energy                            :    -21.427878344 Eh
Exchange energy change after final integration :      0.000036894 Eh
Total energy after final integration           :  -2691.426450219 Eh
             **** ENERGY FILE WAS UPDATED (radical_001.en.tmp) ****

----------------
TOTAL SCF ENERGY
----------------

Total Energy       :      -2691.42645021937369 Eh          -73237.43703 eV

Components:
Nuclear Repulsion  :        189.65044760691006 Eh            5160.65104 eV
Electronic Energy  :      -2881.07693471978837 Eh          -78398.08908 eV
One Electron Energy:      -4116.54168076601491 Eh         -112016.79396 eV
Two Electron Energy:       1235.46474604622676 Eh           33618.70488 eV

Virial components:
Potential Energy   :      -5378.50235607920604 Eh         -146356.48973 eV
Kinetic Energy     :       2687.07590585983235 Eh           73119.05270 eV
Virial Ratio       :          2.00161906269564

DFT components:
N(Alpha)           :       29.999999694262 electrons
N(Beta)            :       28.999997446483 electrons
N(Total)           :       58.999997140745 electrons
E(X)               :      -85.243118691734 Eh       
E(C)               :       -2.872622120415 Eh       
E(XC)              :      -88.115740812149 Eh       

---------------
SCF CONVERGENCE
---------------

  Last Energy change         ...    7.9217e-07  Tolerance :   1.0000e-06
  Last MAX-Density change    ...    3.8419e-04  Tolerance :   1.0000e-05
  Last RMS-Density change    ...    4.8412e-05  Tolerance :   1.0000e-06
  Last DIIS Error            ...    2.0150e-03  Tolerance :   1.0000e-06
  Last Orbital Gradient      ...    2.3294e-04  Tolerance :   5.0000e-05
  Last Orbital Rotation      ...    1.0726e-03  Tolerance :   5.0000e-05


----------------------
UHF SPIN CONTAMINATION
----------------------

Warning: in a DFT calculation there is little theoretical justification to 
         calculate <S**2> as in Hartree-Fock theory. We will do it anyways
         but you should keep in mind that the values have only limited relevance

Expectation value of <S**2>     :     0.757229
Ideal value S*(S+1) for S=0.5   :     0.750000
Deviation                       :     0.007229

----------------
ORBITAL ENERGIES
----------------
                 SPIN UP ORBITALS
  NO   OCC          E(Eh)            E(eV) 
   0   1.0000    -482.767869    -13136.7816 
   1   1.0000     -62.450771     -1699.3719 
   2   1.0000     -56.284293     -1531.5735 
   3   1.0000     -56.280074     -1531.4587 
   4   1.0000     -56.280063     -1531.4584 
   5   1.0000     -10.217024      -278.0194 
   6   1.0000     -10.216323      -278.0003 
   7   1.0000     -10.210341      -277.8375 
   8   1.0000      -8.668923      -235.8934 
   9   1.0000      -6.506127      -177.0407 
  10   1.0000      -6.487938      -176.5458 
  11   1.0000      -6.487894      -176.5446 
  12   1.0000      -2.618443       -71.2515 
  13   1.0000      -2.613982       -71.1301 
  14   1.0000      -2.613951       -71.1292 
  15   1.0000      -2.600484       -70.7628 
  16   1.0000      -2.600483       -70.7627 
  17   1.0000      -0.807276       -21.9671 
  18   1.0000      -0.745472       -20.2853 
  19   1.0000      -0.702045       -19.1036 
  20   1.0000      -0.571694       -15.5566 
  21   1.0000      -0.491616       -13.3775 
  22   1.0000      -0.451068       -12.2742 
  23   1.0000      -0.445946       -12.1348 
  24   1.0000      -0.399656       -10.8752 
  25   1.0000      -0.373124       -10.1532 
  26   1.0000      -0.311676        -8.4811 
  27   1.0000      -0.275312        -7.4916 
  28   1.0000      -0.275098        -7.4858 
  29   1.0000      -0.267469        -7.2782 
  30   0.0000      -0.012577        -0.3422 
  31   0.0000       0.063556         1.7294 
  32   0.0000       0.081094         2.2067 
  33   0.0000       0.098561         2.6820 
  34   0.0000       0.136178         3.7056 
  35   0.0000       0.141015         3.8372 
  36   0.0000       0.181237         4.9317 
  37   0.0000       0.242147         6.5892 
  38   0.0000       0.318855         8.6765 
  39   0.0000       0.355364         9.6699 
  40   0.0000       0.377778        10.2799 

                 SPIN DOWN ORBITALS
  NO   OCC          E(Eh)            E(eV) 
   0   1.0000    -482.765864    -13136.7270 
   1   1.0000     -62.449711     -1699.3430 
   2   1.0000     -56.280058     -1531.4582 
   3   1.0000     -56.279299     -1531.4376 
   4   1.0000     -56.279288     -1531.4373 
   5   1.0000     -10.217145      -278.0226 
   6   1.0000     -10.213523      -277.9241 
   7   1.0000     -10.207808      -277.7686 
   8   1.0000      -8.665933      -235.8120 
   9   1.0000      -6.497940      -176.8179 
  10   1.0000      -6.486588      -176.5090 
  11   1.0000      -6.486544      -176.5078 
  12   1.0000      -2.612614       -71.0929 
  13   1.0000      -2.609462       -71.0071 
  14   1.0000      -2.609432       -71.0062 
  15   1.0000      -2.599716       -70.7419 
  16   1.0000      -2.599715       -70.7418 
  17   1.0000      -0.802688       -21.8423 
  18   1.0000      -0.717471       -19.5234 
  19   1.0000      -0.690096       -18.7785 
  20   1.0000      -0.568983       -15.4828 
  21   1.0000      -0.489345       -13.3158 
  22   1.0000      -0.447274       -12.1710 
  23   1.0000      -0.427821       -11.6416 
  24   1.0000      -0.396861       -10.7991 
  25   1.0000      -0.371570       -10.1109 
  26   1.0000      -0.279863        -7.6155 
  27   1.0000      -0.265033        -7.2119 
  28   1.0000      -0.264731        -7.2037 
  29   0.0000      -0.182905        -4.9771 
  30   0.0000      -0.005051        -0.1374 
  31   0.0000       0.064715         1.7610 
  32   0.0000       0.082211         2.2371 
  33   0.0000       0.100463         2.7338 
  34   0.0000       0.137950         3.7538 
  35   0.0000       0.141872         3.8605 
  36   0.0000       0.193095         5.2544 
  37   0.0000       0.243649         6.6300 
  38   0.0000       0.321340         8.7441 
  39   0.0000       0.365251         9.9390 
*Only the first 10 virtual orbitals were printed.

                    ********************************
                    * MULLIKEN POPULATION ANALYSIS *
                    ********************************

--------------------------------------------
MULLIKEN ATOMIC CHARGES AND SPIN POPULATIONS
--------------------------------------------
   0 C :   -0.092303   -0.063439
   1 C :   -0.004889    0.193712
   2 H :    0.023463    0.002298
   3 H :    0.038718   -0.008261
   4 H :    0.031654   -0.008160
   5 C :    0.066292    0.180535
   6 H :    0.041375   -0.002232
   7 H :    0.039963    0.001432
   8 H :    0.039537   -0.021312
   9 Br:   -0.183811    0.725427
Sum of atomic charges         :   -0.0000000
Sum of atomic spin populations:    1.0000000

-----------------------------------------------------
MULLIKEN REDUCED ORBITAL CHARGES AND SPIN POPULATIONS
-----------------------------------------------------
CHARGE
  0 C s       :     3.161991  s :     3.161991
      pz      :     0.977023  p :     2.894356
      px      :     0.965225
      py      :     0.952108
      dz2     :     0.008777  d :     0.035956
      dxz     :     0.013013
      dyz     :     0.006725
      dx2y2   :     0.004434
      dxy     :     0.003008

  1 C s       :     3.121742  s :     3.121742
      pz      :     0.976525  p :     2.856904
      px      :     0.930244
      py      :     0.950135
      dz2     :     0.006884  d :     0.026243
      dxz     :     0.010644
      dyz     :     0.004892
      dx2y2   :     0.002753
      dxy     :     0.001070

  2 H s       :     0.954175  s :     0.954175
      pz      :     0.006023  p :     0.022362
      px      :     0.011609
      py      :     0.004730

  3 H s       :     0.937886  s :     0.937886
      pz      :     0.006677  p :     0.023396
      px      :     0.012250
      py      :     0.004468

  4 H s       :     0.945046  s :     0.945046
      pz      :     0.006810  p :     0.023299
      px      :     0.011359
      py      :     0.005131

  5 C s       :     2.965926  s :     2.965926
      pz      :     0.983577  p :     2.938652
      px      :     0.975545
      py      :     0.979530
      dz2     :     0.002791  d :     0.029130
      dxz     :     0.007816
      dyz     :     0.008066
      dx2y2   :     0.008289
      dxy     :     0.002169

  6 H s       :     0.935655  s :     0.935655
      pz      :     0.007047  p :     0.022970
      px      :     0.011282
      py      :     0.004641

  7 H s       :     0.936838  s :     0.936838
      pz      :     0.009707  p :     0.023199
      px      :     0.003982
      py      :     0.009509

  8 H s       :     0.930333  s :     0.930333
      pz      :     0.008539  p :     0.030130
      px      :     0.005434
      py      :     0.016157

  9 Brs       :     7.982396  s :     7.982396
      pz      :     5.849194  p :    17.193287
      px      :     5.982217
      py      :     5.361875
      dz2     :     2.000407  d :    10.008129
      dxz     :     2.000157
      dyz     :     2.003659
      dx2y2   :     2.003317
      dxy     :     2.000589


SPIN
  0 C s       :    -0.009383  s :    -0.009383
      pz      :    -0.008739  p :    -0.056468
      px      :    -0.006867
      py      :    -0.040863
      dz2     :     0.000517  d :     0.002412
      dxz     :    -0.000004
      dyz     :     0.001335
      dx2y2   :     0.000144
      dxy     :     0.000420

  1 C s       :     0.018804  s :     0.018804
      pz      :     0.014954  p :     0.175420
      px      :     0.011799
      py      :     0.148668
      dz2     :    -0.000125  d :    -0.000513
      dxz     :    -0.000002
      dyz     :    -0.000143
      dx2y2   :    -0.000213
      dxy     :    -0.000030

  2 H s       :     0.002540  s :     0.002540
      pz      :    -0.000011  p :    -0.000242
      px      :    -0.000013
      py      :    -0.000219

  3 H s       :    -0.009055  s :    -0.009055
      pz      :     0.000047  p :     0.000794
      px      :     0.000042
      py      :     0.000705

  4 H s       :    -0.008881  s :    -0.008881
      pz      :     0.000021  p :     0.000722
      px      :     0.000040
      py      :     0.000661

  5 C s       :     0.015076  s :     0.015076
      pz      :     0.034253  p :     0.165778
      px      :     0.006862
      py      :     0.124664
      dz2     :     0.000029  d :    -0.000319
      dxz     :    -0.000156
      dyz     :    -0.000015
      dx2y2   :    -0.000003
      dxy     :    -0.000175

  6 H s       :    -0.002903  s :    -0.002903
      pz      :     0.000020  p :     0.000671
      px      :     0.000089
      py      :     0.000562

  7 H s       :     0.000652  s :     0.000652
      pz      :     0.000478  p :     0.000780
      px      :    -0.000009
      py      :     0.000311

  8 H s       :    -0.030066  s :    -0.030066
      pz      :     0.001853  p :     0.008754
      px      :     0.000167
      py      :     0.006735

  9 Brs       :     0.000015  s :     0.000015
      pz      :     0.134471  p :     0.725463
      px      :     0.009267
      py      :     0.581725
      dz2     :     0.000011  d :    -0.000052
      dxz     :    -0.000001
      dyz     :    -0.000045
      dx2y2   :    -0.000014
      dxy     :    -0.000003



                     *******************************
                     * LOEWDIN POPULATION ANALYSIS *
                     *******************************

-------------------------------------------
LOEWDIN ATOMIC CHARGES AND SPIN POPULATIONS
-------------------------------------------
   0 C :   -0.015635   -0.038266
   1 C :   -0.014081    0.160273
   2 H :    0.032971    0.000143
   3 H :    0.031124   -0.000421
   4 H :    0.028509   -0.000714
   5 C :   -0.025029    0.146182
   6 H :    0.040199    0.001416
   7 H :    0.042268    0.003765
   8 H :    0.028431    0.033577
   9 Br:   -0.148756    0.694045

----------------------------------------------------
LOEWDIN REDUCED ORBITAL CHARGES AND SPIN POPULATIONS
----------------------------------------------------
CHARGE
  0 C s       :     2.879919  s :     2.879919
      pz      :     1.071354  p :     3.046131
      px      :     1.037629
      py      :     0.937148
      dz2     :     0.023598  d :     0.089584
      dxz     :     0.034852
      dyz     :     0.014449
      dx2y2   :     0.010228
      dxy     :     0.006456

  1 C s       :     2.893865  s :     2.893865
      pz      :     1.063189  p :     3.052285
      px      :     1.043494
      py      :     0.945603
      dz2     :     0.018867  d :     0.067931
      dxz     :     0.028883
      dyz     :     0.010591
      dx2y2   :     0.006769
      dxy     :     0.002821

  2 H s       :     0.901040  s :     0.901040
      pz      :     0.017124  p :     0.065990
      px      :     0.034388
      py      :     0.014478

  3 H s       :     0.901347  s :     0.901347
      pz      :     0.018057  p :     0.067529
      px      :     0.035853
      py      :     0.013620

  4 H s       :     0.904331  s :     0.904331
      pz      :     0.018284  p :     0.067160
      px      :     0.033338
      py      :     0.015538

  5 C s       :     2.853018  s :     2.853018
      pz      :     1.041144  p :     3.099688
      px      :     1.049376
      py      :     1.009168
      dz2     :     0.005713  d :     0.072324
      dxz     :     0.021341
      dyz     :     0.019794
      dx2y2   :     0.021125
      dxy     :     0.004350

  6 H s       :     0.894218  s :     0.894218
      pz      :     0.020100  p :     0.065583
      px      :     0.033214
      py      :     0.012269

  7 H s       :     0.891842  s :     0.891842
      pz      :     0.028466  p :     0.065890
      px      :     0.011247
      py      :     0.026177

  8 H s       :     0.881021  s :     0.881021
      pz      :     0.024003  p :     0.090548
      px      :     0.012651
      py      :     0.053894

  9 Brs       :     7.961400  s :     7.961400
      pz      :     5.844139  p :    17.175674
      px      :     5.982411
      py      :     5.349124
      dz2     :     2.000533  d :    10.011682
      dxz     :     2.000208
      dyz     :     2.005317
      dx2y2   :     2.004823
      dxy     :     2.000801


SPIN
  0 C s       :    -0.002581  s :    -0.002581
      pz      :    -0.003691  p :    -0.041334
      px      :    -0.003123
      py      :    -0.034519
      dz2     :     0.001262  d :     0.005649
      dxz     :     0.000175
      dyz     :     0.002878
      dx2y2   :     0.000269
      dxy     :     0.001064

  1 C s       :     0.005004  s :     0.005004
      pz      :     0.012170  p :     0.156477
      px      :     0.006570
      py      :     0.137737
      dz2     :    -0.000311  d :    -0.001208
      dxz     :    -0.000165
      dyz     :    -0.000452
      dx2y2   :    -0.000239
      dxy     :    -0.000041

  2 H s       :     0.001206  s :     0.001206
      pz      :    -0.000033  p :    -0.001063
      px      :    -0.000174
      py      :    -0.000857

  3 H s       :    -0.003918  s :    -0.003918
      pz      :     0.000349  p :     0.003497
      px      :     0.000460
      py      :     0.002688

  4 H s       :    -0.004024  s :    -0.004024
      pz      :     0.000338  p :     0.003310
      px      :     0.000405
      py      :     0.002567

  5 C s       :     0.009172  s :     0.009172
      pz      :     0.027454  p :     0.138585
      px      :     0.003948
      py      :     0.107184
      dz2     :    -0.000022  d :    -0.001575
      dxz     :    -0.000356
      dyz     :    -0.000500
      dx2y2   :    -0.000348
      dxy     :    -0.000348

  6 H s       :    -0.002029  s :    -0.002029
      pz      :     0.000489  p :     0.003445
      px      :     0.000450
      py      :     0.002506

  7 H s       :     0.000051  s :     0.000051
      pz      :     0.001358  p :     0.003714
      px      :     0.000056
      py      :     0.002300

  8 H s       :     0.005058  s :     0.005058
      pz      :     0.005994  p :     0.028519
      px      :     0.000401
      py      :     0.022123

  9 Brs       :    -0.000203  s :    -0.000203
      pz      :     0.128358  p :     0.693796
      px      :     0.008674
      py      :     0.556764
      dz2     :     0.000028  d :     0.000452
      dxz     :     0.000003
      dyz     :     0.000201
      dx2y2   :     0.000203
      dxy     :     0.000018



                      *****************************
                      * MAYER POPULATION ANALYSIS *
                      *****************************

  NA   - Mulliken gross atomic population
  ZA   - Total nuclear charge
  QA   - Mulliken gross atomic charge
  VA   - Mayer's total valence
  BVA  - Mayer's bonded valence
  FA   - Mayer's free valence

  ATOM       NA         ZA         QA         VA         BVA        FA
  0 C      6.0923     6.0000    -0.0923     4.1252     4.1227     0.0025
  1 C      6.0049     6.0000    -0.0049     3.9544     3.9275     0.0269
  2 H      0.9765     1.0000     0.0235     0.9797     0.9797     0.0000
  3 H      0.9613     1.0000     0.0387     0.9753     0.9752     0.0001
  4 H      0.9683     1.0000     0.0317     0.9848     0.9847     0.0001
  5 C      5.9337     6.0000     0.0663     3.9026     3.8765     0.0261
  6 H      0.9586     1.0000     0.0414     0.9945     0.9944     0.0000
  7 H      0.9600     1.0000     0.0400     0.9857     0.9856     0.0000
  8 H      0.9605     1.0000     0.0395     1.0658     1.0612     0.0046
  9 Br    35.1838    35.0000    -0.1838     0.9973     0.4678     0.5295

  Mayer bond orders larger than 0.100000
B(  0-C ,  1-C ) :   1.9103 B(  0-C ,  2-H ) :   0.9615 B(  0-C ,  5-C ) :   1.1187 
B(  1-C ,  3-H ) :   0.9536 B(  1-C ,  4-H ) :   0.9558 B(  5-C ,  6-H ) :   0.9545 
B(  5-C ,  7-H ) :   0.9400 B(  5-C ,  8-H ) :   0.7877 B(  8-H ,  9-Br) :   0.2269 


-------
TIMINGS
-------

Total SCF time: 0 days 0 hours 0 min 2 sec 

Total time                  ....       2.798 sec
Sum of individual times     ....       2.611 sec  ( 93.3%)

SCF preparation             ....       0.306 sec  ( 11.0%)
Fock matrix formation       ....       2.139 sec  ( 76.5%)
  Startup                   ....       0.004 sec  (  0.2% of F)
  Split-RI-J                ....       0.126 sec  (  5.9% of F)
  Chain of spheres X        ....       1.630 sec  ( 76.2% of F)
  XC integration            ....       0.471 sec  ( 22.0% of F)
    Basis function eval.    ....       0.106 sec  ( 22.6% of XC)
    Density eval.           ....       0.097 sec  ( 20.5% of XC)
    XC-Functional eval.     ....       0.035 sec  (  7.4% of XC)
    XC-Potential eval.      ....       0.128 sec  ( 27.1% of XC)
Diagonalization             ....       0.000 sec  (  0.0%)
Density matrix formation    ....       0.024 sec  (  0.9%)
Total Energy calculation    ....       0.011 sec  (  0.4%)
Population analysis         ....       0.009 sec  (  0.3%)
Orbital Transformation      ....       0.018 sec  (  0.6%)
Orbital Orthonormalization  ....       0.000 sec  (  0.0%)
DIIS solution               ....       0.064 sec  (  2.3%)
SOSCF solution              ....       0.039 sec  (  1.4%)
Finished LeanSCF after   2.8 sec

Maximum memory used throughout the entire LEANSCF-calculation: 9.1 MB

-------------------------   --------------------
FINAL SINGLE POINT ENERGY     -2691.426450219374
-------------------------   --------------------



           ************************************************************
           *        Program running with 8 parallel MPI-processes     *
           *              working on a common directory               *
           ************************************************************

------------------------------------------------------------------------------
                              ORCA PROPERTY CALCULATIONS
------------------------------------------------------------------------------

GBWName                                 ... radical_001.gbw
Number of atoms                         ...     10
Number of basis functions               ...    104
Max core memory                         ...   1200 MB

Electric properties:
Dipole moment                           ... YES
Quadrupole moment                       ...  NO
Static polarizability (Dipole/Dipole)   ...  NO
Static polarizability (Dipole/Quad.)    ...  NO
Static polarizability (Quad./Quad.)     ...  NO
Static polarizability (Velocity)        ...  NO
Static hyperpolarizability              ...  NO

Atomic electric properties:
Dipole moment                           ...  NO
Quadrupole moment                       ...  NO
Static polarizability                   ...  NO

Choice of electric origin               ... Center of mass
Position of electric origin             ...    -1.085116    -2.682747    -2.345997

General magnetic properties:
Magnetizability                         ...  NO

EPR properties:
g-Tensor (aka g-matrix)                 ...  NO
Zero-Field splitting spin-orbit         ...  NO
Zero-field splitting spin-spin          ...  NO
Hyperfine couplings                     ...  NO (   0 nuclei)
Quadrupole couplings                    ...  NO (   0 nuclei)
Contact density                         ...  NO (   0 nuclei)

NMR properties:
Chemical shifts                         ...  NO (   0 nuclei)
Spin-rotation constants                 ...  NO (   0 nuclei)
Spin-spin couplings                     ...  NO (   0 nuclei,    0 pairs)

Choice of magnetic origin               ... GIAO
Position of magnetic origin             ...     0.000000     0.000000     0.000000

Properties with geometric perturbations:
SCF Hessian                             ...  NO
IR spectrum                             ...  NO
VCD spectrum                            ...  NO
X-ray spectroscopy properties:
SCF XES/XAS/RIXS spectra                ...  NO

SCF SOC stabilization energy            ...  NO
Diagonal Born-Oppenheimer correction    ...  NO

-------------
DIPOLE MOMENT
-------------

Method             : SCF
Type of density    : Electron Density
Multiplicity       :   2
Irrep              :   0
Energy             : -2691.4264502193736917 Eh
Basis              : AO
                                X                 Y                 Z
Electronic contribution:     -7.039564019     -17.045417508     -15.042653326
Nuclear contribution   :      7.353697310      17.893817249      15.692429841
                        -----------------------------------------
Total Dipole Moment    :      0.314133291       0.848399740       0.649776515
                        -----------------------------------------
Magnitude (a.u.)       :      1.113854283
Magnitude (Debye)      :      2.831192588



--------------------
Rotational spectrum 
--------------------
 
Rotational constants in cm-1:             0.407172             0.040057             0.037968 
Rotational constants in MHz :         12206.702850          1200.868419          1138.259107 

Dipole components along the rotational axes: 
x,y,z [a.u.] :     1.100274    -0.173045     0.011080 
x,y,z [Debye]:     2.796675    -0.439847     0.028163 

 

Dipole moment calculation done in   0.0 sec 

Maximum memory used throughout the entire PROP-calculation: 5.2 MB

--------------------------------
SUGGESTED CITATIONS FOR THIS RUN
--------------------------------

Below you find a list of papers that are relevant to this ORCA run
We neither can nor want to force you to cite these papers, but we appreciate if you do
You receive ORCA, which is the product of decades of hard work by many enthusiastic individuals, for free
The only thing we kindly ask in return is that you cite our papers,
We deeply appreciate it, if you show your appreciation for ORCA by not just citing the generic ORCA reference.

Please note that relegating all ORCA citations to the supporting information does *not* help us.
SI sections are not indexed - citations you put there will not count into any citation statistics
But we need these citations in order to attract the funding resources that allow us to do what we are doing

Therefore, if you are a happy ORCA user, please consider citing a few of the papers listed below in the main body of your paper

In addition to the list printed below, the program has created the file radical_001.bibtex that contains the list in bibtex format
You can import this file easily into all common literature databanks and citation aid programs


List of essential papers. We consider these as the minimum necessary citations

  1. Neese, F.
     Software update: the ORCA program system, version 6.0
     WIRES Comput. Molec. Sci. 2025 15(1), e70019
     doi.org/10.1002/wcms.7019

List of papers to cite with high priority. The work reported in these papers was absolutely
necessary for this run to complete.
Our perspective: the developers of density functionals and basis sets usually get cited in chemistry papers
Good! But without the algorithms to do something with them, the functionals or basis sets would not do anything.
Hence, in our opinion, the algorithm design and method developments papers are equally worthy of getting cited

  1. Neese, F.
     An improvement of the resolution of the identity approximation for the formation of the Coulomb matrix
     J. Comp. Chem. 2003 24(14), 1740-1747
     doi.org/10.1002/jcc.10318
  2. Neese, F.; Wennmohs, F.; Hansen, A.; Becker, U.
     Efficient, approximate and parallel Hartree-Fock and hybrid DFT calculations. A 'chain-of-spheres' algorithm for the Hartree-Fock exchange
     Chem. Phys. 2009 356(1-3), 98-109
     doi.org/10.1016/j.chemphys.2008.10.036
  3. Helmich-Paris, B.; de Souza, B.; Neese, F.; Izsák, R.
     An improved chain of spheres for exchange algorithm
     J. Chem. Phys. 2021 155(10), 104109
     doi.org/10.1063/5.0058766
  4. Neese, F.
     The SHARK Integral Generation and Digestion System
     J. Comp. Chem. 2022 44(3), 381
     doi.org/10.1002/jcc.26942

List of suggested additional citations. These are papers that are important in the 'surrounding' of 
of this run, or papers that preceded the highly important papers. If you like your results we are grateful for a citation.

  1. Izsak, R.; Neese, F.
     An overlap fitted chain of spheres exchange method
     J. Chem. Phys. 2011 135 , 144105
     doi.org/10.1063/1.3646921
  2. Izsak, R.; Hansen, A.; Neese, F.
     The resolution of identity and chain of spheres approximations for the LPNO-CCSD singles Fock term
     Molec. Phys. 2012 110 , 2413-2417
     doi.org/10.1080/00268976.2012.687466
  3. Neese, F.
     The ORCA program system
     WIRES Comput. Molec. Sci. 2012 2(1), 73-78
     doi.org/10.1002/wcms.81
  4. Izsak, R.; Neese, F.; Klopper, W.
     Robust fitting techniques in the chain of spheres approximation to the Fock exchange: The role of the complementary space
     J. Chem. Phys. 2013 139 , 
     doi.org/10.1063/1.4819264
  5. Neese, F.
     Software update: the ORCA program system, version 4.0
     WIRES Comput. Molec. Sci. 2018 8(1), 1-6
     doi.org/10.1002/wcms.1327
  6. Neese, F.; Wennmohs, F.; Becker, U.; Riplinger, C.
     The ORCA quantum chemistry program package
     J. Chem. Phys. 2020 152(22), 224108
     doi.org/10.1063/5.0004608
  7. Neese, F.
     Software update: The ORCA program system—Version 5.0
     WIRES Comput. Molec. Sci. 2022 12(1), e1606
     doi.org/10.1002/wcms.1606

List of optional additional citations

  1. Neese, F.
     Approximate second-order SCF convergence for spin unrestricted wavefunctions
     Chem. Phys. Lett. 2000 325(1-3), 93-98
     doi.org/10.1016/s0009-2614(00)00662-x

Timings for individual modules:

Sum of individual times          ...        4.668 sec (=   0.078 min)
Startup calculation              ...        0.802 sec (=   0.013 min)  17.2 %
SCF iterations                   ...        3.440 sec (=   0.057 min)  73.7 %
Property calculations            ...        0.427 sec (=   0.007 min)   9.1 %
                             ****ORCA TERMINATED NORMALLY****
TOTAL RUN TIME: 0 days 0 hours 0 minutes 5 seconds 112 msec
