[Molden Format]
[Title]
 Molden file created by orca_2mkl for BaseName=radical_016

[Atoms] AU
C    1   6          1.1809408837         0.8283538919         0.3229957703 
C    2   6          1.3121332308         0.0880102152         2.8045520040 
H    3   1          2.9484414210         1.2918413516        -0.6544707417 
H    4   1          3.1138340317        -0.0048320297         3.8075562749 
H    5   1         -0.3943763955        -0.4282024933         3.8524221528 
C    6   6         -1.0823463124         0.9715346616        -1.0858064009 
H    7   1         -2.9010735457         0.7772556972        -0.1124311461 
H    8   1         -1.1117901353         2.0018549238        -2.8807854460 
H    9   1         -1.2752325486        -1.7226800129        -2.4747664477 
Br  10  35         -1.8077762704        -4.1386892059        -3.7412703513 
[GTO]
  1 0
s   5 1.0 
     1238.4016938000         0.8208956682
      186.2900499200         1.4766449896
       42.2511763460         2.1526124058
       11.6765579320         2.1081722461
        3.5930506482         0.8290999933
s   1 1.0 
        0.4024514736         0.3601183351
s   1 1.0 
        0.1309018267         0.1551027052
p   3 1.0 
        9.4680970621         1.3467645142
        2.0103545142         1.0678070931
        0.5477100471         0.5108735714
p   1 1.0 
        0.1526861379         0.1360471976
d   1 1.0 
        0.8000000000         1.9292013661

  2 0
s   5 1.0 
     1238.4016938000         0.8208956682
      186.2900499200         1.4766449896
       42.2511763460         2.1526124058
       11.6765579320         2.1081722461
        3.5930506482         0.8290999933
s   1 1.0 
        0.4024514736         0.3601183351
s   1 1.0 
        0.1309018267         0.1551027052
p   3 1.0 
        9.4680970621         1.3467645142
        2.0103545142         1.0678070931
        0.5477100471         0.5108735714
p   1 1.0 
        0.1526861379         0.1360471976
d   1 1.0 
        0.8000000000         1.9292013661

  3 0
s   3 1.0 
       13.0107010000         0.1634903809
        1.9622572000         0.2773515510
        0.4445379600         0.3157501452
s   1 1.0 
        0.1219496200         0.1470772262
p   1 1.0 
        0.8000000000         1.0784563492

  4 0
s   3 1.0 
       13.0107010000         0.1634903809
        1.9622572000         0.2773515510
        0.4445379600         0.3157501452
s   1 1.0 
        0.1219496200         0.1470772262
p   1 1.0 
        0.8000000000         1.0784563492

  5 0
s   3 1.0 
       13.0107010000         0.1634903809
        1.9622572000         0.2773515510
        0.4445379600         0.3157501452
s   1 1.0 
        0.1219496200         0.1470772262
p   1 1.0 
        0.8000000000         1.0784563492

  6 0
s   5 1.0 
     1238.4016938000         0.8208956682
      186.2900499200         1.4766449896
       42.2511763460         2.1526124058
       11.6765579320         2.1081722461
        3.5930506482         0.8290999933
s   1 1.0 
        0.4024514736         0.3601183351
s   1 1.0 
        0.1309018267         0.1551027052
p   3 1.0 
        9.4680970621         1.3467645142
        2.0103545142         1.0678070931
        0.5477100471         0.5108735714
p   1 1.0 
        0.1526861379         0.1360471976
d   1 1.0 
        0.8000000000         1.9292013661

  7 0
s   3 1.0 
       13.0107010000         0.1634903809
        1.9622572000         0.2773515510
        0.4445379600         0.3157501452
s   1 1.0 
        0.1219496200         0.1470772262
p   1 1.0 
        0.8000000000         1.0784563492

  8 0
s   3 1.0 
       13.0107010000         0.1634903809
        1.9622572000         0.2773515510
        0.4445379600         0.3157501452
s   1 1.0 
        0.1219496200         0.1470772262
p   1 1.0 
        0.8000000000         1.0784563492

  9 0
s   3 1.0 
       13.0107010000         0.1634903809
        1.9622572000         0.2773515510
        0.4445379600         0.3157501452
s   1 1.0 
        0.1219496200         0.1470772262
p   1 1.0 
        0.8000000000         1.0784563492

 10 0
s   6 1.0 
   113286.3877600000         7.5076141183
    17009.6263030000        13.8835270484
     3870.1842567000        22.7307285566
     1093.0357227000        30.8227297499
      356.3972179700        27.2481937511
      123.1253964300         9.6953381145
s   3 1.0 
      236.7408400700        -4.7631125758
       28.4686610700         5.6113863182
       11.8834437220         1.9900291396
s   3 1.0 
       21.2696333120        -1.5429794477
        3.6129226841         1.3310800628
        1.6626648969         0.4300130345
s   1 1.0 
        0.3482379323         0.3230852630
s   1 1.0 
        0.1301903139         0.1544699827
p   5 1.0 
     1560.2801881000       115.0180051576
      368.4785920500       143.9035925417
      117.2297884900       137.5255986684
       42.6489092480        78.9578527439
       16.0872250960        15.8580577654
p   3 1.0 
        8.6352810058         6.8437546680
        3.5613665502         3.7974971038
        1.5292626609         0.5585414278
p   1 1.0 
        0.5306429485         0.6455696201
p   1 1.0 
        0.1570275896         0.1408996918
d   4 1.0 
      104.8551864200       261.4493931636
       30.2811436880       176.6993802449
       10.6513942670        76.9545600188
        3.8699456233        17.5937671387
d   1 1.0 
        1.3240876762         4.6593398042
d   1 1.0 
        0.3890000000         0.5462379705

[5D]
[7F]
[9G]
[MO]
 Sym=     1a
 Ene= -4.82756126260381E+02
 Spin= Alpha
 Occup= 1.000000
  1      -0.000005105561
  2       0.000072255614
  3      -0.000131712528
  4      -0.000005830931
  5      -0.000015257542
  6      -0.000004292945
  7      -0.000026979688
  8       0.000061401725
  9      -0.000147606877
 10       0.000001868772
 11      -0.000003415323
 12      -0.000000162107
 13      -0.000000697903
 14       0.000005897822
 15      -0.000001428979
 16       0.000008413947
 17       0.000188712169
 18       0.000000004557
 19      -0.000002378904
 20      -0.000002646346
 21      -0.000012230368
 22       0.000026794117
 23      -0.000096259716
 24       0.000000829831
 25       0.000001058372
 26       0.000000842702
 27       0.000004913108
 28       0.000001437530
 29       0.000004999435
 30      -0.000001576988
 31       0.000001970346
 32      -0.000003075768
 33       0.000000665658
 34      -0.000001725565
 35       0.000007869306
 36      -0.000001250735
 37      -0.000001707091
 38       0.000003013295
 39       0.000000440683
 40      -0.000005535571
 41       0.000000550257
 42      -0.000000642788
 43       0.000002136648
 44      -0.000004878737
 45       0.000144242931
 46      -0.000779456940
 47       0.000008579513
 48      -0.000000894868
 49       0.000001118720
 50      -0.000067991373
 51       0.000283796172
 52       0.000176810093
 53       0.000007643515
 54      -0.000004839069
 55      -0.000028664294
 56       0.000027173850
 57      -0.000003517806
 58       0.000009533050
 59       0.000018962114
 60      -0.000002488148
 61      -0.000004685828
 62       0.000003761336
 63       0.000039331309
 64       0.000051008661
 65       0.000007728197
 66       0.000001274221
 67      -0.000003802161
 68      -0.000104027931
 69       0.001348133738
 70       0.000024143179
 71       0.000149702359
 72       0.000077651405
 73       0.994981621250
 74       0.015689693249
 75      -0.003927359943
 76       0.002373445560
 77      -0.001916176585
 78       0.000003150808
 79       0.000012853151
 80       0.000006692994
 81      -0.000010341003
 82      -0.000041611186
 83      -0.000021708990
 84       0.000041087102
 85       0.000164707696
 86       0.000085940816
 87      -0.000117202354
 88      -0.000491399780
 89      -0.000256994657
 90       0.000002284382
 91      -0.000002019317
 92      -0.000008123834
 93       0.000007273724
 94      -0.000003911341
 95      -0.000007415345
 96       0.000006589683
 97       0.000026288322
 98      -0.000023527409
 99       0.000012813221
100       0.000010106262
101      -0.000009342085
102      -0.000035484335
103       0.000031596443
104      -0.000018344658
 Sym=     1a
 Ene= -6.24394993398774E+01
 Spin= Alpha
 Occup= 1.000000
  1      -0.000011953434
  2       0.000171522717
  3      -0.000300029350
  4      -0.000013842118
  5      -0.000035635416
  6      -0.000010126874
  7      -0.000070744456
  8       0.000146635373
  9      -0.000351996135
 10       0.000004591219
 11      -0.000007809175
 12      -0.000000904438
 13      -0.000001003665
 14       0.000013732264
 15      -0.000003381673
 16       0.000020646333
 17       0.000444406609
 18      -0.000000208959
 19      -0.000005643857
 20      -0.000006366739
 21      -0.000025457553
 22       0.000063599270
 23      -0.000226864118
 24       0.000001871821
 25       0.000002478890
 26       0.000001961277
 27       0.000011443305
 28       0.000003251903
 29       0.000012224596
 30      -0.000003848004
 31       0.000004856168
 32      -0.000007079582
 33       0.000001825658
 34      -0.000004503954
 35       0.000017695342
 36      -0.000002892890
 37      -0.000003964023
 38       0.000006946560
 39       0.000001854644
 40      -0.000012107710
 41       0.000001267474
 42      -0.000001421514
 43       0.000004893756
 44      -0.000011199961
 45       0.000342553262
 46      -0.001891708324
 47       0.000020658191
 48      -0.000000565425
 49       0.000003209425
 50      -0.000165902266
 51       0.000682221389
 52       0.000422625560
 53       0.000018013437
 54      -0.000011369725
 55      -0.000067570603
 56       0.000064129908
 57      -0.000007956285
 58       0.000021580254
 59       0.000049806253
 60      -0.000004954040
 61      -0.000010380929
 62       0.000008921371
 63       0.000093467791
 64       0.000124810801
 65       0.000018636949
 66       0.000003453412
 67      -0.000007823050
 68      -0.000277694827
 69       0.003293317319
 70       0.000061118554
 71       0.000373260004
 72       0.000193681649
 73       0.347186000333
 74      -1.046956131322
 75      -0.018601057245
 76       0.006407896185
 77      -0.004842082755
 78      -0.000063539187
 79      -0.000317090473
 80      -0.000161484241
 81      -0.000033008933
 82      -0.000138884312
 83      -0.000072241197
 84       0.000103147127
 85       0.000417861298
 86       0.000218139988
 87      -0.000285699432
 88      -0.001201093682
 89      -0.000628313517
 90       0.000013775255
 91      -0.000010097416
 92      -0.000048082202
 93       0.000044279415
 94      -0.000019711302
 95      -0.000019653227
 96       0.000016908525
 97       0.000069435929
 98      -0.000062471225
 99       0.000032328556
100       0.000022965806
101      -0.000021415663
102      -0.000080569133
103       0.000071622038
104      -0.000041347031
 Sym=     1a
 Ene= -5.62713912951607E+01
 Spin= Alpha
 Occup= 1.000000
  1      -0.000010857050
  2       0.000168270239
  3      -0.000266281027
  4      -0.000009207277
  5      -0.000036781872
  6      -0.000006632593
  7      -0.000072608326
  8       0.000159372138
  9      -0.000358200726
 10       0.000004487336
 11      -0.000010442013
 12      -0.000000282166
 13      -0.000004941210
 14       0.000012319774
 15      -0.000004257168
 16       0.000031868081
 17       0.000420759620
 18      -0.000001317221
 19      -0.000006634814
 20      -0.000008808652
 21      -0.000013239602
 22       0.000063928664
 23      -0.000214842741
 24       0.000001610869
 25       0.000002502108
 26       0.000002353024
 27       0.000011300414
 28       0.000002607770
 29       0.000013778329
 30      -0.000015452187
 31       0.000004847870
 32      -0.000006939967
 33       0.000002261413
 34      -0.000006499533
 35       0.000015438544
 36      -0.000002168361
 37      -0.000004294937
 38       0.000006222804
 39       0.000006708986
 40      -0.000008681977
 41       0.000000033515
 42      -0.000001142201
 43       0.000003548973
 44       0.000001624444
 45       0.000285305121
 46      -0.001878369007
 47       0.000025147909
 48       0.000055188888
 49       0.000030326444
 50      -0.000227773093
 51       0.000696587756
 52       0.000438995038
 53       0.000032238685
 54      -0.000016271186
 55      -0.000121822686
 56       0.000119177860
 57      -0.000008743610
 58      -0.000010952677
 59       0.000001977242
 60      -0.000013135237
 61      -0.000014552420
 62       0.000016176788
 63       0.000077731335
 64       0.000108901135
 65       0.000025849613
 66       0.000004147030
 67      -0.000015054884
 68      -0.000542161723
 69       0.003616905824
 70       0.000173255206
 71       0.000881719106
 72       0.000459482884
 73      -0.000161564047
 74       0.000479362248
 75      -0.000277567612
 76       0.001095359374
 77      -0.002378850425
 78      -0.153446726565
 79      -0.871722318891
 80      -0.445008449389
 81      -0.003714190101
 82      -0.021035079285
 83      -0.010740620931
 84       0.001036930690
 85       0.005669832656
 86       0.002902175443
 87      -0.000622228652
 88      -0.003103262007
 89      -0.001599996234
 90       0.000012881875
 91      -0.000009737108
 92      -0.000044952198
 93       0.000041429773
 94      -0.000018697305
 95      -0.000012313401
 96       0.000010953942
 97       0.000042511480
 98      -0.000038175070
 99       0.000020749895
100      -0.000026255254
101       0.000018474997
102       0.000098712912
103      -0.000090758818
104       0.000034935900
 Sym=     1a
 Ene= -5.62691062646891E+01
 Spin= Alpha
 Occup= 1.000000
  1       0.000001253704
  2      -0.000015942756
  3       0.000174483172
  4       0.000005026151
  5       0.000011879203
  6      -0.000011798132
  7      -0.000084257269
  8      -0.000197615948
  9       0.000346061618
 10       0.000000801597
 11      -0.000001329777
 12      -0.000000605821
 13       0.000004414015
 14       0.000007939545
 15       0.000001764219
 16      -0.000023933514
 17      -0.000385397061
 18       0.000011419780
 19      -0.000011514205
 20       0.000008480492
 21      -0.000060784529
 22       0.000007043317
 23       0.000123633627
 24      -0.000000388579
 25      -0.000004608752
 26      -0.000003791913
 27      -0.000002667982
 28       0.000002238420
 29       0.000035393461
 30       0.000105533120
 31      -0.000007905213
 32       0.000010518203
 33      -0.000002847596
 34       0.000023461965
 35       0.000060234507
 36      -0.000002508218
 37      -0.000004315862
 38      -0.000009680796
 39      -0.000008102439
 40       0.000023740121
 41      -0.000001760490
 42      -0.000005023839
 43      -0.000007613592
 44      -0.000004803083
 45       0.000084813285
 46      -0.000240793208
 47      -0.000024843181
 48      -0.000031166945
 49       0.000019768598
 50       0.000265945446
 51       0.000316897483
 52      -0.000200637110
 53       0.000015029774
 54       0.000011615408
 55      -0.000015864487
 56      -0.000003015152
 57      -0.000005575536
 58       0.000175992953
 59      -0.000007160568
 60      -0.000003253523
 61      -0.000010589255
 62       0.000013921293
 63      -0.000101987520
 64      -0.000023862526
 65      -0.000026443971
 66      -0.000012338057
 67      -0.000006295972
 68       0.000000324848
 69       0.000450961840
 70      -0.000033491023
 71       0.000009427247
 72       0.000041755435
 73      -0.000003201570
 74       0.000009162028
 75      -0.000010722153
 76       0.000075082329
 77      -0.000266988333
 78      -0.695315959208
 79      -0.219965209608
 80       0.670653352913
 81      -0.016612791751
 82      -0.005260241586
 83       0.016017795295
 84       0.004029685728
 85       0.001296235455
 86      -0.003862164322
 87      -0.001518672096
 88      -0.000605722658
 89       0.001352188238
 90       0.000018157420
 91      -0.000007382649
 92       0.000014069142
 93       0.000004235559
 94      -0.000022825426
 95      -0.000008938109
 96       0.000006388863
 97       0.000001480867
 98      -0.000008279062
 99       0.000013262978
100       0.000008029155
101      -0.000009203863
102      -0.000016300271
103       0.000018278695
104      -0.000014777188
 Sym=     1a
 Ene= -5.62690907886353E+01
 Spin= Alpha
 Occup= 1.000000
  1      -0.000011990987
  2       0.000122699774
  3      -0.000226106594
  4      -0.000024568721
  5      -0.000039077586
  6      -0.000029725557
  7       0.000056734217
  8       0.000174494808
  9       0.000078651610
 10      -0.000009696783
 11      -0.000002997856
 12       0.000005363551
 13      -0.000007330164
 14      -0.000009371494
 15      -0.000000133874
 16      -0.000017207960
 17       0.000125565285
 18       0.000004392669
 19      -0.000006919861
 20       0.000000247324
 21      -0.000105721691
 22      -0.000039231664
 23      -0.000082124142
 24       0.000006240059
 25       0.000000928592
 26       0.000007805240
 27       0.000007157107
 28      -0.000000841692
 29       0.000016121212
 30       0.000011658822
 31      -0.000002143123
 32      -0.000023729765
 33      -0.000016127876
 34       0.000013536691
 35       0.000045964018
 36      -0.000002170201
 37       0.000002487390
 38       0.000003057120
 39      -0.000015090575
 40      -0.000054258606
 41      -0.000000314399
 42       0.000001725759
 43       0.000007562986
 44      -0.000000310700
 45      -0.000037452083
 46       0.000347413934
 47       0.000032260223
 48       0.000014316029
 49       0.000043386238
 50      -0.000113992306
 51      -0.000182894893
 52      -0.000286501347
 53       0.000008371785
 54      -0.000007897589
 55       0.000002543097
 56      -0.000018504684
 57       0.000001668127
 58      -0.000041534135
 59       0.000031132189
 60       0.000023934885
 61       0.000004857726
 62       0.000032555922
 63      -0.000120413264
 64       0.000024152437
 65       0.000022287151
 66       0.000009453211
 67       0.000010958372
 68      -0.000008293268
 69      -0.000478423818
 70       0.000030213769
 71      -0.000062815114
 72       0.000005338556
 73       0.000003403902
 74      -0.000009646338
 75       0.000013908012
 76      -0.000080306163
 77       0.000271648861
 78       0.688918098701
 79      -0.416208472113
 80       0.577742824932
 81       0.016461004316
 82      -0.009934658770
 83       0.013805937357
 84      -0.003996284478
 85       0.002374999397
 86      -0.003356708397
 87       0.001508246164
 88      -0.000749008198
 89       0.001302083095
 90       0.000013941579
 91       0.000014595914
 92       0.000012746979
 93       0.000014622588
 94       0.000019012233
 95      -0.000003916424
 96      -0.000008414329
 97      -0.000010998437
 98      -0.000001270246
 99      -0.000011892869
100      -0.000000952269
101       0.000007694543
102       0.000013790905
103      -0.000006688632
104       0.000011796741
 Sym=     1a
 Ene= -1.02203478760018E+01
 Spin= Alpha
 Occup= 1.000000
  1      -0.062177818236
  2      -0.001015751394
  3      -0.004706223151
  4      -0.001726473355
  5       0.000539452645
  6      -0.001188747409
  7      -0.000657362711
  8      -0.001366153864
  9       0.005085041148
 10      -0.000046140754
 11       0.001219422918
 12      -0.000266781943
 13       0.001131351768
 14      -0.000241139673
 15      -0.010811367194
 16      -0.000059468888
 17      -0.005256195086
 18      -0.000258429069
 19       0.000027677459
 20      -0.000008318742
 21       0.004860166377
 22      -0.000361351612
 23       0.002867709994
 24      -0.000139747926
 25      -0.000041117565
 26       0.000108261897
 27      -0.000230065700
 28      -0.000090015698
 29       0.000605712370
 30       0.001131747863
 31       0.000315122961
 32       0.000031401534
 33       0.000203835940
 34      -0.000736016381
 35      -0.001959720784
 36       0.000008680062
 37       0.000009778434
 38       0.000021207691
 39       0.000940180986
 40       0.001797883461
 41       0.000007984235
 42       0.000071951907
 43      -0.000131936737
 44      -0.985774562926
 45      -0.052928250640
 46       0.049368049784
 47       0.000607360071
 48       0.000338234256
 49       0.000524773809
 50       0.002123824338
 51      -0.006555156402
 52      -0.002826175281
 53      -0.000670558380
 54       0.000275352966
 55       0.001446419478
 56      -0.001312719863
 57      -0.000018066551
 58       0.003016328973
 59      -0.007449026092
 60       0.002468346333
 61       0.000583182250
 62      -0.001522793025
 63       0.002898329922
 64      -0.007979708349
 65      -0.000241004733
 66      -0.001327904467
 67       0.002709061640
 68      -0.000984448106
 69      -0.021187507702
 70       0.000064648216
 71       0.001103798900
 72       0.000413442715
 73       0.000004141813
 74      -0.000005129105
 75       0.000079806732
 76      -0.002122849980
 77       0.011302420965
 78       0.000001463291
 79       0.000013348549
 80       0.000013475726
 81      -0.000004086722
 82      -0.000043450076
 83      -0.000044784410
 84      -0.000084147988
 85      -0.000170075859
 86       0.000000769302
 87       0.001415003287
 88       0.005671636370
 89       0.002820016299
 90      -0.000017099624
 91       0.000016405441
 92       0.000043317893
 93      -0.000039653821
 94       0.000034010347
 95       0.000088365965
 96      -0.000084597519
 97      -0.000239595873
 98       0.000217607360
 99      -0.000173214127
100      -0.000345896535
101       0.000318043496
102       0.001081230966
103      -0.000975157613
104       0.000633665370
 Sym=     1a
 Ene= -1.02175141460578E+01
 Spin= Alpha
 Occup= 1.000000
  1       0.769488739786
  2       0.035236043189
  3      -0.028392686885
  4      -0.000006871205
  5       0.000208330555
  6      -0.001837946352
  7       0.003146537616
  8       0.002361929920
  9      -0.006179543579
 10      -0.000147238544
 11      -0.000096962953
 12      -0.000284099903
 13       0.001308228587
 14       0.000426725738
 15       0.618245464312
 16       0.026957095108
 17      -0.003463372194
 18       0.000083839518
 19      -0.000709726348
 20       0.002226310060
 21      -0.001218415874
 22       0.001265635696
 23      -0.004505911905
 24      -0.000427115904
 25       0.000104116300
 26      -0.000051937279
 27       0.001003746769
 28       0.000219794704
 29      -0.003773070277
 30       0.004038391792
 31       0.001966753950
 32       0.000309236329
 33      -0.000593799124
 34      -0.002588975453
 35       0.003961236651
 36       0.001443584584
 37      -0.000015692462
 38       0.000570734430
 39      -0.002683269155
 40       0.003414117603
 41      -0.001362588975
 42      -0.000323375585
 43       0.000521686204
 44      -0.054750191726
 45      -0.003695018983
 46       0.002929103752
 47      -0.001313327379
 48      -0.000397543591
 49      -0.001219113738
 50      -0.001368714317
 51       0.002245427015
 52       0.006242247686
 53       0.000155021510
 54      -0.000789733798
 55       0.000178085134
 56      -0.000928816689
 57      -0.000084078579
 58      -0.000017921716
 59      -0.002746743792
 60       0.000447227397
 61      -0.000069767246
 62      -0.000008560264
 63       0.001497604322
 64       0.000427086219
 65       0.000338086795
 66      -0.000324954985
 67       0.000215250515
 68      -0.000113786998
 69       0.011600429929
 70       0.000276423697
 71      -0.000024959909
 72       0.000005112518
 73      -0.000009092688
 74       0.000016312829
 75      -0.000158020710
 76       0.001736922919
 77      -0.006984632989
 78      -0.000007324060
 79       0.000024538339
 80       0.000002846147
 81       0.000024037795
 82      -0.000086393955
 83      -0.000011354626
 84      -0.000044365675
 85       0.000552328185
 86       0.000154600636
 87      -0.000621081263
 88      -0.003848554740
 89      -0.001820238281
 90       0.000014561058
 91      -0.000004292266
 92      -0.000047678289
 93       0.000046250968
 94      -0.000019665019
 95      -0.000068079258
 96       0.000023637051
 97       0.000225524550
 98      -0.000216757450
 99       0.000095283609
100       0.000202430513
101      -0.000107679324
102      -0.000703483262
103       0.000656346190
104      -0.000309833338
 Sym=     1a
 Ene= -1.02170267258887E+01
 Spin= Alpha
 Occup= 1.000000
  1       0.616930355304
  2       0.033150441456
  3      -0.034314245528
  4       0.000461562173
  5      -0.000685183253
  6       0.001710708198
  7       0.002854313020
  8       0.000553939533
  9      -0.000351079056
 10       0.001654133837
 11       0.000009978434
 12      -0.001379696025
 13       0.001392316991
 14       0.000409494530
 15      -0.770679512898
 16      -0.040617952745
 17       0.033798169891
 18       0.000129819804
 19      -0.000365098800
 20       0.001157810441
 21      -0.002150518859
 22       0.000570369505
 23      -0.002803405057
 24      -0.001438106679
 25      -0.000170073598
 26       0.001445780194
 27      -0.001760191169
 28      -0.000402334962
 29      -0.002779736603
 30       0.005183174834
 31       0.001663564603
 32       0.000558300784
 33      -0.001417286447
 34       0.003911288644
 35      -0.005578614824
 36      -0.002287574026
 37       0.000131291927
 38      -0.001311871837
 39       0.003212585455
 40      -0.006835116504
 41       0.002150793102
 42       0.000659948784
 43      -0.001353055112
 44      -0.029943971818
 45      -0.002735523723
 46       0.007819981504
 47      -0.001371187873
 48      -0.000246456668
 49      -0.000818119263
 50       0.003389666672
 51       0.002248464347
 52       0.000820973650
 53      -0.000097825162
 54      -0.000774670988
 55       0.000198003868
 56      -0.000933683221
 57       0.000016964473
 58       0.000784759305
 59       0.000237446906
 60       0.000396102564
 61      -0.000122658471
 62      -0.000058413750
 63      -0.000001150184
 64      -0.001405052449
 65       0.000077883309
 66      -0.000158242903
 67       0.000252962225
 68       0.000013480360
 69       0.004941235729
 70       0.000182179164
 71      -0.000065347245
 72       0.000288097055
 73      -0.000003309068
 74       0.000005850222
 75      -0.000057815788
 76       0.000679657444
 77      -0.002918375852
 78      -0.000005965393
 79       0.000010387261
 80      -0.000002786634
 81       0.000019920778
 82      -0.000036653226
 83       0.000008719914
 84      -0.000060434037
 85       0.000227597499
 86       0.000008959364
 87      -0.000196177554
 88      -0.001628189460
 89      -0.000686012620
 90       0.000006893843
 91       0.000000790296
 92      -0.000017376179
 93       0.000021866419
 94      -0.000007733253
 95      -0.000030420453
 96      -0.000001393499
 97       0.000082700363
 98      -0.000099587909
 99       0.000037418790
100       0.000082359863
101      -0.000021098508
102      -0.000268946195
103       0.000284494398
104      -0.000124355532
 Sym=     1a
 Ene= -8.65778522337466E+00
 Spin= Alpha
 Occup= 1.000000
  1       0.000026961108
  2      -0.000345734636
  3       0.000444185030
  4       0.000028070083
  5       0.000059261982
  6       0.000020224976
  7       0.000222934751
  8      -0.000308333697
  9       0.000671528129
 10      -0.000011208423
 11       0.000011580059
 12       0.000011834548
 13      -0.000008437207
 14      -0.000021339164
 15       0.000008710127
 16      -0.000049655245
 17      -0.000800235480
 18       0.000003901283
 19       0.000011691970
 20       0.000013274504
 21      -0.000003716012
 22      -0.000117551609
 23       0.000411367593
 24      -0.000001759521
 25      -0.000004907727
 26      -0.000004257847
 27      -0.000020368603
 28      -0.000003916229
 29      -0.000033483047
 30       0.000001349537
 31      -0.000011057146
 32       0.000011550760
 33      -0.000004482680
 34       0.000015522886
 35      -0.000018081459
 36       0.000004115297
 37       0.000006582732
 38      -0.000011509886
 39      -0.000015315594
 40       0.000008137258
 41      -0.000001772158
 42       0.000000772048
 43      -0.000006862471
 44       0.000022804478
 45      -0.000682974922
 46       0.004337135563
 47      -0.000043270484
 48      -0.000007301474
 49      -0.000006517346
 50       0.000365154407
 51      -0.001477512994
 52      -0.000876407568
 53      -0.000029245318
 54       0.000019808364
 55       0.000107905226
 56      -0.000102336665
 57       0.000007584659
 58      -0.000025098584
 59      -0.000173549444
 60      -0.000004499739
 61       0.000002754262
 62      -0.000020003370
 63      -0.000176412774
 64      -0.000290342954
 65      -0.000040019498
 66      -0.000021483255
 67      -0.000005464753
 68       0.000915914989
 69      -0.008170541923
 70      -0.000132471160
 71      -0.000790667526
 72      -0.000410962151
 73      -0.136657636539
 74       0.516872713551
 75      -1.093369161179
 76      -0.032537247174
 77       0.015144804233
 78       0.000274659571
 79       0.001316950099
 80       0.000674104170
 81      -0.000641887058
 82      -0.003089886093
 83      -0.001580506800
 84      -0.000293374039
 85      -0.001252618307
 86      -0.000653504268
 87       0.000712142448
 88       0.003045363122
 89       0.001593940821
 90       0.000204469843
 91      -0.000135245447
 92      -0.000683229147
 93       0.000640062319
 94      -0.000265025310
 95       0.000176292648
 96      -0.000129056988
 97      -0.000593604912
 98       0.000548120775
 99      -0.000243104452
100      -0.000053113871
101       0.000049853379
102       0.000184024288
103      -0.000163004240
104       0.000089260375
 Sym=     1a
 Ene= -6.49060380212263E+00
 Spin= Alpha
 Occup= 1.000000
  1      -0.000012162202
  2       0.000188361977
  3      -0.000328159995
  4      -0.000014054357
  5      -0.000030791289
  6      -0.000008860681
  7      -0.000034541591
  8       0.000181525436
  9      -0.000277000149
 10       0.000004410990
 11      -0.000008258099
 12      -0.000008212925
 13       0.000002621522
 14       0.000006906610
 15      -0.000005065991