[Molden Format]
[Title]
 Molden file created by orca_2mkl for BaseName=radical_023

[Atoms] AU
C    1   6          1.1745384916         0.9073633416         0.3520030664 
C    2   6          1.3225701883         0.0859541932         2.8261950374 
H    3   1          2.9467236599         1.3340464951        -0.6429906554 
H    4   1          3.1311609306        -0.0590879568         3.8067588105 
H    5   1         -0.3855154697        -0.4150802350         3.8801104201 
C    6   6         -1.0751521250         1.1998872779        -0.9957439431 
H    7   1         -2.9043692281         0.8377571691        -0.0917462038 
H    8   1         -1.1001513120         2.0210280852        -2.8926926103 
H    9   1         -1.2837306470        -1.9391046778        -2.5547528858 
Br  10  35         -1.8433201293        -4.3083129134        -3.8491472574 
[GTO]
  1 0
s   5 1.0 
     1238.4016938000         0.8208956682
      186.2900499200         1.4766449896
       42.2511763460         2.1526124058
       11.6765579320         2.1081722461
        3.5930506482         0.8290999933
s   1 1.0 
        0.4024514736         0.3601183351
s   1 1.0 
        0.1309018267         0.1551027052
p   3 1.0 
        9.4680970621         1.3467645142
        2.0103545142         1.0678070931
        0.5477100471         0.5108735714
p   1 1.0 
        0.1526861379         0.1360471976
d   1 1.0 
        0.8000000000         1.9292013661

  2 0
s   5 1.0 
     1238.4016938000         0.8208956682
      186.2900499200         1.4766449896
       42.2511763460         2.1526124058
       11.6765579320         2.1081722461
        3.5930506482         0.8290999933
s   1 1.0 
        0.4024514736         0.3601183351
s   1 1.0 
        0.1309018267         0.1551027052
p   3 1.0 
        9.4680970621         1.3467645142
        2.0103545142         1.0678070931
        0.5477100471         0.5108735714
p   1 1.0 
        0.1526861379         0.1360471976
d   1 1.0 
        0.8000000000         1.9292013661

  3 0
s   3 1.0 
       13.0107010000         0.1634903809
        1.9622572000         0.2773515510
        0.4445379600         0.3157501452
s   1 1.0 
        0.1219496200         0.1470772262
p   1 1.0 
        0.8000000000         1.0784563492

  4 0
s   3 1.0 
       13.0107010000         0.1634903809
        1.9622572000         0.2773515510
        0.4445379600         0.3157501452
s   1 1.0 
        0.1219496200         0.1470772262
p   1 1.0 
        0.8000000000         1.0784563492

  5 0
s   3 1.0 
       13.0107010000         0.1634903809
        1.9622572000         0.2773515510
        0.4445379600         0.3157501452
s   1 1.0 
        0.1219496200         0.1470772262
p   1 1.0 
        0.8000000000         1.0784563492

  6 0
s   5 1.0 
     1238.4016938000         0.8208956682
      186.2900499200         1.4766449896
       42.2511763460         2.1526124058
       11.6765579320         2.1081722461
        3.5930506482         0.8290999933
s   1 1.0 
        0.4024514736         0.3601183351
s   1 1.0 
        0.1309018267         0.1551027052
p   3 1.0 
        9.4680970621         1.3467645142
        2.0103545142         1.0678070931
        0.5477100471         0.5108735714
p   1 1.0 
        0.1526861379         0.1360471976
d   1 1.0 
        0.8000000000         1.9292013661

  7 0
s   3 1.0 
       13.0107010000         0.1634903809
        1.9622572000         0.2773515510
        0.4445379600         0.3157501452
s   1 1.0 
        0.1219496200         0.1470772262
p   1 1.0 
        0.8000000000         1.0784563492

  8 0
s   3 1.0 
       13.0107010000         0.1634903809
        1.9622572000         0.2773515510
        0.4445379600         0.3157501452
s   1 1.0 
        0.1219496200         0.1470772262
p   1 1.0 
        0.8000000000         1.0784563492

  9 0
s   3 1.0 
       13.0107010000         0.1634903809
        1.9622572000         0.2773515510
        0.4445379600         0.3157501452
s   1 1.0 
        0.1219496200         0.1470772262
p   1 1.0 
        0.8000000000         1.0784563492

 10 0
s   6 1.0 
   113286.3877600000         7.5076141183
    17009.6263030000        13.8835270484
     3870.1842567000        22.7307285566
     1093.0357227000        30.8227297499
      356.3972179700        27.2481937511
      123.1253964300         9.6953381145
s   3 1.0 
      236.7408400700        -4.7631125758
       28.4686610700         5.6113863182
       11.8834437220         1.9900291396
s   3 1.0 
       21.2696333120        -1.5429794477
        3.6129226841         1.3310800628
        1.6626648969         0.4300130345
s   1 1.0 
        0.3482379323         0.3230852630
s   1 1.0 
        0.1301903139         0.1544699827
p   5 1.0 
     1560.2801881000       115.0180051576
      368.4785920500       143.9035925417
      117.2297884900       137.5255986684
       42.6489092480        78.9578527439
       16.0872250960        15.8580577654
p   3 1.0 
        8.6352810058         6.8437546680
        3.5613665502         3.7974971038
        1.5292626609         0.5585414278
p   1 1.0 
        0.5306429485         0.6455696201
p   1 1.0 
        0.1570275896         0.1408996918
d   4 1.0 
      104.8551864200       261.4493931636
       30.2811436880       176.6993802449
       10.6513942670        76.9545600188
        3.8699456233        17.5937671387
d   1 1.0 
        1.3240876762         4.6593398042
d   1 1.0 
        0.3890000000         0.5462379705

[5D]
[7F]
[9G]
[MO]
 Sym=     1a
 Ene= -4.82764758733027E+02
 Spin= Alpha
 Occup= 1.000000
  1       0.000005558733
  2      -0.000069966636
  3       0.000083436684
  4       0.000007308977
  5       0.000016329406
  6       0.000006466878
  7       0.000051810373
  8      -0.000064056122
  9       0.000144847224
 10      -0.000001978380
 11       0.000001951524
 12      -0.000001203540
 13      -0.000000546444
 14      -0.000007280395
 15       0.000001164652
 16      -0.000004806616
 17      -0.000177857395
 18      -0.000000846910
 19       0.000002661216
 20       0.000001856383
 21       0.000015968610
 22      -0.000029371162
 23       0.000095478680
 24      -0.000001482544
 25      -0.000000129480
 26      -0.000000423934
 27      -0.000005170287
 28      -0.000001510160
 29      -0.000005588676
 30      -0.000002945448
 31      -0.000002193701
 32       0.000004341987
 33      -0.000001067636
 34       0.000000140461
 35      -0.000011869150
 36       0.000001915560
 37       0.000001666669
 38      -0.000002536586
 39       0.000000970619
 40       0.000005872443
 41      -0.000000812008
 42       0.000001208369
 43      -0.000002877211
 44       0.000007622428
 45      -0.000151239534
 46       0.000663634973
 47      -0.000008502733
 48       0.000019246137
 49       0.000004707928
 50       0.000070868387
 51      -0.000229675753
 52      -0.000115970341
 53      -0.000002939802
 54       0.000002662774
 55       0.000013450002
 56      -0.000011011009
 57       0.000003222722
 58      -0.000024303102
 59      -0.000039884809
 60      -0.000003935242
 61       0.000006975078
 62      -0.000000798340
 63      -0.000042424273
 64      -0.000061928290
 65      -0.000006848678
 66       0.000003278088
 67      -0.000000466417
 68       0.000128159699
 69      -0.001015461746
 70      -0.000026422323
 71      -0.000147678477
 72      -0.000078505693
 73      -0.994981882040
 74      -0.015689082662
 75       0.003924267809
 76      -0.002334674929
 77       0.001740592071
 78      -0.000003267531
 79      -0.000012612174
 80      -0.000006929535
 81       0.000010585683
 82       0.000040363203
 83       0.000022230454
 84      -0.000040761091
 85      -0.000155194821
 86      -0.000085479416
 87       0.000099781079
 88       0.000394530971
 89       0.000216627499
 90      -0.000001625132
 91       0.000001773026
 92       0.000006827623
 93      -0.000005779774
 94       0.000003246446
 95       0.000004956562
 96      -0.000005447422
 97      -0.000020833570
 98       0.000017617554
 99      -0.000010013224
100      -0.000003894592
101       0.000004790838
102       0.000016733580
103      -0.000013864327
104       0.000008951728
 Sym=     1a
 Ene= -6.24479099216213E+01
 Spin= Alpha
 Occup= 1.000000
  1       0.000013222771
  2      -0.000168590974
  3       0.000194927100
  4       0.000017648566
  5       0.000038816803
  6       0.000015646970
  7       0.000127065845
  8      -0.000154469880
  9       0.000344613210
 10      -0.000004766650
 11       0.000004466872
 12      -0.000002394099
 13      -0.000001740211
 14      -0.000016988390
 15       0.000002775304
 16      -0.000011926522
 17      -0.000422287353
 18      -0.000001889863
 19       0.000006427015
 20       0.000004527597
 21       0.000036349077
 22      -0.000069762161
 23       0.000226796070
 24      -0.000003451449
 25      -0.000000371951
 26      -0.000001066527
 27      -0.000012143532
 28      -0.000003447874
 29      -0.000013995931
 30      -0.000007674225
 31      -0.000005200207
 32       0.000010266447
 33      -0.000002490048
 34       0.000000559300
 35      -0.000027874329
 36       0.000004460901
 37       0.000003899579
 38      -0.000005908134
 39       0.000001735275
 40       0.000013841304
 41      -0.000001892377
 42       0.000002773163
 43      -0.000006715529
 44       0.000017997427
 45      -0.000363054137
 46       0.001612539394
 47      -0.000020435047
 48       0.000044934141
 49       0.000010828235
 50       0.000170199582
 51      -0.000555684922
 52      -0.000279204842
 53      -0.000007002414
 54       0.000006414501
 55       0.000031803667
 56      -0.000026020165
 57       0.000007439852
 58      -0.000057366491
 59      -0.000100057988
 60      -0.000009942375
 61       0.000015731074
 62      -0.000002069497
 63      -0.000100917993
 64      -0.000151154704
 65      -0.000016417832
 66       0.000007093358
 67      -0.000002019755
 68       0.000335790419
 69      -0.002502091061
 70      -0.000066464913
 71      -0.000367231041
 72      -0.000195500208
 73      -0.347186395302
 74       1.046957608051
 75       0.018592303456
 76      -0.006315638100
 77       0.004426211913
 78       0.000079244276
 79       0.000356889158
 80       0.000190928382
 81       0.000035353577
 82       0.000140277338
 83       0.000076837935
 84      -0.000103254940
 85      -0.000396886773
 86      -0.000218501109
 87       0.000245182081
 88       0.000972192506
 89       0.000533812431
 90      -0.000011540887
 91       0.000010345091
 92       0.000045912800
 93      -0.000040258803
 94       0.000019457023
 95       0.000013775724
 96      -0.000014512927
 97      -0.000057087536
 98       0.000048702868
 99      -0.000026313967
100      -0.000008505831
101       0.000010743384
102       0.000036803957
103      -0.000030360873
104       0.000019474530
 Sym=     1a
 Ene= -5.62796608595598E+01
 Spin= Alpha
 Occup= 1.000000
  1      -0.000014406338
  2       0.000180496326
  3      -0.000106673781
  4      -0.000019597515
  5      -0.000043272344
  6      -0.000017456772
  7      -0.000170970728
  8       0.000174830722
  9      -0.000406034670
 10       0.000006327002
 11      -0.000003857743
 12       0.000003074192
 13       0.000002588922
 14       0.000020099961
 15      -0.000003308371
 16       0.000017702057
 17       0.000445417542
 18       0.000002521701
 19      -0.000007620915
 20      -0.000005190470
 21      -0.000039105822
 22       0.000078227278
 23      -0.000244885338
 24       0.000003703609
 25      -0.000000673043
 26       0.000000998037
 27       0.000013322181
 28       0.000003878910
 29       0.000013099891
 30      -0.000003168824
 31       0.000006877961
 32      -0.000010835308
 33       0.000004013553
 34       0.000000852130
 35       0.000035752445
 36      -0.000005309056
 37      -0.000004271576
 38       0.000005043412
 39      -0.000000610409
 40      -0.000014948590
 41       0.000001518635
 42      -0.000003381435
 43       0.000007475204
 44      -0.000015212823
 45       0.000388692322
 46      -0.001873857615
 47       0.000028450910
 48      -0.000034104305
 49      -0.000002058818
 50      -0.000252506430
 51       0.000627540068
 52       0.000296797225
 53       0.000011113052
 54      -0.000008706283
 55      -0.000049672923
 56       0.000044182462
 57      -0.000008356430
 58       0.000056710124
 59       0.000100128322
 60       0.000014220490
 61      -0.000024107524
 62       0.000002776464
 63       0.000112508432
 64       0.000175805814
 65       0.000024351659
 66      -0.000015375016
 67       0.000003601585
 68      -0.000622487765
 69       0.002881855270
 70       0.000183969369
 71       0.000868857084
 72       0.000469137283
 73      -0.000179910136
 74       0.000535602628
 75      -0.000276405758
 76       0.001016864801
 77      -0.001989859525
 78      -0.170791396901
 79      -0.863701465979
 80      -0.454232020700
 81      -0.004131971542
 82      -0.020842346621
 83      -0.010965858383
 84       0.001143166755
 85       0.005606412683
 86       0.002962988194
 87      -0.000623894492
 88      -0.002864659021
 89      -0.001530613243
 90       0.000011830805
 91      -0.000010900501
 92      -0.000046963026
 93       0.000041204256
 94      -0.000020027265
 95      -0.000007766975
 96       0.000008925129
 97       0.000031946071
 98      -0.000026904363
 99       0.000015770534
100      -0.000036767793
101       0.000033084512
102       0.000150511666
103      -0.000131591725
104       0.000061002677
 Sym=     1a
 Ene= -5.62775242536511E+01
 Spin= Alpha
 Occup= 1.000000
  1      -0.000000718730
  2       0.000011590908
  3      -0.000134800079
  4      -0.000002794297
  5      -0.000008631580
  6       0.000003757522
  7       0.000066939183
  8       0.000113060852
  9      -0.000123785767
 10      -0.000000595235
 11       0.000000447167
 12       0.000000703876
 13      -0.000004019605
 14      -0.000005245581
 15      -0.000000325000
 16       0.000005419690
 17       0.000194087325
 18      -0.000006773660
 19       0.000009778701
 20      -0.000002260364
 21       0.000026088691
 22      -0.000024711692
 23      -0.000053248586
 24       0.000000609242
 25       0.000002738719
 26       0.000002722729
 27       0.000002651975
 28      -0.000001049790
 29      -0.000011121174
 30      -0.000050248836
 31       0.000002059676
 32      -0.000006813166
 33      -0.000002542436
 34      -0.000013180997
 35      -0.000035360225
 36       0.000002021509
 37       0.000004360121
 38       0.000006188142
 39       0.000002803549
 40      -0.000030757946
 41       0.000000679781
 42       0.000003942621
 43       0.000006715304
 44       0.000003725843
 45      -0.000057779986
 46       0.000182355013
 47       0.000016119578
 48       0.000024817030
 49      -0.000010776108
 50      -0.000080729067
 51      -0.000157813111
 52       0.000062732626
 53      -0.000006472647
 54      -0.000004793156
 55       0.000002000796
 56       0.000001558276
 57       0.000003085391
 58      -0.000117973198
 59       0.000111161647
 60       0.000013198203
 61       0.000004253994
 62      -0.000014226474
 63       0.000058637659
 64      -0.000090664727
 65       0.000011855563
 66       0.000020641424
 67      -0.000005776909
 68       0.000002178051
 69      -0.000220125516
 70       0.000023379267
 71      -0.000005145684
 72      -0.000025860703
 73       0.000001985636
 74      -0.000005697711
 75       0.000006368265
 76      -0.000043165578
 77       0.000141900297
 78       0.671143723033
 79       0.230849161409
 80      -0.691304632827
 81       0.016032182239
 82       0.005517184350
 83      -0.016509881167
 84      -0.003880154837
 85      -0.001346942766
 86       0.003980336094
 87       0.001440913609
 88       0.000561650012
 89      -0.001418536540
 90      -0.000020886177
 91       0.000007198040
 92      -0.000016701583
 93      -0.000003752074
 94       0.000023684602
 95       0.000007488282
 96      -0.000004654515
 97       0.000000976344
 98       0.000005434664
 99      -0.000009970322
100      -0.000002947098
101       0.000005191716
102       0.000010503283
103      -0.000010784574
104       0.000006651683
 Sym=     1a
 Ene= -5.62775021061710E+01
 Spin= Alpha
 Occup= 1.000000
  1       0.000009411435
  2      -0.000103635538
  3       0.000385635654
  4       0.000021561896
  5       0.000031655066
  6       0.000021584956
  7      -0.000199632179
  8      -0.000157520892
  9      -0.000109236041
 10       0.000009156573
 11       0.000006531090
 12      -0.000005354781
 13       0.000011534045
 14       0.000010146840
 15       0.000000596518
 16       0.000007898916
 17      -0.000123958540
 18      -0.000001306384
 19       0.000004796285
 20       0.000003131583
 21       0.000111154958
 22       0.000040033461
 23       0.000050062960
 24      -0.000004512093
 25      -0.000003044491
 26      -0.000007571045
 27      -0.000005041108
 28       0.000002442745
 29      -0.000005029790
 30       0.000019706829
 31       0.000003289207
 32       0.000019243425
 33       0.000018833071
 34      -0.000010417532
 35      -0.000033071477
 36      -0.000000475992
 37      -0.000002164077
 38      -0.000003600163
 39       0.000013751555
 40       0.000070883144
 41       0.000001372248
 42      -0.000001698529
 43      -0.000006678559
 44      -0.000002461011
 45       0.000062125369
 46      -0.000479579615
 47      -0.000025271507
 48      -0.000027189847
 49      -0.000036945718
 50      -0.000003640977
 51       0.000223271056
 52       0.000111561866
 53      -0.000005477923
 54       0.000007713403
 55       0.000000793498
 56       0.000007439414
 57       0.000000079459
 58       0.000061710352
 59      -0.000018039700
 60      -0.000012220983
 61      -0.000011851600
 62      -0.000018355770
 63       0.000101015669
 64      -0.000078407773
 65      -0.000010812872
 66      -0.000006295913
 67      -0.000014603517
 68      -0.000005498856
 69       0.000400286831
 70      -0.000026475627
 71       0.000056450378
 72       0.000000356028
 73      -0.000004474400
 74       0.000012886130
 75      -0.000014382508
 76       0.000080951289
 77      -0.000250235810
 78      -0.708531015169
 79       0.426901372826
 80      -0.545312268877
 81      -0.016927361953
 82       0.010188240930
 83      -0.013030126135
 84       0.004104063845
 85      -0.002431913272
 86       0.003167128365
 87      -0.001538627371
 88       0.000774973619
 89      -0.001225696789
 90      -0.000015074422
 91      -0.000016944610
 92      -0.000012491796
 93      -0.000016945348
 94      -0.000020827276
 95       0.000003230257
 96       0.000008174500
 97       0.000011155146
 98       0.000000420842
 99       0.000010815873
100       0.000002788997
101      -0.000005402158
102      -0.000013830426
103       0.000009454205
104      -0.000008019528
 Sym=     1a
 Ene= -1.02162828175359E+01
 Spin= Alpha
 Occup= 1.000000
  1       0.110364918727
  2       0.002813710104
  3       0.004346931449
  4       0.001873185986
  5      -0.000680051779
  6       0.001173828376
  7       0.000576359304
  8       0.001249277354
  9      -0.004480581964
 10       0.000125704593
 11      -0.001111813160
 12       0.000345836026
 13      -0.001039922413
 14       0.000420051101
 15       0.018067868403
 16       0.000216158306
 17       0.004509151307
 18       0.000263701414
 19      -0.000079767337
 20       0.000121008065
 21      -0.004836857490
 22       0.000502256054
 23      -0.002396006693
 24       0.000075108138
 25       0.000049602629
 26      -0.000089195992
 27       0.000214295511
 28       0.000051381010
 29      -0.000768423897
 30      -0.000742937391
 31      -0.000250398087
 32       0.000019690881
 33      -0.000266112225
 34       0.000720438083
 35       0.001964718398
 36       0.000011952016
 37      -0.000009183476
 38      -0.000054751899
 39      -0.000956001968
 40      -0.001750636005
 41      -0.000013974399
 42      -0.000068485501
 43       0.000108773382
 44       0.981537005157
 45       0.051885657576
 46      -0.044576964002
 47      -0.000666918714
 48      -0.000770077432
 49      -0.000712689287
 50      -0.002041097531
 51       0.005780980404
 52       0.001999602560
 53       0.000801831429
 54      -0.000189196544
 55      -0.001433120949
 56       0.001453670002
 57       0.000136167756
 58      -0.003035636113
 59       0.007511068491
 60      -0.002409260751
 61      -0.000919862019
 62       0.001388409645
 63      -0.003058789930
 64       0.007838900126
 65       0.000266681817
 66       0.000921087203
 67      -0.002850255642
 68       0.000967461771
 69       0.015297448894
 70      -0.000041008013
 71      -0.000059443711
 72       0.000058855754
 73      -0.000010497780
 74       0.000018608101
 75      -0.000183185182
 76       0.002230107539
 77      -0.009328333618
 78       0.000005559057
 79       0.000011957011
 80       0.000002987399
 81      -0.000019929618
 82      -0.000044173349
 83      -0.000012154858
 84       0.000155128334
 85       0.000452848511
 86       0.000201601615
 87      -0.001239998353
 88      -0.004789445806
 89      -0.002549781913
 90       0.000014221945
 91      -0.000017080208
 92      -0.000055220565
 93       0.000046105444
 94      -0.000032560821
 95      -0.000068368046
 96       0.000081680183
 97       0.000269340352
 98      -0.000224921926
 99       0.000155060459
100       0.000231192332
101      -0.000262683187
102      -0.000938364347
103       0.000790225919
104      -0.000492935054
 Sym=     1a
 Ene= -1.02144192053425E+01
 Spin= Alpha
 Occup= 1.000000
  1      -0.864673413583
  2      -0.040597354636
  3       0.034194944856
  4       0.000067689364
  5      -0.000200373724
  6       0.001552536909
  7      -0.003389209807
  8      -0.002496225169
  9       0.006024139610
 10      -0.000064699962
 11       0.000030133146
 12       0.000598403084
 13      -0.001651151613
 14      -0.000306694850
 15      -0.467414217769
 16      -0.019260386019
 17      -0.002274997405
 18      -0.000099415552
 19       0.000810002841
 20      -0.002350067673
 21       0.001202733302
 22      -0.001485481643
 23       0.004772462283
 24       0.000733048676
 25      -0.000061570434
 26      -0.000274124712
 27      -0.000680572456
 28      -0.000123221618
 29       0.004176153397
 30      -0.004950599980
 31      -0.002271690339
 32      -0.000337993068
 33       0.000849944555
 34       0.001924846468
 35      -0.002765696108
 36      -0.001011247369
 37       0.000016374241
 38      -0.000337620023
 39       0.001999192808
 40      -0.002322542716
 41       0.000948140259
 42       0.000181255137
 43      -0.000283186833
 44       0.105080198890
 45       0.007122013839
 46      -0.008780932040
 47       0.001600838449
 48       0.000194375311
 49       0.001276454785
 50       0.000788677460
 51      -0.001105554985
 52      -0.005636571816
 53      -0.000053012948
 54       0.000823003148
 55      -0.000382037795
 56       0.001217127070
 57      -0.000048885041
 58      -0.000307053848
 59       0.003200368063
 60      -0.000673738287
 61       0.000033463232
 62       0.000099659497
 63      -0.001699815197
 64       0.000265459111
 65      -0.000330235536
 66       0.000311350680
 67      -0.000506337377
 68       0.000387448115
 69      -0.008707693779
 70      -0.000214928362
 71       0.000188929586
 72       0.000015749489
 73       0.000009143661
 74      -0.000016642611
 75       0.000158065869
 76      -0.001609014164
 77       0.005801764890
 78       0.000005148038
 79      -0.000025478625
 80      -0.000004438422
 81      -0.000016676372
 82       0.000089212950
 83       0.000016638619
 84       0.000014022351
 85      -0.000549891221
 86      -0.000173991337
 87       0.000578174937
 88       0.003271129849
 89       0.001601633975
 90      -0.000012394942
 91       0.000006545984
 92       0.000045179084
 93      -0.000041847572
 94       0.000019702289
 95       0.000057956885
 96      -0.000033900354
 97      -0.000214948756
 98       0.000196840399
 99      -0.000095530800
100      -0.000169245850
101       0.000128182800
102       0.000661209728
103      -0.000587328353
104       0.000302685735
 Sym=     1a
 Ene= -1.02139140730725E+01
 Spin= Alpha
 Occup= 1.000000
  1      -0.465565825385
  2      -0.026047585051
  3       0.028620342854
  4      -0.000387523652
  5       0.000719463542
  6      -0.001877559532
  7      -0.002139855673
  8       0.000178052598
  9      -0.001234237627
 10      -0.001596862767
 11      -0.000074676200
 12       0.001449076972
 13      -0.001131154434
 14      -0.000182281926
 15       0.870325966167
 16       0.044809512312
 17      -0.033361117150
 18      -0.000109771343
 19       0.000273197238
 20      -0.000678997715
 21       0.001784237067
 22      -0.000449386302
 23       0.001706994926
 24       0.001246523661
 25       0.000175045433
 26      -0.001514527811
 27       0.001869259385
 28       0.000333517591
 29       0.001937933564
 30      -0.004479301364
 31      -0.001262459650
 32      -0.000475026492
 33       0.001273582726
 34      -0.004301398629
 35       0.006247634700
 36       0.002512890441
 37      -0.000194125402
 38       0.001360256089
 39      -0.003648790499
 40       0.007284081393
 41      -0.002355379764
 42      -0.000676888785
 43       0.001428788089
 44       0.035935166104
 45       0.003088092553
 46      -0.008790598118
 47       0.001151996406
 48       0.000045531762
 49       0.000539288435
 50      -0.003916338748
 51      -0.001351059774
 52       0.000795011829
 53       0.000097592566
 54       0.000568387382
 55      -0.000290204074
 56       0.000795600601
 57      -0.000076715986
 58      -0.000932467902
 59      -0.000745183650
 60      -0.000399175180
 61       0.000019083011
 62       0.000068272448
 63       0.000239696207
 64       0.001847008067
 65       0.000017168899
 66       0.000123758000
 67      -0.000273253143
 68       0.000032351586
 69      -0.001890582759
 70      -0.000129624457
 71       0.000051589452
 72      -0.000210069816
 73       0.000002000666
 74      -0.000003665016
 75       0.000034514535
 76      -0.000335922982
 77       0.001243256373
 78       0.000003815264
 79      -0.000006541108
 80       0.000000097539
 81      -0.000012760902
 82       0.000022959186
 83       0.000000132068
 84       0.000041640164
 85      -0.000127867784
 86      -0.000024431056
 87       0.000058243710
 88       0.000706470631
 89       0.000328923766
 90      -0.000002258822
 91      -0.000000141634
 92       0.000010010834
 93      -0.000010750710
 94       0.000003448469
 95       0.000009143980
 96      -0.000000451880
 97      -0.000046456669
 98       0.000047525578
 99      -0.000016523298
100      -0.000020856268
101       0.000011772190
102       0.000135407442
103      -0.000122389029
104       0.000052364720
 Sym=     1a
 Ene= -8.66591759002847E+00
 Spin= Alpha
 Occup= 1.000000
  1      -0.000033421670
  2       0.000378728170
  3      -0.000439665989
  4      -0.000038453791
  5      -0.000075696875
  6      -0.000034643613
  7      -0.000264539700
  8       0.000348896389
  9      -0.000639078190
 10       0.000009715871
 11      -0.000008970276
 12      -0.000003722961
 13       0.000008734209
 14       0.000026986616
 15      -0.000008010129
 16       0.000032663513
 17       0.000821522409
 18       0.000000953861
 19      -0.000014924144
 20      -0.000011473621
 21      -0.000050435047
 22       0.000130698227
 23      -0.000439766766
 24       0.000005568106
 25       0.000002540799
 26       0.000004037953
 27       0.000022798829
 28       0.000004332837
 29       0.000042041578
 30       0.000029674453
 31       0.000008996891
 32      -0.000020507306
 33       0.000001142585
 34      -0.000005467742
 35       0.000047365538
 36      -0.000006805828
 37      -0.000007066557
 38       0.000011067499
 39       0.000004874931
 40      -0.000027009136
 41       0.000002862419
 42      -0.000003533253
 43       0.000010999788
 44      -0.000040266925
 45       0.000755568386
 46      -0.003601070155
 47       0.000042875476
 48      -0.000072854031
 49      -0.000015302765
 50      -0.000325400099
 51       0.001237963450
 52       0.000617773305
 53       0.000014874978
 54      -0.000013803614
 55      -0.000059240869
 56       0.000048166695
 57      -0.000010425158
 58       0.000097118000
 59       0.000259294648
 60       0.000024253224
 61      -0.000011387823
 62       0.000011118554
 63       0.000186499539
 64       0.000333615599
 65       0.000033249789
 66       0.000006532920
 67       0.000016247873
 68      -0.001023384259
 69       0.006556815800
 70       0.000138842791
 71       0.000760021193
 72       0.000406113094
 73       0.136659308788
 74      -0.516876555417
 75       1.093401878850
 76       0.032327011787
 77      -0.014328262813
 78      -0.000335503913
 79      -0.001468007991
 80      -0.000789864850
 81       0.000787883901
 82       0.003455931613
 83       0.001858411764
 84       0.000302156446
 85       0.001216663087
 86       0.000666462464
 87      -0.000643708081
 88      -0.002598353796
 89      -0.001425203120
 90      -0.000184078996
 91       0.000158377558
 92       0.000711759123
 93      -0.000628073879
 94       0.000296431896
 95      -0.000149230892
 96       0.000140970113
 97       0.000591015433
 98      -0.000513386413
 99       0.000252658015
100       0.000027516568
101      -0.000034543511
102      -0.000119434364
103       0.000098350721
104      -0.000056489870
 Sym=     1a
 Ene= -6.49863810033558E+00
 Spin= Alpha
 Occup= 1.000000
  1       0.000016943730
  2      -0.000220714646
  3       0.000312243471
  4       0.000023085377
  5       0.000042833128
  6       0.000019616927
  7       0.000088382611
  8      -0.000203146585
  9       0.000313641283
 10      -0.000004624142
 11       0.000005743585
 12       0.000002993669
 13      -0.000004131272
 14      -0.000013209394
 15       0.000004589609