[Molden Format]
[Title]
 Molden file created by orca_2mkl for BaseName=radical_040

[Atoms] AU
C    1   6          1.1711010797         0.9562373286         0.3704845880 
C    2   6          1.3274456817         0.0958412403         2.8398879930 
H    3   1          2.9420295802         1.3882343920        -0.6158598573 
H    4   1          3.1457344986        -0.1078674575         3.7948497564 
H    5   1         -0.3757588136        -0.3958617203         3.9044500927 
C    6   6         -1.0759439202         1.2889689679        -0.9630290043 
H    7   1         -2.9055144021         0.9264968187        -0.0692395655 
H    8   1         -1.0877622675         2.0724796586        -2.8729978846 
H    9   1         -1.2861117020        -2.1113928992        -2.6145721666 
Br  10  35         -1.8724672651        -4.4486874398        -3.9359782835 
[GTO]
  1 0
s   5 1.0 
     1238.4016938000         0.8208956682
      186.2900499200         1.4766449896
       42.2511763460         2.1526124058
       11.6765579320         2.1081722461
        3.5930506482         0.8290999933
s   1 1.0 
        0.4024514736         0.3601183351
s   1 1.0 
        0.1309018267         0.1551027052
p   3 1.0 
        9.4680970621         1.3467645142
        2.0103545142         1.0678070931
        0.5477100471         0.5108735714
p   1 1.0 
        0.1526861379         0.1360471976
d   1 1.0 
        0.8000000000         1.9292013661

  2 0
s   5 1.0 
     1238.4016938000         0.8208956682
      186.2900499200         1.4766449896
       42.2511763460         2.1526124058
       11.6765579320         2.1081722461
        3.5930506482         0.8290999933
s   1 1.0 
        0.4024514736         0.3601183351
s   1 1.0 
        0.1309018267         0.1551027052
p   3 1.0 
        9.4680970621         1.3467645142
        2.0103545142         1.0678070931
        0.5477100471         0.5108735714
p   1 1.0 
        0.1526861379         0.1360471976
d   1 1.0 
        0.8000000000         1.9292013661

  3 0
s   3 1.0 
       13.0107010000         0.1634903809
        1.9622572000         0.2773515510
        0.4445379600         0.3157501452
s   1 1.0 
        0.1219496200         0.1470772262
p   1 1.0 
        0.8000000000         1.0784563492

  4 0
s   3 1.0 
       13.0107010000         0.1634903809
        1.9622572000         0.2773515510
        0.4445379600         0.3157501452
s   1 1.0 
        0.1219496200         0.1470772262
p   1 1.0 
        0.8000000000         1.0784563492

  5 0
s   3 1.0 
       13.0107010000         0.1634903809
        1.9622572000         0.2773515510
        0.4445379600         0.3157501452
s   1 1.0 
        0.1219496200         0.1470772262
p   1 1.0 
        0.8000000000         1.0784563492

  6 0
s   5 1.0 
     1238.4016938000         0.8208956682
      186.2900499200         1.4766449896
       42.2511763460         2.1526124058
       11.6765579320         2.1081722461
        3.5930506482         0.8290999933
s   1 1.0 
        0.4024514736         0.3601183351
s   1 1.0 
        0.1309018267         0.1551027052
p   3 1.0 
        9.4680970621         1.3467645142
        2.0103545142         1.0678070931
        0.5477100471         0.5108735714
p   1 1.0 
        0.1526861379         0.1360471976
d   1 1.0 
        0.8000000000         1.9292013661

  7 0
s   3 1.0 
       13.0107010000         0.1634903809
        1.9622572000         0.2773515510
        0.4445379600         0.3157501452
s   1 1.0 
        0.1219496200         0.1470772262
p   1 1.0 
        0.8000000000         1.0784563492

  8 0
s   3 1.0 
       13.0107010000         0.1634903809
        1.9622572000         0.2773515510
        0.4445379600         0.3157501452
s   1 1.0 
        0.1219496200         0.1470772262
p   1 1.0 
        0.8000000000         1.0784563492

  9 0
s   3 1.0 
       13.0107010000         0.1634903809
        1.9622572000         0.2773515510
        0.4445379600         0.3157501452
s   1 1.0 
        0.1219496200         0.1470772262
p   1 1.0 
        0.8000000000         1.0784563492

 10 0
s   6 1.0 
   113286.3877600000         7.5076141183
    17009.6263030000        13.8835270484
     3870.1842567000        22.7307285566
     1093.0357227000        30.8227297499
      356.3972179700        27.2481937511
      123.1253964300         9.6953381145
s   3 1.0 
      236.7408400700        -4.7631125758
       28.4686610700         5.6113863182
       11.8834437220         1.9900291396
s   3 1.0 
       21.2696333120        -1.5429794477
        3.6129226841         1.3310800628
        1.6626648969         0.4300130345
s   1 1.0 
        0.3482379323         0.3230852630
s   1 1.0 
        0.1301903139         0.1544699827
p   5 1.0 
     1560.2801881000       115.0180051576
      368.4785920500       143.9035925417
      117.2297884900       137.5255986684
       42.6489092480        78.9578527439
       16.0872250960        15.8580577654
p   3 1.0 
        8.6352810058         6.8437546680
        3.5613665502         3.7974971038
        1.5292626609         0.5585414278
p   1 1.0 
        0.5306429485         0.6455696201
p   1 1.0 
        0.1570275896         0.1408996918
d   4 1.0 
      104.8551864200       261.4493931636
       30.2811436880       176.6993802449
       10.6513942670        76.9545600188
        3.8699456233        17.5937671387
d   1 1.0 
        1.3240876762         4.6593398042
d   1 1.0 
        0.3890000000         0.5462379705

[5D]
[7F]
[9G]
[MO]
 Sym=     1a
 Ene= -4.82769273397601E+02
 Spin= Alpha
 Occup= 1.000000
  1       0.000005643762
  2      -0.000067002475
  3       0.000072882017
  4       0.000007667349
  5       0.000016613012
  6       0.000007042007
  7       0.000055440249
  8      -0.000065754227
  9       0.000143472187
 10      -0.000001607754
 11       0.000001371675
 12      -0.000002011221
 13      -0.000000571374
 14      -0.000007182248
 15       0.000001079750
 16      -0.000003668111
 17      -0.000174564108
 18      -0.000001009938
 19       0.000002808058
 20       0.000001810626
 21       0.000017145304
 22      -0.000030974394
 23       0.000094808945
 24      -0.000001811834
 25       0.000000172926
 26      -0.000000284333
 27      -0.000004961993
 28      -0.000001495952
 29      -0.000004809826
 30      -0.000003458200
 31      -0.000002467012
 32       0.000005061677
 33      -0.000001229602
 34      -0.000000437894
 35      -0.000012595658
 36       0.000002187890
 37       0.000001648408
 38      -0.000002419494
 39       0.000001524442
 40       0.000005464017
 41      -0.000001026957
 42       0.000001534051
 43      -0.000003154963
 44       0.000008264688
 45      -0.000144349448
 46       0.000587049137
 47      -0.000008024980
 48       0.000024284010
 49       0.000006304821
 50       0.000073624701
 51      -0.000195249426
 52      -0.000092610800
 53      -0.000001075200
 54       0.000002213029
 55       0.000007611124
 56      -0.000004746115
 57       0.000003066344
 58      -0.000026223642
 59      -0.000038987569
 60      -0.000004556272
 61       0.000008708426
 62       0.000000138902
 63      -0.000041628505
 64      -0.000064003932
 65      -0.000006466754
 66       0.000006005203
 67      -0.000000536410
 68       0.000138281615
 69      -0.000861096938
 70      -0.000028839267
 71      -0.000147234329
 72      -0.000079883505
 73      -0.994982023340
 74      -0.015688772232
 75       0.003922306939
 76      -0.002311918066
 77       0.001647903806
 78      -0.000003380585
 79      -0.000012365384
 80      -0.000007082456
 81       0.000010877539
 82       0.000039354639
 83       0.000022602042
 84      -0.000041087909
 85      -0.000148544963
 86      -0.000085300484
 87       0.000091393130
 88       0.000341522225
 89       0.000194971164
 90      -0.000001247960
 91       0.000001634859
 92       0.000006017303
 93      -0.000004873780
 94       0.000002875580
 95       0.000003606117
 96      -0.000004767354
 97      -0.000017438421
 98       0.000014107424
 99      -0.000008419384
100      -0.000000944402
101       0.000001897090
102       0.000005467265
103      -0.000004100095
104       0.000003468845
 Sym=     1a
 Ene= -6.24523465292419E+01
 Spin= Alpha
 Occup= 1.000000
  1       0.000013543611
  2      -0.000162906981
  3       0.000175763190
  4       0.000018613526
  5       0.000039928538
  6       0.000017174559
  7       0.000134110358
  8      -0.000159462258
  9       0.000341791752
 10      -0.000003847584
 11       0.000003190112
 12      -0.000004428638
 13      -0.000001626702
 14      -0.000016822860
 15       0.000002593153
 16      -0.000009189271
 17      -0.000417315843
 18      -0.000002322766
 19       0.000006854400
 20       0.000004463272
 21       0.000040251673
 22      -0.000073873197
 23       0.000226614354
 24      -0.000004270156
 25       0.000000300029
 26      -0.000000779087
 27      -0.000011715830
 28      -0.000003430965
 29      -0.000012274998
 30      -0.000009152860
 31      -0.000005782237
 32       0.000012106412
 33      -0.000002732513
 34      -0.000000904552
 35      -0.000029976060
 36       0.000005114121
 37       0.000003888833
 38      -0.000005689737
 39       0.000003189055
 40       0.000013297123
 41      -0.000002406550
 42       0.000003569801
 43      -0.000007413437
 44       0.000019684314
 45      -0.000348528216
 46       0.001427061346
 47      -0.000019340209
 48       0.000057450819
 49       0.000014819798
 50       0.000176032876
 51      -0.000474055036
 52      -0.000224366267
 53      -0.000002715065
 54       0.000005417504
 55       0.000018283789
 56      -0.000011421940
 57       0.000007159414
 58      -0.000062365888
 59      -0.000097325384
 60      -0.000011180134
 61       0.000019955781
 62       0.000000080435
 63      -0.000099206790
 64      -0.000156277653
 65      -0.000015475145
 66       0.000013549062
 67      -0.000001890514
 68       0.000360105189
 69      -0.002133194977
 70      -0.000072289443
 71      -0.000365513549
 72      -0.000198733656
 73      -0.347186662790
 74       1.046958366402
 75       0.018587135191
 76      -0.006261283475
 77       0.004205394085
 78       0.000088824905
 79       0.000370348680
 80       0.000205931654
 81       0.000037107718
 82       0.000139181115
 83       0.000079375463
 84      -0.000104608549
 85      -0.000381423422
 86      -0.000218836783
 87       0.000225762262
 88       0.000845940865
 89       0.000482893562
 90      -0.000010169588
 91       0.000010992641
 92       0.000045512031
 93      -0.000038212714
 94       0.000019906497
 95       0.000010513736
 96      -0.000013268913
 97      -0.000049741394
 98       0.000040666348
 99      -0.000023104331
100      -0.000001640960
101       0.000003969774
102       0.000010452210
103      -0.000007605237
104       0.000006692016
 Sym=     1a
 Ene= -5.62841096860452E+01
 Spin= Alpha
 Occup= 1.000000
  1       0.000015420413
  2      -0.000179458876
  3       0.000078283095
  4       0.000022601360
  5       0.000045083783
  6       0.000020651736
  7       0.000189748805
  8      -0.000183528878
  9       0.000416431510
 10      -0.000005470473
 11       0.000001835018
 12      -0.000004826284
 13      -0.000003930650
 14      -0.000020415969
 15       0.000002965527
 16      -0.000012549088
 17      -0.000455373528
 18      -0.000003466250
 19       0.000008085389
 20       0.000004541340
 21       0.000047204078
 22      -0.000085260696
 23       0.000254084334
 24      -0.000004765273
 25       0.000001630136
 26      -0.000000520243
 27      -0.000013231506
 28      -0.000004220125
 29      -0.000010687318
 30      -0.000000475441
 31      -0.000007908542
 32       0.000013176285
 33      -0.000004486441
 34      -0.000003302671
 35      -0.000040143790
 36       0.000006466270
 37       0.000004229816
 38      -0.000004967503
 39       0.000003446818
 40       0.000014938894
 41      -0.000002428989
 42       0.000004435841
 43      -0.000008816263
 44       0.000020265290
 45      -0.000395845268
 46       0.001739541502
 47      -0.000027085812
 48       0.000060487088
 49       0.000011768078
 50       0.000262021764
 51      -0.000554647419
 52      -0.000236279750
 53      -0.000003216669
 54       0.000007162930
 55       0.000024241615
 56      -0.000016642633
 57       0.000007784263
 58      -0.000069989268
 59      -0.000110237100
 60      -0.000017944875
 61       0.000027946466
 62      -0.000000241859
 63      -0.000116648357
 64      -0.000190524477
 65      -0.000023316271
 66       0.000022483214
 67      -0.000005348362
 68       0.000658166986
 69      -0.002492689386
 70      -0.000196135134
 71      -0.000866765826
 72      -0.000481287711
 73       0.000187103998
 74      -0.000557766092
 75       0.000274137254
 76      -0.000963963113
 77       0.001755836444
 78       0.187784163806
 79       0.854196915593
 80       0.465360682930
 81       0.004540683968
 82       0.020613642293
 83       0.011235333601
 84      -0.001246465859
 85      -0.005536944544
 86      -0.003032630963
 87       0.000639411731
 88       0.002708854667
 89       0.001499636485
 90      -0.000010564526
 91       0.000011694305
 92       0.000047229154
 93      -0.000039663341
 94       0.000020734011
 95       0.000005006154
 96      -0.000007206560
 97      -0.000024234328
 98       0.000019388483
 99      -0.000012101317
100       0.000040546543
101      -0.000044590984
102      -0.000184640654
103       0.000154254637
104      -0.000079388653
 Sym=     1a
 Ene= -5.62819350946487E+01
 Spin= Alpha
 Occup= 1.000000
  1       0.000001007611
  2      -0.000015495887
  3       0.000142434352
  4       0.000003036227
  5       0.000008265458
  6      -0.000001978965
  7      -0.000061669134
  8      -0.000093725276
  9       0.000088237148
 10       0.000000980816
 11       0.000000270655
 12      -0.000001275093
 13       0.000003658314
 14       0.000003963314
 15       0.000000145959
 16      -0.000001643175
 17      -0.000167367399
 18       0.000005191062
 19      -0.000008130995
 20       0.000001397330
 21      -0.000014677423
 22       0.000020891726
 23       0.000048097343
 24      -0.000000904760
 25      -0.000002405739
 26      -0.000001986132
 27      -0.000002777640
 28       0.000001015593
 29       0.000007130796
 30       0.000035877638
 31      -0.000001165470
 32       0.000005845576
 33       0.000003009819
 34       0.000010353804
 35       0.000027655202
 36      -0.000001797542
 37      -0.000003493194
 38      -0.000005497007
 39      -0.000001198163
 40       0.000028828472
 41      -0.000000621841
 42      -0.000003270188
 43      -0.000005990636
 44      -0.000002972004
 45       0.000043798778
 46      -0.000153330741
 47      -0.000013403318
 48      -0.000020236730
 49       0.000007352008
 50       0.000046987887
 51       0.000111642476
 52      -0.000037935817
 53       0.000003713583
 54       0.000004013840
 55       0.000000313689
 56      -0.000002376989
 57      -0.000001612417
 58       0.000096814685
 59      -0.000108616920
 60      -0.000012943536
 61      -0.000005135888
 62       0.000010668073
 63      -0.000047035781
 64       0.000100347042
 65      -0.000008594585
 66      -0.000018219762
 67       0.000007932951
 68      -0.000001961367
 69       0.000140468475
 70      -0.000021924837
 71       0.000001630093
 72       0.000021352679
 73      -0.000001247512
 74       0.000003559897
 75      -0.000004311862
 76       0.000029551024
 77      -0.000094346463
 78      -0.678590659148
 79      -0.224589310543
 80       0.686077844026
 81      -0.016208518507
 82      -0.005366159276
 83       0.016384600493
 84       0.003918835081
 85       0.001305188260
 86      -0.003950394452
 87      -0.001446136309
 88      -0.000522404826
 89       0.001416727495
 90       0.000021918949
 91      -0.000007454447
 92       0.000017355717
 93       0.000002821453
 94      -0.000024386264
 95      -0.000006975362
 96       0.000003994966
 97      -0.000001981765
 98      -0.000003923454
 99       0.000008848356
100       0.000001145249
101      -0.000003529937
102      -0.000008288386
103       0.000007730439
104      -0.000003729897
 Sym=     1a
 Ene= -5.62819136669964E+01
 Spin= Alpha
 Occup= 1.000000
  1      -0.000007547698
  2       0.000085145573
  3      -0.000375405484
  4      -0.000018387416
  5      -0.000025321347
  6      -0.000017483818
  7       0.000218597737
  8       0.000128238477
  9       0.000119027986
 10      -0.000008171544
 11      -0.000006998569
 12       0.000004575040
 13      -0.000011028772
 14      -0.000009319281
 15      -0.000000556158
 16      -0.000005308207
 17       0.000092595474
 18       0.000000559938
 19      -0.000003687057
 20      -0.000003264854
 21      -0.000102951587
 22      -0.000037665489
 23      -0.000029769072
 24       0.000003652881
 25       0.000003215036
 26       0.000006675863
 27       0.000003711130
 28      -0.000002628087
 29       0.000000734040
 30      -0.000025796321
 31      -0.000003215350
 32      -0.000015197057
 33      -0.000018081734
 34       0.000009257930
 35       0.000028370384
 36       0.000001055804
 37       0.000002092025
 38       0.000002933974
 39      -0.000012279977
 40      -0.000066942882
 41      -0.000001463824
 42       0.000001626796
 43       0.000005571818
 44       0.000003544412
 45      -0.000067617953
 46       0.000481864604
 47       0.000020846746
 48       0.000030494684
 49       0.000033410823
 50       0.000038405097
 51      -0.000213592279
 52      -0.000066010555
 53       0.000004722949
 54      -0.000006748284
 55      -0.000003206580
 56      -0.000002999358
 57      -0.000000863857
 58      -0.000059817425
 59       0.000011710240
 60       0.000008732867
 61       0.000014383796
 62       0.000014619930
 63      -0.000092204524
 64       0.000080633729
 65       0.000007067292
 66       0.000008036952
 67       0.000015507190
 68       0.000011064590
 69      -0.000350956877
 70       0.000024725752
 71      -0.000047463243
 72       0.000002451240
 73       0.000004164182
 74      -0.000011993269
 75       0.000013234637
 76      -0.000076563432
 77       0.000230399995
 78       0.697045263447
 79      -0.448804964772
 80       0.542521578218
 81       0.016651553078
 82      -0.010711530268
 83       0.012962352942
 84      -0.004034048535
 85       0.002559078322
 86      -0.003148516757
 87       0.001508009599
 88      -0.000828081255
 89       0.001214223682
 90       0.000016182534
 91       0.000017896778
 92       0.000012004750
 93       0.000018507544
 94       0.000020478312
 95      -0.000003347031
 96      -0.000007960617
 97      -0.000011119812
 98      -0.000000322188
 99      -0.000010078586
100      -0.000003425718
101       0.000004552078
102       0.000015096363
103      -0.000011528064
104       0.000007223287
 Sym=     1a
 Ene= -1.02139468179352E+01
 Spin= Alpha
 Occup= 1.000000
  1      -0.134456774447
  2      -0.003754172872
  3      -0.003905704616
  4      -0.001899187917
  5       0.000688810329
  6      -0.001143438691
  7      -0.000767892399
  8      -0.001208905012
  9       0.003997795222
 10      -0.000135765418
 11       0.001083337029
 12      -0.000342011383
 13       0.000983406857
 14      -0.000446730132
 15      -0.026261335572
 16      -0.000525663261
 17      -0.003892091050
 18      -0.000261232762
 19       0.000107630131
 20      -0.000182072899
 21       0.004798947369
 22      -0.000501873440
 23       0.002061606123
 24      -0.000042703939
 25      -0.000049343559
 26       0.000070715867
 27      -0.000211959800
 28      -0.000043751536
 29       0.000881699083
 30       0.000596339290
 31       0.000202630302
 32      -0.000037941285
 33       0.000299721482
 34      -0.000687705719
 35      -0.001969511661
 36      -0.000033152853
 37      -0.000002273574
 38       0.000061479175
 39       0.000982043766
 40       0.001709495928
 41       0.000030700696
 42       0.000069828806
 43      -0.000107865826
 44      -0.978394489344
 45      -0.051169923819
 46       0.041919786716
 47       0.000729256901
 48       0.000758652945
 49       0.000739714764
 50       0.001882028085
 51      -0.004903266225
 52      -0.001622227401
 53      -0.000806901690
 54       0.000221824168
 55       0.001362698689
 56      -0.001426418718
 57      -0.000138465896
 58       0.003178648548
 59      -0.007476434067
 60       0.002390972250
 61       0.000923958859
 62      -0.001364119182
 63       0.003182545041
 64      -0.007787772048
 65      -0.000279504227
 66      -0.000839207682
 67       0.002838670576
 68      -0.000710073958
 69      -0.012902988262
 70       0.000058970649
 71      -0.000228530392
 72      -0.000146371122
 73       0.000013011643
 74      -0.000023969196
 75       0.000223961372
 76      -0.002243509233
 77       0.008383664612
 78      -0.000009334263
 79      -0.000022028746
 80      -0.000010984339
 81       0.000032805306
 82       0.000078850287
 83       0.000039632816
 84      -0.000197625421
 85      -0.000563859901
 86      -0.000300494836
 87       0.001188857468
 88       0.004340109127
 89       0.002428829503
 90      -0.000012436347
 91       0.000017699068
 92       0.000059289840
 93      -0.000047324850
 94       0.000032092071
 95       0.000058316877
 96      -0.000082141158
 97      -0.000278909865
 98       0.000223118397
 99      -0.000148744351
100      -0.000182600167
101       0.000243425699
102       0.000871277708
103      -0.000704645181
104       0.000438577510
 Sym=     1a
 Ene= -1.02124975520035E+01
 Spin= Alpha
 Occup= 1.000000
  1       0.684955454138
  2       0.030938980199
  3      -0.023982999585
  4      -0.000203484542
  5       0.000475432539
  6      -0.002047201542
  7       0.002494062325
  8       0.002394847212
  9      -0.005853004886
 10      -0.000449492062
 11      -0.000026014624
 12      -0.000153183780
 13       0.001279390000
 14       0.000209974784
 15       0.703909288242
 16       0.031691400939
 17      -0.008123070434
 18       0.000062222428
 19      -0.000740554310
 20       0.002024222840
 21      -0.000462516699
 22       0.001319316001
 23      -0.003840342091
 24      -0.000368514904
 25       0.000079431649
 26      -0.000189080399
 27       0.001201280705
 28       0.000160197210
 29      -0.003413736531
 30       0.003460065964
 31       0.001801792558
 32       0.000182715820
 33      -0.000424301625
 34      -0.003133168203
 35       0.004422790943
 36       0.001721678697
 37      -0.000128870512
 38       0.000704973452
 39      -0.002973298237
 40       0.004444959605
 41      -0.001602161313
 42      -0.000364129429
 43       0.000705561528
 44      -0.112372862752
 45      -0.007289945707
 46       0.007566702370
 47      -0.001192062196
 48      -0.000091418892
 49      -0.001027694407
 50      -0.001863373450
 51       0.000116189634
 52       0.005338932930
 53       0.000046147305
 54      -0.000594964965
 55       0.000330233718
 56      -0.000971573475
 57       0.000049832928
 58       0.000071967719
 59      -0.003449456800
 60       0.000587101415
 61      -0.000012037055
 62      -0.000117332299
 63       0.001744890297
 64       0.000118746458
 65       0.000303167116
 66      -0.000274533434
 67       0.000486849046
 68      -0.000424266609
 69       0.006342612429
 70       0.000109567736
 71      -0.000273349958
 72      -0.000136286792
 73      -0.000007564299
 74       0.000013833979
 75      -0.000130515395
 76       0.001309299500
 77      -0.004465604473
 78      -0.000002654250
 79       0.000020185915
 80       0.000004982669
 81       0.000008382887
 82      -0.000070459821
 83      -0.000018072222
 84       0.000013207978
 85       0.000442915967
 86       0.000164308480
 87      -0.000507105085
 88      -0.002530524103
 89      -0.001302771395
 90       0.000009001278
 91      -0.000007116515
 92      -0.000036720114
 93       0.000031830418
 94      -0.000016824609
 95      -0.000042974371
 96       0.000036226242
 97       0.000177284237
 98      -0.000152499533
 99       0.000082455603
100       0.000129799112
101      -0.000128389771
102      -0.000557143769
103       0.000469997611
104      -0.000264232823
 Sym=     1a
 Ene= -1.02121008889984E+01
 Spin= Alpha
 Occup= 1.000000
  1       0.699549972853
  2       0.036791209220
  3      -0.037443342604
  4       0.000350181210
  5      -0.000600686406
  6       0.001283693389
  7       0.003049768329
  8       0.000484313107
  9      -0.000460306119
 10       0.001491898916
 11       0.000089184485
 12      -0.001627873287
 13       0.001567832966
 14       0.000216465843
 15      -0.692890834619
 16      -0.037021188857
 17       0.032273356009
 18       0.000131577745
 19      -0.000485929773
 20       0.001308336081
 21      -0.001973459786
 22       0.000889895416
 23      -0.002908020147
 24      -0.001367062077
 25      -0.000117643357
 26       0.001593113686
 27      -0.001558397145
 28      -0.000208731958
 29      -0.003096535278
 30       0.005778098153
 31       0.001876792126
 32       0.000567133539
 33      -0.001452886245
 34       0.003503043098
 35      -0.005180606966
 36      -0.002100866304
 37       0.000251239390
 38      -0.001159392488
 39       0.002905791803
 40      -0.006240578181
 41       0.001963194158
 42       0.000582960602
 43      -0.001284962255
 44      -0.076932660043
 45      -0.005813835294
 46       0.012141963026
 47      -0.001581271845
 48      -0.000037198725
 49      -0.000871947005
 50       0.003599659549
 51       0.001242003719
 52       0.000787204557
 53      -0.000077169109
 54      -0.000760285455
 55       0.000439496438
 56      -0.001144522694
 57       0.000114581006
 58       0.001014007908
 59      -0.000345844954
 60       0.000616327729
 61      -0.000011961710
 62      -0.000116236570
 63       0.000302494843
 64      -0.001954317103
 65       0.000073930164
 66      -0.000221658354
 67       0.000453291844
 68      -0.000186375360
 69       0.003625877384
 70       0.000151480722
 71      -0.000156743163
 72       0.000114899185
 73      -0.000004498895
 74       0.000008267668
 75      -0.000077499909
 76       0.000749121373
 77      -0.002549624687
 78      -0.000004093077
 79       0.000012879387
 80       0.000002458712
 81       0.000013494805
 82      -0.000045026928
 83      -0.000009164716
 84      -0.000028523736
 85       0.000267189031
 86       0.000090740363
 87      -0.000227761409
 88      -0.001447929170
 89      -0.000741507112
 90       0.000004523642
 91      -0.000003077931
 92      -0.000022065611
 93       0.000019827783
 94      -0.000009021169
 95      -0.000020367673
 96       0.000016301987
 97       0.000104733356
 98      -0.000091775846
 99       0.000043889753
100       0.000056703884
101      -0.000062497637
102      -0.000315966933
103       0.000262091662
104      -0.000139026930
 Sym=     1a
 Ene= -8.67026768921289E+00
 Spin= Alpha
 Occup= 1.000000
  1       0.000036595892
  2      -0.000388696397
  3       0.000500492374
  4       0.000042302947
  5       0.000085340112
  6       0.000039855782
  7       0.000250999105
  8      -0.000374228880
  9       0.000649035960
 10      -0.000007342342
 11       0.000007978721
 12      -0.000002682722
 13      -0.000005635586
 14      -0.000028269560
 15       0.000008078122
 16      -0.000027666458
 17      -0.000863833372
 18      -0.000002380556
 19       0.000016963861
 20       0.000012485707
 21       0.000076580268
 22      -0.000145457127
 23       0.000465186817
 24      -0.000007958568
 25      -0.000001867470
 26      -0.000003999499
 27      -0.000022835031
 28      -0.000004518709
 29      -0.000040166471
 30      -0.000034282531
 31      -0.000009274281
 32       0.000026118154
 33       0.000000135281
 34       0.000001052398
 35      -0.000058227832
 36       0.000008317544
 37       0.000007623811
 38      -0.000011449506
 39       0.000000147695
 40       0.000032887882
 41      -0.000003994325
 42       0.000005579868
 43      -0.000013014457
 44       0.000046799717
 45      -0.000752964935
 46       0.003175289924
 47      -0.000041736907
 48       0.000101899493
 49       0.000023618947
 50       0.000327835901
 51      -0.001079262129
 52      -0.000524617978
 53      -0.000009468508
 54       0.000013109917
 55       0.000041749209
 56      -0.000028223806
 57       0.000012037470
 58      -0.000114175182
 59      -0.000241513962
 60      -0.000022773440
 61       0.000022826969
 62      -0.000007208641
 63      -0.000188930617
 64      -0.000347026068
 65      -0.000030860289
 66       0.000007557295
 67      -0.000011305037
 68       0.001067173128
 69      -0.005788448320
 70      -0.000148556726
 71      -0.000747752462
 72      -0.000408211077
 73      -0.136660158712
 74       0.516878376445
 75      -1.093417820393
 76      -0.032205592057
 77       0.013879232354
 78       0.000372364901
 79       0.001517585985
 80       0.000848609123
 81      -0.000876038106
 82      -0.003577408486
 83      -0.001999313471
 84      -0.000311788963
 85      -0.001183837695
 86      -0.000674628941
 87       0.000613650822
 88       0.002338643709
 89       0.001332400980
 90       0.000169663874
 91      -0.000179139438
 92      -0.000743294655
 93       0.000625552931
 94      -0.000322298339
 95       0.000131668197
 96      -0.000151631676
 97      -0.000595148647
 98       0.000493635041
 99      -0.000261738459
100      -0.000014003879
101       0.000024286155
102       0.000075969724
103      -0.000058624448
104       0.000035960584
 Sym=     1a
 Ene= -6.50309893791851E+00
 Spin= Alpha
 Occup= 1.000000
  1       0.000019151045
  2      -0.000231546173
  3       0.000335213584
  4       0.000026195136
  5       0.000049561829
  6       0.000023769533
  7       0.000099127446
  8      -0.000218280700
  9       0.000338938457
 10      -0.000003642539
 11       0.000004832357
 12      -0.000000846301
 13      -0.000002958508
 14      -0.000014971067
 15       0.000004506625