
                                 *****************
                                 * O   R   C   A *
                                 *****************

                                            #,                                       
                                            ###                                      
                                            ####                                     
                                            #####                                    
                                            ######                                   
                                           ########,                                 
                                     ,,################,,,,,                         
                               ,,#################################,,                 
                          ,,##########################################,,             
                       ,#########################################, ''#####,          
                    ,#############################################,,   '####,        
                  ,##################################################,,,,####,       
                ,###########''''           ''''###############################       
              ,#####''   ,,,,##########,,,,          '''####'''          '####       
            ,##' ,,,,###########################,,,                        '##       
           ' ,,###''''                  '''############,,,                           
         ,,##''                                '''############,,,,        ,,,,,,###''
      ,#''                                            '''#######################'''  
     '                                                          ''''####''''         
             ,#######,   #######,   ,#######,      ##                                
            ,#'     '#,  ##    ##  ,#'     '#,    #''#        ,####,    ,#,          
            ##       ##  ##   ,#'  ##            #'  '#       #'       ,# #          
            ##       ##  #######   ##           ,######,      #####,      #          
            '#,     ,#'  ##    ##  '#,     ,#' ,#      #,     #,   #      #          
             '#######'   ##     ##  '#######'  #'      '#     '####' #    #          



                #########################################################
                #                        -***-                          #
                #          Department of theory and spectroscopy        #
                #                                                       #
                #                      Frank Neese                      #
                #                                                       #
                #     Directorship, Architecture, Infrastructure        #
                #                    SHARK, DRIVERS                     #
                #        Core code/Algorithms in most modules           #
                #                                                       #
                #        Max Planck Institute fuer Kohlenforschung      #
                #                Kaiser Wilhelm Platz 1                 #
                #                 D-45470 Muelheim/Ruhr                 #
                #                      Germany                          #
                #                                                       #
                #                  All rights reserved                  #
                #                        -***-                          #
                #########################################################


                         Program Version 6.1.0  -  RELEASE   -
                                (GIT: $679e74b$)
                          ($2025-06-10 18:02:51 +0200$)


 With contributions from (in alphabetic order):
[Max-Planck-Institut fuer Kohlenforschung]                               
  Daniel Aravena         : Magnetic Suceptibility                        
  Michael Atanasov       : Ab Initio Ligand Field Theory (pilot matlab implementation)
  Alexander A. Auer      : GIAO ZORA, VPT2 properties, NMR spectrum      
  Ute Becker             : All parallelization in ORCA, NUMFREQ, NUMCALC 
  Giovanni Bistoni       : ED, misc. LED, open-shell LED, HFLD           
  Dmytro Bykov           : pre 5.0 version of the SCF Hessian            
  Marcos Casanova-Páez   : Triplet and SCS-CIS(D). UHF-(DLPNO)-IP/EA/STEOM-CCSD. UHF-CVS-IP/STEOM-CCSD   
  Vijay G. Chilkuri      : MRCI spin determinant printing, contributions to CSF-ICE 
  Pauline Colinet        : FMM embedding                                 
  Dipayan Datta          : RHF DLPNO-CCSD density                        
  Achintya Kumar Dutta   : EOM-CC, STEOM-CC                              
  Nicolas Foglia         : Exact transition moments, OPA infrastructure, MCD improvements    
  Dmitry Ganyushin       : Spin-Orbit,Spin-Spin,Magnetic field MRCI      
  Miquel Garcia-Rates    : C-PCM and meta-GGA Hessian, CCSD/C-PCM, Gaussian charge scheme 
  Tiago L. C. Gouveia    : GS-ROHF, GS-ROCIS                             
  Yang Guo               : DLPNO-NEVPT2, F12-NEVPT2, CIM, IAO-localization        
  Andreas Hansen         : Spin unrestricted coupled pair/coupled cluster methods 
  Ingolf Harden          : AUTO-CI MPn and infrastructure                
  Benjamin Helmich-Paris : MC-RPA, TRAH-(SCF,CASSCF), AVAS, COSX integrals, SCF dyn. polar., MC-PDFT, srDFT 
  Lee Huntington         : MR-EOM, pCC                                   
  Robert Izsak           : Overlap fitted RIJCOSX, COSX-SCS-MP3, EOM     
  Riya Kayal             : Wick's Theorem for AUTO-CI, AUTO-CI UHF-CCSDT 
  Emily Kempfer          : AUTO-CI RHF CISDT and CCSDT, approximate NEVPT4
  Christian Kollmar      : KDIIS, OOCD, Brueckner-CCSD(T), CCSD density, CASPT2, CASPT2-K, improved NEVPT2 
  Axel Koslowski         : Symmetry handling                             
  Simone Kossmann        : meta-GGA functionals, TD-DFT gradient, OOMP2, (MP2 Hessian; deprecated post 5.0) 
  Lucas Lang             : DCDCAS, Hyperfine gauge corrections, ICE-SOC+SSC
  Marvin Lechner         : AUTO-CI (C++ implementation), FIC-MRCC        
  Spencer Leger          : CASSCF response                               
  Dagmar Lenk            : GEPOL surface, SMD, ORCA-2-JSON               
  Dimitrios Liakos       : Extrapolation schemes; Compound Job, Property file
  Dimitrios Manganas     : Further ROCIS development; embedding schemes. LFT, Crystal Embedding 
  Dimitrios Pantazis     : SARC Basis sets                               
  Anastasios Papadopoulos: AUTO-CI, single reference methods and gradients 
  Taras Petrenko         : pre 6.0 DFT Hessian and TD-DFT gradient,  ECA, NRVS 
  Petra Pikulova         : Analytic Raman intensities                    
  Peter Pinski           : DLPNO-MP2, DLPNO-MP2 Gradient                 
  Shashank Vittal Rao    : ES-AILFT, MagRelax                            
  Christoph Reimann      : Effective Core Potentials                     
  Marius Retegan         : Local ZFS, SOC                                
  Christoph Riplinger    : Optimizer, TS searches, QM/MM, DLPNO-CCSD(T), (RO)-DLPNO pert. Triples 
  Michael Roemelt        : Original ROCIS implementation, recursive CI coupling coefficients
  Masaaki Saitow         : Open-shell DLPNO-CCSD energy and density      
  Barbara Sandhoefer     : DKH picture change effects                    
  Yorick L. A. Schmerwitz: GMF and freeze-and-release deltaSCF, NEB S-IDPP initial path                    
  Kantharuban Sivalingam : CASSCF convergence/infrastructure, NEVPT2, NEVPT3, NEVPT4(SD), FIC-MRCI and CEPA variants
  Bernardo de Souza      : ESD, SOC TD-DFT                               
  Georgi L. Stoychev     : AutoAux, RI-MP2 NMR, DLPNO-MP2 response, X2C  
  Van Anh Tran           : RI-MP2 g-tensors                              
  Willem Van den Heuvel  : Paramagnetic NMR                              
  Zikuan Wang            : NOTCH, Electric field optimization            
  Frank Wennmohs         : Technical directorship and infrastructure     
  Hang Xu                : AUTO-CI-Response properties                   
                                                                         
[FACCTs GmbH]                                                            
  Markus Bursch, Nicolas Foglia, Miquel Garcia-Rates, Ingolf Harden, Hagen Neugebauer, Anastasios Papadopoulos, 
  Christoph Riplinger, Bernardo de Souza, Georgi L. Stoychev                                                    
                                                                 
  APM, various basis sets, CI-OPT, improved COSX, DLPNO-Multilevel,           
  DOCKER, DRACO, updates on ESD, Fragmentator, GOAT, IRC, LR-CPCM, L-BFGS, MBIS, meta-GGA TD-DFT gradient, ML-optimized integration grids, 
  MM, NACMEs, nearIR, NEB, NEB-TS, NL-DFT gradient (VV10), 2- and 3-layer-ONIOM, interface openCOSMO-RS, QMMM,   
  Crystal-QMMM, RESP, rigid body optimization, SF, symmetry and pop. for TD-DFT, various functionals, SOLVATOR                                   
                                                                         
[Other institutions]                                                     
  V. Asgeirsson          : NEB                                           
  Christoph Bannwarth    : sTDA-DFT, sTD-DFT, PBEh-3c, B97-3c, D3        
  Giovanni Bistoni       : ETS/NOCV, ADLD/ADEX, COVALED                  
  Martin Brehm           : Molecular dynamics                            
  Ronald Cardenas        : ETS/NOCV                                      
  Martina Colucci        : COVALED                                       
  Sebastian Ehlert       : rSCAN, r2SCAN, r2SCAN-3c, D4, dhf basis sets  
  Marvin Friede          : D4 for Fr, Ra, Ac-Lr                          
  Lars Goerigk           : TD-DFT with DH, B97 family of functionals     
  Stefan Grimme          : VdW corrections, initial TS optimization, DFT functionals, gCP, sTDA/sTD-DF 
  Waldemar Hujo          : DFT-NL                                        
  H. Jonsson             : NEB                                           
  Holger Kruse           : gCP                                           
  Marcel Mueller         : wB97X-3c, vDZP basis set                      
  Hagen Neugebauer       : wr2SCAN, Native XTB                           
  Gianluca Regni         : ADLD/ADEX                                     
  Tobias Risthaus        : pre 6.0 range-separated hybrid DFT and stability analysis
  Lukas Wittmann         : regularized MP2, r2SCAN double-hybrids, wr2SCAN        
                                                                         
We gratefully acknowledge several colleagues who have allowed us to      
interface, adapt or use parts of their codes:                            
  Ed Valeev, F. Pavosevic, A. Kumar             : LibInt (2-el integral package), F12 methods 
  Garnet Chan, S. Sharma, J. Yang, R. Olivares  : DMRG                   
  Ulf Ekstrom                                   : XCFun DFT Library      
  Mihaly Kallay                                 : mrcc  (arbitrary order and MRCC methods)
  Frank Weinhold                                : gennbo (NPA and NBO analysis)           
  Simon Mueller                                 : openCOSMO-RS                            
  Christopher J. Cramer and Donald G. Truhlar   : smd solvation model                     
  S Lehtola, MJT Oliveira, MAL Marques          : LibXC Library                           
  Liviu Ungur et al                             : ANISO software                          


 Your calculation uses the libint2 library for the computation of 2-el integrals
 For citations please refer to: http://libint.valeyev.net

 Your ORCA version has been built with support for libXC version: 7.0.0
 For citations please refer to: https://libxc.gitlab.io

 This ORCA versions uses:
   CBLAS   interface :  Fast vector & matrix operations
   LAPACKE interface :  Fast linear algebra routines
   SCALAPACK package :  Parallel linear algebra routines
   Shared memory     :  Shared parallel matrices
   BLAS/LAPACK       :  OpenBLAS 0.3.29  USE64BITINT DYNAMIC_ARCH NO_AFFINITY Zen SINGLE_THREADED
        Core in use  :  Zen
   Copyright (c) 2011-2014, The OpenBLAS Project


  ***********************************
  * Starting time: Sun Apr  5 14:30:15 2026
  * Host name:     QC1
  * Process ID:    25911
  * Working dir.:  /home/user/QC/radical/allyl/split-ts1_2
  ***********************************

NOTE: MaxCore=1200 MB was set to SCF,MP2,MDCI,CIPSI,MRCI,RASCI and CIS
      => If you want to overwrite this, your respective input block should be placed after the MaxCore statement
Warning: RI is on but no J-basis has been assigned. Assigning Def2/J (nothing to worry about!)
================================================================================

----- Orbital basis set information -----
Your calculation utilizes the basis: def-SVP
   H-Kr: A. Schäfer, H. Horn, R. Ahlrichs; J. Chem. Phys. 97, 2571 (1992)
   Rb-At: K. Eichkorn, F. Weigend, O. Treutler, R. Ahlrichs; Theor. Chem. Acc. 97, 119 (1997)
   Rn: F. Weigend, R. Ahlrichs; Phys. Chem. Chem. Phys. 7, 3297 (2005)
   Fr-Ra: I. S. Lim, P. Schwerdtfeger, B. Metz, H. Stoll, J. Chem. Phys. 122, 104103 (2005)
   Ac-Lr: X. Cao, M. Dolg, J. Molec. Struct. Theochem. 673 (2004)
----- AuxJ basis set information -----
Your calculation utilizes the auxiliary basis: def2/J
   H-Rn: F. Weigend, Phys. Chem. Chem. Phys. 8, 1057 (2006).
   Fr-Lr: K. Eichkorn, F. Weigend, O. Treutler, R. Ahlrichs; Theor. Chem. Acc. 97, 119 (1997).

================================================================================
                                        WARNINGS
                       Please study these warnings very carefully!
================================================================================


WARNING: your system is open-shell and RHF/RKS was chosen
  ===> : WILL SWITCH to UHF/UKS


================================================================================
                                       INPUT FILE
================================================================================
NAME = radical_011.inp
|  1> ! B3LYP def-SVP 
|  2> %maxcore 1200
|  3> %pal nprocs 8 end
|  4> * xyz 0 2
|  5> C    0.63761100   0.43454200   0.18681100
|  6> C    0.69530600   0.05518400   1.47878800
|  7> H    1.56871000   0.68087300  -0.33803000
|  8> H    1.64569600   0.00628900   2.01724100
|  9> H   -0.20735000  -0.22759000   2.03206500
| 10> C   -0.59116300   0.44841100  -0.61510000
| 11> H   -1.52908100   0.47445500  -0.04222900
| 12> H   -0.59575300   1.13374200  -1.47447600
| 13> H   -0.65229000  -0.61236000  -1.16382600
| 14> Br  -0.96255900  -2.21598100  -1.99551500
| 15> *
| 16> 
| 17>                          ****END OF INPUT****
================================================================================

                       ****************************
                       * Single Point Calculation *
                       ****************************

---------------------------------
CARTESIAN COORDINATES (ANGSTROEM)
---------------------------------
  C      0.637611    0.434542    0.186811
  C      0.695306    0.055184    1.478788
  H      1.568710    0.680873   -0.338030
  H      1.645696    0.006289    2.017241
  H     -0.207350   -0.227590    2.032065
  C     -0.591163    0.448411   -0.615100
  H     -1.529081    0.474455   -0.042229
  H     -0.595753    1.133742   -1.474476
  H     -0.652290   -0.612360   -1.163826
  Br    -0.962559   -2.215981   -1.995515

----------------------------
CARTESIAN COORDINATES (A.U.)
----------------------------
  NO LB      ZA    FRAG     MASS         X           Y           Z
   0 C     6.0000    0    12.011    1.204910    0.821165    0.353022
   1 C     6.0000    0    12.011    1.313938    0.104283    2.794504
   2 H     1.0000    0     1.008    2.964432    1.286664   -0.638784
   3 H     1.0000    0     1.008    3.109915    0.011884    3.812033
   4 H     1.0000    0     1.008   -0.391835   -0.430083    3.840046
   5 C     6.0000    0    12.011   -1.117136    0.847374   -1.162371
   6 H     1.0000    0     1.008   -2.889544    0.896590   -0.079801
   7 H     1.0000    0     1.008   -1.125810    2.142462   -2.786356
   8 H     1.0000    0     1.008   -1.232649   -1.157193   -2.199312
   9 Br   35.0000    0    79.900   -1.818973   -4.187597   -3.770977

--------------------------------
INTERNAL COORDINATES (ANGSTROEM)
--------------------------------
 C      0   0   0     0.000000000000     0.00000000     0.00000000
 C      1   0   0     1.347755828671     0.00000000     0.00000000
 H      1   2   0     1.096851122369   119.04974958     0.00000000
 H      2   1   3     1.093418266874   121.45735954     1.15540632
 H      2   1   3     1.095839599641   121.42378534   181.79643117
 C      1   2   3     1.467357878691   124.22127766   175.20264596
 H      6   1   2     1.099340551104   115.46027089    20.75709017
 H      6   1   2     1.099193684951   115.89075184   156.00065003
 H      6   1   2     1.195856114943   106.56993408   267.68666544
 Br     9   6   1     1.832914006909   173.18397619   149.77550726

---------------------------
INTERNAL COORDINATES (A.U.)
---------------------------
 C      0   0   0     0.000000000000     0.00000000     0.00000000
 C      1   0   0     2.546889411585     0.00000000     0.00000000
 H      1   2   0     2.072748230962   119.04974958     0.00000000
 H      2   1   3     2.066261074219   121.45735954     1.15540632
 H      2   1   3     2.070836730027   121.42378534   181.79643117
 C      1   2   3     2.772904531179   124.22127766   175.20264596
 H      6   1   2     2.077452569500   115.46027089    20.75709017
 H      6   1   2     2.077175032694   115.89075184   156.00065003
 H      6   1   2     2.259840552817   106.56993408   267.68666544
 Br     9   6   1     3.463705500086   173.18397619   149.77550726

---------------------
BASIS SET INFORMATION
---------------------
There are 3 groups of distinct atoms

 Group   1 Type C   : 7s4p1d contracted to 3s2p1d pattern {511/31/1}
 Group   2 Type H   : 4s1p contracted to 2s1p pattern {31/1}
 Group   3 Type Br  : 14s10p6d contracted to 5s4p3d pattern {63311/5311/411}

Atom   0C    basis set group =>   1
Atom   1C    basis set group =>   1
Atom   2H    basis set group =>   2
Atom   3H    basis set group =>   2
Atom   4H    basis set group =>   2
Atom   5C    basis set group =>   1
Atom   6H    basis set group =>   2
Atom   7H    basis set group =>   2
Atom   8H    basis set group =>   2
Atom   9Br   basis set group =>   3
---------------------------------
AUXILIARY/J BASIS SET INFORMATION
---------------------------------
There are 3 groups of distinct atoms

 Group   1 Type C   : 12s5p4d2f1g contracted to 6s4p3d1f1g pattern {711111/2111/211/2/1}
 Group   2 Type H   : 5s2p1d contracted to 3s1p1d pattern {311/2/1}
 Group   3 Type Br  : 19s5p5d3f1g contracted to 8s4p3d2f1g pattern {121111111/2111/311/21/1}

Atom   0C    basis set group =>   1
Atom   1C    basis set group =>   1
Atom   2H    basis set group =>   2
Atom   3H    basis set group =>   2
Atom   4H    basis set group =>   2
Atom   5C    basis set group =>   1
Atom   6H    basis set group =>   2
Atom   7H    basis set group =>   2
Atom   8H    basis set group =>   2
Atom   9Br   basis set group =>   3


           ************************************************************
           *        Program running with 8 parallel MPI-processes     *
           *              working on a common directory               *
           ************************************************************
------------------------------------------------------------------------------
                             ORCA STARTUP CALCULATIONS
                           -- RI-GTO INTEGRALS CHOSEN --
------------------------------------------------------------------------------
------------------------------------------------------------------------------
                   ___                                                        
                  /   \      - P O W E R E D   B Y -                         
                 /     \                                                     
                 |  |  |   _    _      __       _____    __    __             
                 |  |  |  | |  | |    /  \     |  _  \  |  |  /  |          
                  \  \/   | |  | |   /    \    | | | |  |  | /  /          
                 / \  \   | |__| |  /  /\  \   | |_| |  |  |/  /          
                |  |  |   |  __  | /  /__\  \  |    /   |      \           
                |  |  |   | |  | | |   __   |  |    \   |  |\   \          
                \     /   | |  | | |  |  |  |  | |\  \  |  | \   \       
                 \___/    |_|  |_| |__|  |__|  |_| \__\ |__|  \__/        
                                                                              
                      - O R C A' S   B I G   F R I E N D -                    
                                      &                                       
                       - I N T E G R A L  F E E D E R -                       
                                                                              
 v1 FN, 2020, v2 2021, v3 2022-2024                                           
------------------------------------------------------------------------------


----------------------
SHARK INTEGRAL PACKAGE
----------------------

Number of atoms                             ...     10
Number of basis functions                   ...    104
Number of shells                            ...     48
Maximum angular momentum                    ...      2
Integral batch strategy                     ... SHARK/LIBINT Hybrid
RI-J (if used) integral strategy            ... SPLIT-RIJ (Revised 2003 algorithm where possible)
Printlevel                                  ...      1
Contraction scheme used                     ... SEGMENTED contraction
Prescreening option                         ... SCHWARTZ
   Thresh                                   ... 1.000e-10
   Tcut                                     ... 1.000e-11
   Tpresel                                  ... 1.000e-11 
Coulomb Range Separation                    ... NOT USED
Exchange Range Separation                   ... NOT USED
Multipole approximations                    ... NOT USED
Finite Nucleus Model                        ... NOT USED
CABS basis                                  ... NOT available
Auxiliary Coulomb fitting basis             ... AVAILABLE
   # of basis functions in Aux-J            ...    271
   # of shells in Aux-J                     ...     93
   Maximum angular momentum in Aux-J        ...      4
Auxiliary J/K fitting basis                 ... NOT available
Auxiliary Correlation fitting basis         ... NOT available
Auxiliary 'external' fitting basis          ... NOT available

Checking pre-screening integrals            ... done (  0.0 sec) Dimension = 48
   => SHARK Basis and OBASIS are compatible. Storing Pre-screening
Shell pair information
Shell pair cut-off parameter TPreSel        ...   1.0e-11
Total number of shell pairs                 ...      1176
Shell pairs after pre-screening             ...      1083
Total number of primitive shell pairs       ...      4753
Primitive shell pairs kept                  ...      3310
          la=0 lb=0:    331 shell pairs
          la=1 lb=0:    383 shell pairs
          la=1 lb=1:    124 shell pairs
          la=2 lb=0:    141 shell pairs
          la=2 lb=1:     86 shell pairs
          la=2 lb=2:     18 shell pairs

Checking whether 4 symmetric matrices of dimension 104 fit in memory
:Max Core in MB      =   1200.00
 MB in use           =      4.72
 MB left             =   1195.28
 MB needed           =      0.17
 Data fit in memory  = YES
Calculating RI/J V-Matrix + Cholesky decomp.... done (  0.0 sec)
Calculating Nuclear repulsion               ... done (  0.0 sec) ENN=    194.443184272380 Eh

Diagonalization of the overlap matrix:
Smallest eigenvalue                        ... 2.755e-03
Time for diagonalization                   ...    0.001 sec
Threshold for overlap eigenvalues          ... 1.000e-07
Number of eigenvalues below threshold      ... 0
Time for construction of square roots      ...    0.000 sec
Total time needed                          ...    0.002 sec

-------------------
DFT GRID GENERATION
-------------------

General Integration Accuracy     IntAcc      ... 4.388
Radial Grid Type                 RadialGrid  ... OptM3 with GC (2021)
Angular Grid (max. ang.)         AngularGrid ... 4 (Lebedev-302)
Angular grid pruning method      GridPruning ... 4 (adaptive)
Weight generation scheme         WeightScheme... mBecke (2022)
Basis function cutoff            BFCut       ... 1.0000e-10
Integration weight cutoff        WCut        ... 1.0000e-14
Partially contracted basis set               ... off
Rotationally invariant grid construction     ... off
Angular grids for H and He will be reduced by one unit
Core-polarized basis detected: some atoms will have their core
                               angular grid increased.

Total number of grid points                  ...    48988
Total number of batches                      ...      773
Average number of points per batch           ...       63
Average number of grid points per atom       ...     4899

--------------------
COSX GRID GENERATION
--------------------

GRIDX 1
-------
General Integration Accuracy     IntAcc      ... 3.816
Radial Grid Type                 RadialGrid  ... OptM3 with GC (2021)
Angular Grid (max. ang.)         AngularGrid ... 1 (Lebedev-50)
Angular grid pruning method      GridPruning ... 4 (adaptive)
Weight generation scheme         WeightScheme... mBecke (2022)
Basis function cutoff            BFCut       ... 1.0000e-10
Integration weight cutoff        WCut        ... 1.0000e-14
Partially contracted basis set               ... on
Rotationally invariant grid construction     ... off
Angular grids for H and He will be reduced by one unit
Core-polarized basis detected: some atoms will have their core
                               angular grid increased.

Total number of grid points                  ...    11054
Total number of batches                      ...       90
Average number of points per batch           ...      122
Average number of grid points per atom       ...     1105
UseSFitting                                  ... on

GRIDX 2
-------
General Integration Accuracy     IntAcc      ... 4.020
Radial Grid Type                 RadialGrid  ... OptM3 with GC (2021)
Angular Grid (max. ang.)         AngularGrid ... 2 (Lebedev-110)
Angular grid pruning method      GridPruning ... 4 (adaptive)
Weight generation scheme         WeightScheme... mBecke (2022)
Basis function cutoff            BFCut       ... 1.0000e-10
Integration weight cutoff        WCut        ... 1.0000e-14
Partially contracted basis set               ... on
Rotationally invariant grid construction     ... off
Angular grids for H and He will be reduced by one unit
Core-polarized basis detected: some atoms will have their core
                               angular grid increased.

Total number of grid points                  ...    16368
Total number of batches                      ...      132
Average number of points per batch           ...      124
Average number of grid points per atom       ...     1637
UseSFitting                                  ... on

GRIDX 3
-------
General Integration Accuracy     IntAcc      ... 4.338
Radial Grid Type                 RadialGrid  ... OptM3 with GC (2021)
Angular Grid (max. ang.)         AngularGrid ... 3 (Lebedev-194)
Angular grid pruning method      GridPruning ... 4 (adaptive)
Weight generation scheme         WeightScheme... mBecke (2022)
Basis function cutoff            BFCut       ... 1.0000e-10
Integration weight cutoff        WCut        ... 1.0000e-14
Partially contracted basis set               ... on
Rotationally invariant grid construction     ... off
Angular grids for H and He will be reduced by one unit
Core-polarized basis detected: some atoms will have their core
                               angular grid increased.

Total number of grid points                  ...    28547
Total number of batches                      ...      229
Average number of points per batch           ...      124
Average number of grid points per atom       ...     2855
UseSFitting                                  ... on
Grids setup in   0.4 sec
Initializing property integral containers    ... done (  0.0 sec)

SHARK setup successfully completed in   0.4 seconds

Maximum memory used throughout the entire STARTUP-calculation: 17.6 MB


           ************************************************************
           *        Program running with 8 parallel MPI-processes     *
           *              working on a common directory               *
           ************************************************************
-------------------------------------------------------------------------------
                                 ORCA GUESS
                   Start orbitals & Density for SCF / CASSCF
-------------------------------------------------------------------------------

------------
SCF SETTINGS
------------
Hamiltonian:
 Density Functional     Method          .... DFT(GTOs)
 Exchange Functional    Exchange        .... B88
   X-Alpha parameter    XAlpha          ....  0.666667
   Becke's b parameter  XBeta           ....  0.004200
 Correlation Functional Correlation     .... LYP
 LDA part of GGA corr.  LDAOpt          .... VWN-5
 Gradients option       PostSCFGGA      .... off
 Hybrid DFT is turned on
   Fraction HF Exchange ScalHFX         ....  0.200000
   Scaling of DF-GGA-X  ScalDFX         ....  0.720000
   Scaling of DF-GGA-C  ScalDFC         ....  0.810000
   Scaling of DF-LDA-C  ScalLDAC        ....  1.000000
   Perturbative correction              ....  0.000000
   NL short-range parameter             ....  4.800000
 RI-approximation to the Coulomb term is turned on
   Number of AuxJ basis functions       .... 271
   RIJ-COSX (HFX calculated with COS-X)).... on


General Settings:
 Integral files         IntName         .... radical_011
 Hartree-Fock type      HFTyp           .... UHF
 Total Charge           Charge          ....    0
 Multiplicity           Mult            ....    2
 Number of Electrons    NEL             ....   59
 Basis Dimension        Dim             ....  104
 Nuclear Repulsion      ENuc            ....    194.4431842724 Eh

Convergence Acceleration:
 AO-DIIS                CNVDIIS         .... on
   Start iteration      DIISMaxIt       ....    12
   Startup error        DIISStart       ....  0.200000
   # of expansion vecs  DIISMaxEq       ....     5
   Bias factor          DIISBfac        ....   1.050
   Max. coefficient     DIISMaxC        ....  10.000
 MO-DIIS                CNVKDIIS        .... off
 Trust-Rad. Augm. Hess. CNVTRAH         .... auto
   Auto Start mean grad. ratio tolernc. ....  1.125000
   Auto Start start iteration           ....    50
   Auto Start num. interpolation iter.  ....    10
   Max. Number of Micro iterations      ....    24
   Max. Number of Macro iterations      .... Maxiter - #DIIS iter
   Number of Davidson start vectors     ....     2
   Converg. threshold    (grad. norm)   ....   5.000e-05
   Grad. Scal. Fac. for Micro threshold ....   0.100
   Minimum threshold for Micro iter.    ....   1.000e-02
   NR start threshold (gradient norm)   ....   1.000e-04
   Initial trust radius                 ....   0.400
   Minimum AH scaling param. (alpha)    ....   1.000
   Maximum AH scaling param. (alpha)    .... 1000.000
   Quad. conv. algorithm                .... NR
   White noise on init. David. guess    .... on
   Maximum white noise                  ....   0.010
   Pseudo random numbers                .... off
   Inactive MOs                         .... canonical
   Orbital update algorithm             .... Taylor
   Preconditioner                       .... Diag
   Full preconditioner red. dimension   ....   250
 SOSCF                 CNVSOSCF           .... on
   Start iteration     SOSCFMaxIt         ....   150
   Startup grad/error  SOSCFStart         ....  0.003300
   Hessian update      SOSCFHessUp        .... L-BFGS
   Autom. constraints  SOSCFAutoConstrain .... off
 Level Shifting         CNVShift        .... on
   Level shift para.    LevelShift      ....    0.2500
   Turn off err/grad.   ShiftErr        ....    0.0010
 Zerner damping         CNVZerner       .... off
 Static damping         CNVDamp         .... on
   Fraction old density DampFac         ....    0.7000
   Max. Damping (<1)    DampMax         ....    0.9800
   Min. Damping (>=0)   DampMin         ....    0.0000
   Turn off err/grad.   DampErr         ....    0.1000

SCF Procedure:
 Maximum # iterations   MaxIter         ....   125
 SCF integral mode      SCFMode         .... Direct
   Integral package                     .... SHARK and LIBINT hybrid scheme
 Reset frequency        DirectResetFreq ....    20
 Integral Threshold     Thresh          ....  1.000e-10 Eh
 Primitive CutOff       TCut            ....  1.000e-11 Eh

Convergence Tolerance:
 Convergence Check Mode ConvCheckMode   .... Total+1el-Energy
 Convergence forced     ConvForced      .... 0
 Energy Change          TolE            ....  1.000e-06 Eh
 1-El. energy change                    ....  1.000e-03 Eh
 Orbital Gradient       TolG            ....  5.000e-05
 Orbital Rotation angle TolX            ....  5.000e-05
 DIIS Error             TolErr          ....  1.000e-06

------------------------------
INITIAL GUESS: MODEL POTENTIAL
------------------------------
Loading Hartree-Fock densities                     ... done
Calculating cut-offs                               ... done
Initializing the effective Hamiltonian             ... done
Setting up the integral package (SHARK)            ... done
Starting the Coulomb interaction                   ... done (   0.0 sec)
Making the grid                                    ... done (   0.1 sec)
Mapping shells                                     ... done
Starting the XC term evaluation                    ... done (   0.0 sec)
  promolecular density results
     # of electrons  =     58.997766339
     EX              =   -106.846337801
     EC              =     -2.450125778
     EX+EC           =   -109.296463579
Transforming the Hamiltonian                       ... done (   0.0 sec)
Diagonalizing the Hamiltonian                      ... done (   0.0 sec)
Back transforming the eigenvectors                 ... done (   0.0 sec)
Now organizing SCF variables                       ... done
                      ------------------
                      INITIAL GUESS DONE (   0.1 sec)
                      ------------------
             **** ENERGY FILE WAS UPDATED (radical_011.en.tmp) ****
Finished Guess after   0.4 sec
Maximum memory used throughout the entire GUESS-calculation: 8.9 MB


           ************************************************************
           *        Program running with 8 parallel MPI-processes     *
           *              working on a common directory               *
           ************************************************************

-------------------------------------------------------------------------------------------
                                      ORCA LEAN-SCF
                              memory conserving SCF solver
-------------------------------------------------------------------------------------------

----------------------------------------D-I-I-S--------------------------------------------
Iteration    Energy (Eh)           Delta-E    RMSDP     MaxDP     DIISErr   Damp  Time(sec)
-------------------------------------------------------------------------------------------
               ***  Starting incremental Fock matrix formation  ***
    1    -2691.3266295398266266     0.00e+00  4.50e-03  3.49e-02  7.47e-02  0.700   0.2
Warning: op=1 Small HOMO/LUMO gap (   0.085) - skipping pre-diagonalization
         Will do a full diagonalization
    2    -2691.3721008969878312    -4.55e-02  3.41e-03  2.11e-02  3.98e-02  0.700   0.2
                               ***Turning on AO-DIIS***
    3    -2691.3907168803179957    -1.86e-02  1.53e-03  1.31e-02  1.63e-02  0.700   0.2
    4    -2691.4011710752679392    -1.05e-02  2.99e-03  2.93e-02  8.93e-03  0.000   0.2
    5    -2691.4244326935499885    -2.33e-02  7.00e-04  5.90e-03  3.58e-03  0.000   0.2
                              *** Initializing SOSCF ***
---------------------------------------S-O-S-C-F--------------------------------------
Iteration    Energy (Eh)           Delta-E    RMSDP     MaxDP     MaxGrad    Time(sec)
--------------------------------------------------------------------------------------
    6    -2691.4247753867184656    -3.43e-04  3.08e-04  2.78e-03  1.64e-03     0.2
               *** Restarting incremental Fock matrix formation ***
    7    -2691.4248448688022108    -6.95e-05  4.10e-04  2.82e-03  1.81e-03     0.2
    8    -2691.4248964302437344    -5.16e-05  4.11e-04  3.36e-03  1.55e-03     0.2
    9    -2691.4249073418927765    -1.09e-05  1.48e-04  1.14e-03  8.84e-04     0.2
   10    -2691.4249180699462158    -1.07e-05  7.69e-05  4.95e-04  2.75e-04     0.2
   11    -2691.4249188125859291    -7.43e-07  3.88e-05  3.75e-04  2.05e-04     0.2
                 **** Energy Check signals convergence ****

               *****************************************************
               *                     SUCCESS                       *
               *           SCF CONVERGED AFTER  11 CYCLES          *
               *****************************************************

Recomputing exchange energy using gridx3       ... done (    0.241 sec)
Old exchange energy                            :    -21.428112282 Eh
New exchange energy                            :    -21.428077668 Eh
Exchange energy change after final integration :      0.000034614 Eh
Total energy after final integration           :  -2691.424884969 Eh
             **** ENERGY FILE WAS UPDATED (radical_011.en.tmp) ****

----------------
TOTAL SCF ENERGY
----------------

Total Energy       :      -2691.42488496854139 Eh          -73237.39444 eV

Components:
Nuclear Repulsion  :        194.44318427237985 Eh            5291.06804 eV
Electronic Energy  :      -2885.86810385527860 Eh          -78528.46342 eV
One Electron Energy:      -4126.29225804694306 Eh         -112282.12065 eV
Two Electron Energy:       1240.42415419166446 Eh           33753.65724 eV

Virial components:
Potential Energy   :      -5378.53017151788663 Eh         -146357.24663 eV
Kinetic Energy     :       2687.10528654934569 Eh           73119.85219 eV
Virial Ratio       :          2.00160752853296

DFT components:
N(Alpha)           :       29.999995704210 electrons
N(Beta)            :       28.999993311145 electrons
N(Total)           :       58.999989015355 electrons
E(X)               :      -85.246050692029 Eh       
E(C)               :       -2.874293701545 Eh       
E(XC)              :      -88.120344393574 Eh       

---------------
SCF CONVERGENCE
---------------

  Last Energy change         ...    7.4264e-07  Tolerance :   1.0000e-06
  Last MAX-Density change    ...    3.7490e-04  Tolerance :   1.0000e-05
  Last RMS-Density change    ...    3.8796e-05  Tolerance :   1.0000e-06
  Last DIIS Error            ...    1.6423e-03  Tolerance :   1.0000e-06
  Last Orbital Gradient      ...    2.0472e-04  Tolerance :   5.0000e-05
  Last Orbital Rotation      ...    7.0050e-04  Tolerance :   5.0000e-05


----------------------
UHF SPIN CONTAMINATION
----------------------

Warning: in a DFT calculation there is little theoretical justification to 
         calculate <S**2> as in Hartree-Fock theory. We will do it anyways
         but you should keep in mind that the values have only limited relevance

Expectation value of <S**2>     :     0.761106
Ideal value S*(S+1) for S=0.5   :     0.750000
Deviation                       :     0.011106

----------------
ORBITAL ENERGIES
----------------
                 SPIN UP ORBITALS
  NO   OCC          E(Eh)            E(eV) 
   0   1.0000    -482.759418    -13136.5516 
   1   1.0000     -62.442503     -1699.1469 
   2   1.0000     -56.275821     -1531.3429 
   3   1.0000     -56.271804     -1531.2336 
   4   1.0000     -56.271793     -1531.2333 
   5   1.0000     -10.222382      -278.1652 
   6   1.0000     -10.219076      -278.0752 
   7   1.0000     -10.214472      -277.9499 
   8   1.0000      -8.660813      -235.6727 
   9   1.0000      -6.497041      -176.7935 
  10   1.0000      -6.480307      -176.3381 
  11   1.0000      -6.480250      -176.3366 
  12   1.0000      -2.609723       -71.0142 
  13   1.0000      -2.605584       -70.9015 
  14   1.0000      -2.605546       -70.9005 
  15   1.0000      -2.593079       -70.5613 
  16   1.0000      -2.593077       -70.5612 
  17   1.0000      -0.812391       -22.1063 
  18   1.0000      -0.744575       -20.2609 
  19   1.0000      -0.702887       -19.1265 
  20   1.0000      -0.575179       -15.6514 
  21   1.0000      -0.496164       -13.5013 
  22   1.0000      -0.456317       -12.4170 
  23   1.0000      -0.449027       -12.2186 
  24   1.0000      -0.405113       -11.0237 
  25   1.0000      -0.377470       -10.2715 
  26   1.0000      -0.310848        -8.4586 
  27   1.0000      -0.270323        -7.3559 
  28   1.0000      -0.270047        -7.3484 
  29   1.0000      -0.256384        -6.9766 
  30   0.0000      -0.015011        -0.4085 
  31   0.0000       0.061746         1.6802 
  32   0.0000       0.079045         2.1509 
  33   0.0000       0.097032         2.6404 
  34   0.0000       0.135154         3.6777 
  35   0.0000       0.139355         3.7920 
  36   0.0000       0.184765         5.0277 
  37   0.0000       0.241312         6.5664 
  38   0.0000       0.315775         8.5927 
  39   0.0000       0.354323         9.6416 
  40   0.0000       0.374635        10.1943 

                 SPIN DOWN ORBITALS
  NO   OCC          E(Eh)            E(eV) 
   0   1.0000    -482.757632    -13136.5030 
   1   1.0000     -62.441557     -1699.1211 
   2   1.0000     -56.272060     -1531.2406 
   3   1.0000     -56.271112     -1531.2148 
   4   1.0000     -56.271100     -1531.2145 
   5   1.0000     -10.220358      -278.1101 
   6   1.0000     -10.217479      -278.0317 
   7   1.0000     -10.211135      -277.8591 
   8   1.0000      -8.658153      -235.6003 
   9   1.0000      -6.489788      -176.5961 
  10   1.0000      -6.479098      -176.3052 
  11   1.0000      -6.479041      -176.3037 
  12   1.0000      -2.604580       -70.8742 
  13   1.0000      -2.601571       -70.7923 
  14   1.0000      -2.601533       -70.7913 
  15   1.0000      -2.592385       -70.5424 
  16   1.0000      -2.592383       -70.5423 
  17   1.0000      -0.806470       -21.9452 
  18   1.0000      -0.721342       -19.6287 
  19   1.0000      -0.687849       -18.7173 
  20   1.0000      -0.571754       -15.5582 
  21   1.0000      -0.493339       -13.4244 
  22   1.0000      -0.451620       -12.2892 
  23   1.0000      -0.427002       -11.6193 
  24   1.0000      -0.401732       -10.9317 
  25   1.0000      -0.375675       -10.2226 
  26   1.0000      -0.284718        -7.7476 
  27   1.0000      -0.261291        -7.1101 
  28   1.0000      -0.260949        -7.1008 
  29   0.0000      -0.169851        -4.6219 
  30   0.0000      -0.005491        -0.1494 
  31   0.0000       0.063115         1.7175 
  32   0.0000       0.080507         2.1907 
  33   0.0000       0.099470         2.7067 
  34   0.0000       0.137406         3.7390 
  35   0.0000       0.140542         3.8243 
  36   0.0000       0.198518         5.4020 
  37   0.0000       0.243000         6.6124 
  38   0.0000       0.318888         8.6774 
  39   0.0000       0.363200         9.8832 
*Only the first 10 virtual orbitals were printed.

                    ********************************
                    * MULLIKEN POPULATION ANALYSIS *
                    ********************************

--------------------------------------------
MULLIKEN ATOMIC CHARGES AND SPIN POPULATIONS
--------------------------------------------
   0 C :   -0.085789   -0.098980
   1 C :   -0.002128    0.254334
   2 H :    0.024843    0.003622
   3 H :    0.040995   -0.011110
   4 H :    0.034168   -0.010801
   5 C :    0.064233    0.261212
   6 H :    0.045991   -0.004626
   7 H :    0.044235   -0.001154
   8 H :    0.047827   -0.028202
   9 Br:   -0.214375    0.635705
Sum of atomic charges         :   -0.0000000
Sum of atomic spin populations:    1.0000000

-----------------------------------------------------
MULLIKEN REDUCED ORBITAL CHARGES AND SPIN POPULATIONS
-----------------------------------------------------
CHARGE
  0 C s       :     3.158526  s :     3.158526
      pz      :     0.972924  p :     2.891244
      px      :     0.964318
      py      :     0.954003
      dz2     :     0.008718  d :     0.036018
      dxz     :     0.013055
      dyz     :     0.006628
      dx2y2   :     0.004506
      dxy     :     0.003112

  1 C s       :     3.124259  s :     3.124259
      pz      :     0.975402  p :     2.851737
      px      :     0.933286
      py      :     0.943050
      dz2     :     0.006855  d :     0.026132
      dxz     :     0.010528
      dyz     :     0.004820
      dx2y2   :     0.002824
      dxy     :     0.001105

  2 H s       :     0.952773  s :     0.952773
      pz      :     0.006047  p :     0.022384
      px      :     0.011654
      py      :     0.004683

  3 H s       :     0.935623  s :     0.935623
      pz      :     0.006625  p :     0.023382
      px      :     0.012308
      py      :     0.004449

  4 H s       :     0.942541  s :     0.942541
      pz      :     0.006844  p :     0.023291
      px      :     0.011370
      py      :     0.005077

  5 C s       :     2.980674  s :     2.980674
      pz      :     0.979312  p :     2.926018
      px      :     0.978641
      py      :     0.968066
      dz2     :     0.003309  d :     0.029075
      dxz     :     0.007800
      dyz     :     0.007545
      dx2y2   :     0.008135
      dxy     :     0.002286

  6 H s       :     0.930961  s :     0.930961
      pz      :     0.006897  p :     0.023048
      px      :     0.011560
      py      :     0.004592

  7 H s       :     0.932480  s :     0.932480
      pz      :     0.010298  p :     0.023284
      px      :     0.003873
      py      :     0.009114

  8 H s       :     0.917147  s :     0.917147
      pz      :     0.009656  p :     0.035026
      px      :     0.006080
      py      :     0.019291

  9 Brs       :     7.973948  s :     7.973948
      pz      :     5.852283  p :    17.229051
      px      :     5.977440
      py      :     5.399328
      dz2     :     2.000597  d :    10.011376
      dxz     :     2.000246
      dyz     :     2.005097
      dx2y2   :     2.004536
      dxy     :     2.000899


SPIN
  0 C s       :    -0.013913  s :    -0.013913
      pz      :    -0.014144  p :    -0.088389
      px      :    -0.009591
      py      :    -0.064654
      dz2     :     0.000714  d :     0.003321
      dxz     :     0.000001
      dyz     :     0.001771
      dx2y2   :     0.000204
      dxy     :     0.000631

  1 C s       :     0.025171  s :     0.025171
      pz      :     0.021607  p :     0.229948
      px      :     0.014500
      py      :     0.193841
      dz2     :    -0.000179  d :    -0.000784
      dxz     :    -0.000008
      dyz     :    -0.000268
      dx2y2   :    -0.000297
      dxy     :    -0.000032

  2 H s       :     0.003998  s :     0.003998
      pz      :    -0.000026  p :    -0.000376
      px      :    -0.000020
      py      :    -0.000329

  3 H s       :    -0.012184  s :    -0.012184
      pz      :     0.000069  p :     0.001075
      px      :     0.000057
      py      :     0.000948

  4 H s       :    -0.011772  s :    -0.011772
      pz      :     0.000040  p :     0.000971
      px      :     0.000052
      py      :     0.000879

  5 C s       :     0.021240  s :     0.021240
      pz      :     0.046491  p :     0.240578
      px      :     0.010087
      py      :     0.184000
      dz2     :     0.000051  d :    -0.000606
      dxz     :    -0.000201
      dyz     :    -0.000160
      dx2y2   :    -0.000059
      dxy     :    -0.000238

  6 H s       :    -0.005616  s :    -0.005616
      pz      :     0.000045  p :     0.000990
      px      :     0.000100
      py      :     0.000845

  7 H s       :    -0.002291  s :    -0.002291
      pz      :     0.000585  p :     0.001137
      px      :    -0.000018
      py      :     0.000571

  8 H s       :    -0.040227  s :    -0.040227
      pz      :     0.002484  p :     0.012026
      px      :     0.000220
      py      :     0.009322

  9 Brs       :     0.000253  s :     0.000253
      pz      :     0.118965  p :     0.636012
      px      :     0.009441
      py      :     0.507606
      dz2     :    -0.000002  d :    -0.000560
      dxz     :    -0.000006
      dyz     :    -0.000290
      dx2y2   :    -0.000244
      dxy     :    -0.000018



                     *******************************
                     * LOEWDIN POPULATION ANALYSIS *
                     *******************************

-------------------------------------------
LOEWDIN ATOMIC CHARGES AND SPIN POPULATIONS
-------------------------------------------
   0 C :   -0.018237   -0.061407
   1 C :   -0.007247    0.209375
   2 H :    0.034313    0.000214
   3 H :    0.032052   -0.000645
   4 H :    0.029554   -0.000951
   5 C :   -0.016254    0.209650
   6 H :    0.041262    0.001518
   7 H :    0.043217    0.003755
   8 H :    0.023939    0.041809
   9 Br:   -0.162598    0.596684

----------------------------------------------------
LOEWDIN REDUCED ORBITAL CHARGES AND SPIN POPULATIONS
----------------------------------------------------
CHARGE
  0 C s       :     2.878441  s :     2.878441
      pz      :     1.069287  p :     3.049370
      px      :     1.040009
      py      :     0.940073
      dz2     :     0.023482  d :     0.090426
      dxz     :     0.035107
      dyz     :     0.014522
      dx2y2   :     0.010520
      dxy     :     0.006794

  1 C s       :     2.894898  s :     2.894898
      pz      :     1.060858  p :     3.044816
      px      :     1.044920
      py      :     0.939037
      dz2     :     0.018645  d :     0.067533
      dxz     :     0.028532
      dyz     :     0.010523
      dx2y2   :     0.006911
      dxy     :     0.002921

  2 H s       :     0.899722  s :     0.899722
      pz      :     0.017265  p :     0.065965
      px      :     0.034345
      py      :     0.014354

  3 H s       :     0.900325  s :     0.900325
      pz      :     0.017968  p :     0.067623
      px      :     0.036063
      py      :     0.013592

  4 H s       :     0.903192  s :     0.903192
      pz      :     0.018442  p :     0.067253
      px      :     0.033420
      py      :     0.015391

  5 C s       :     2.862507  s :     2.862507
      pz      :     1.039112  p :     3.081735
      px      :     1.053249
      py      :     0.989375
      dz2     :     0.006979  d :     0.072011
      dxz     :     0.021338
      dyz     :     0.018538
      dx2y2   :     0.020617
      dxy     :     0.004539

  6 H s       :     0.892110  s :     0.892110
      pz      :     0.019927  p :     0.066628
      px      :     0.034043
      py      :     0.012659

  7 H s       :     0.889735  s :     0.889735
      pz      :     0.030443  p :     0.067047
      px      :     0.011040
      py      :     0.025563

  8 H s       :     0.864450  s :     0.864450
      pz      :     0.028030  p :     0.111611
      px      :     0.013564
      py      :     0.070017

  9 Brs       :     7.938618  s :     7.938618
      pz      :     5.845890  p :    17.205613
      px      :     5.977176
      py      :     5.382547
      dz2     :     2.000826  d :    10.018367
      dxz     :     2.000349
      dyz     :     2.008421
      dx2y2   :     2.007461
      dxy     :     2.001310


SPIN
  0 C s       :    -0.003847  s :    -0.003847
      pz      :    -0.006522  p :    -0.065474
      px      :    -0.004337
      py      :    -0.054615
      dz2     :     0.001752  d :     0.007914
      dxz     :     0.000276
      dyz     :     0.003889
      dx2y2   :     0.000388
      dxy     :     0.001609

  1 C s       :     0.006654  s :     0.006654
      pz      :     0.017591  p :     0.204528
      px      :     0.007688
      py      :     0.179249
      dz2     :    -0.000455  d :    -0.001808
      dxz     :    -0.000240
      dyz     :    -0.000719
      dx2y2   :    -0.000347
      dxy     :    -0.000047

  2 H s       :     0.001865  s :     0.001865
      pz      :    -0.000106  p :    -0.001652
      px      :    -0.000253
      py      :    -0.001292

  3 H s       :    -0.005342  s :    -0.005342
      pz      :     0.000491  p :     0.004697
      px      :     0.000610
      py      :     0.003596

  4 H s       :    -0.005377  s :    -0.005377
      pz      :     0.000488  p :     0.004426
      px      :     0.000532
      py      :     0.003406

  5 C s       :     0.012813  s :     0.012813
      pz      :     0.036710  p :     0.199425
      px      :     0.005632
      py      :     0.157083
      dz2     :    -0.000044  d :    -0.002589
      dxz     :    -0.000487
      dyz     :    -0.000941
      dx2y2   :    -0.000612
      dxy     :    -0.000504

  6 H s       :    -0.003667  s :    -0.003667
      pz      :     0.000772  p :     0.005185
      px      :     0.000630
      py      :     0.003782

  7 H s       :    -0.001838  s :    -0.001838
      pz      :     0.001761  p :     0.005593
      px      :     0.000085
      py      :     0.003747

  8 H s       :    -0.001345  s :    -0.001345
      pz      :     0.008880  p :     0.043154
      px      :     0.000615
      py      :     0.033659

  9 Brs       :     0.000270  s :     0.000270
      pz      :     0.111075  p :     0.595560
      px      :     0.008614
      py      :     0.475870
      dz2     :     0.000050  d :     0.000854
      dxz     :     0.000006
      dyz     :     0.000387
      dx2y2   :     0.000367
      dxy     :     0.000044



                      *****************************
                      * MAYER POPULATION ANALYSIS *
                      *****************************

  NA   - Mulliken gross atomic population
  ZA   - Total nuclear charge
  QA   - Mulliken gross atomic charge
  VA   - Mayer's total valence
  BVA  - Mayer's bonded valence
  FA   - Mayer's free valence

  ATOM       NA         ZA         QA         VA         BVA        FA
  0 C      6.0858     6.0000    -0.0858     4.1228     4.1172     0.0057
  1 C      6.0021     6.0000    -0.0021     3.9500     3.9039     0.0460
  2 H      0.9752     1.0000     0.0248     0.9800     0.9800     0.0000
  3 H      0.9590     1.0000     0.0410     0.9755     0.9754     0.0002
  4 H      0.9658     1.0000     0.0342     0.9848     0.9846     0.0001
  5 C      5.9358     6.0000     0.0642     3.8909     3.8367     0.0542
  6 H      0.9540     1.0000     0.0460     0.9942     0.9941     0.0001
  7 H      0.9558     1.0000     0.0442     0.9861     0.9860     0.0001
  8 H      0.9522     1.0000     0.0478     1.0789     1.0733     0.0057
  9 Br    35.2144    35.0000    -0.2144     0.9831     0.5761     0.4070

  Mayer bond orders larger than 0.100000
B(  0-C ,  1-C ) :   1.8795 B(  0-C ,  2-H ) :   0.9615 B(  0-C ,  5-C ) :   1.1435 
B(  1-C ,  3-H ) :   0.9538 B(  1-C ,  4-H ) :   0.9561 B(  5-C ,  6-H ) :   0.9515 
B(  5-C ,  7-H ) :   0.9369 B(  5-C ,  8-H ) :   0.7060 B(  8-H ,  9-Br) :   0.3196 


-------
TIMINGS
-------

Total SCF time: 0 days 0 hours 0 min 2 sec 

Total time                  ....       2.833 sec
Sum of individual times     ....       2.645 sec  ( 93.4%)

SCF preparation             ....       0.311 sec  ( 11.0%)
Fock matrix formation       ....       2.166 sec  ( 76.5%)
  Startup                   ....       0.004 sec  (  0.2% of F)
  Split-RI-J                ....       0.134 sec  (  6.2% of F)
  Chain of spheres X        ....       1.646 sec  ( 76.0% of F)
  XC integration            ....       0.478 sec  ( 22.1% of F)
    Basis function eval.    ....       0.107 sec  ( 22.4% of XC)
    Density eval.           ....       0.098 sec  ( 20.5% of XC)
    XC-Functional eval.     ....       0.036 sec  (  7.5% of XC)
    XC-Potential eval.      ....       0.130 sec  ( 27.2% of XC)
Diagonalization             ....       0.000 sec  (  0.0%)
Density matrix formation    ....       0.024 sec  (  0.9%)
Total Energy calculation    ....       0.012 sec  (  0.4%)
Population analysis         ....       0.009 sec  (  0.3%)
Orbital Transformation      ....       0.018 sec  (  0.6%)
Orbital Orthonormalization  ....       0.000 sec  (  0.0%)
DIIS solution               ....       0.065 sec  (  2.3%)
SOSCF solution              ....       0.039 sec  (  1.4%)
Finished LeanSCF after   2.8 sec

Maximum memory used throughout the entire LEANSCF-calculation: 9.1 MB

-------------------------   --------------------
FINAL SINGLE POINT ENERGY     -2691.424884968541
-------------------------   --------------------



           ************************************************************
           *        Program running with 8 parallel MPI-processes     *
           *              working on a common directory               *
           ************************************************************

------------------------------------------------------------------------------
                              ORCA PROPERTY CALCULATIONS
------------------------------------------------------------------------------

GBWName                                 ... radical_011.gbw
Number of atoms                         ...     10
Number of basis functions               ...    104
Max core memory                         ...   1200 MB

Electric properties:
Dipole moment                           ... YES
Quadrupole moment                       ...  NO
Static polarizability (Dipole/Dipole)   ...  NO
Static polarizability (Dipole/Quad.)    ...  NO
Static polarizability (Quad./Quad.)     ...  NO
Static polarizability (Velocity)        ...  NO
Static hyperpolarizability              ...  NO

Atomic electric properties:
Dipole moment                           ...  NO
Quadrupole moment                       ...  NO
Static polarizability                   ...  NO

Choice of electric origin               ... Center of mass
Position of electric origin             ...    -1.049852    -2.545670    -2.258499

General magnetic properties:
Magnetizability                         ...  NO

EPR properties:
g-Tensor (aka g-matrix)                 ...  NO
Zero-Field splitting spin-orbit         ...  NO
Zero-field splitting spin-spin          ...  NO
Hyperfine couplings                     ...  NO (   0 nuclei)
Quadrupole couplings                    ...  NO (   0 nuclei)
Contact density                         ...  NO (   0 nuclei)

NMR properties:
Chemical shifts                         ...  NO (   0 nuclei)
Spin-rotation constants                 ...  NO (   0 nuclei)
Spin-spin couplings                     ...  NO (   0 nuclei,    0 pairs)

Choice of magnetic origin               ... GIAO
Position of magnetic origin             ...     0.000000     0.000000     0.000000

Properties with geometric perturbations:
SCF Hessian                             ...  NO
IR spectrum                             ...  NO
VCD spectrum                            ...  NO
X-ray spectroscopy properties:
SCF XES/XAS/RIXS spectra                ...  NO

SCF SOC stabilization energy            ...  NO
Diagonal Born-Oppenheimer correction    ...  NO

-------------
DIPOLE MOMENT
-------------

Method             : SCF
Type of density    : Electron Density
Multiplicity       :   2
Irrep              :   0
Energy             : -2691.4248849685413916 Eh
Basis              : AO
                                X                 Y                 Z
Electronic contribution:     -6.778281776     -16.079668413     -14.401898899
Nuclear contribution   :      7.121992385      17.015861212      15.125996786
                        -----------------------------------------
Total Dipole Moment    :      0.343710609       0.936192799       0.724097887
                        -----------------------------------------
Magnitude (a.u.)       :      1.232441353
Magnitude (Debye)      :      3.132616967



--------------------
Rotational spectrum 
--------------------
 
Rotational constants in cm-1:             0.409690             0.042908             0.040545 
Rotational constants in MHz :         12282.203239          1286.348507          1215.511244 

Dipole components along the rotational axes: 
x,y,z [a.u.] :     1.215729    -0.201206     0.020736 
x,y,z [Debye]:     3.090138    -0.511426     0.052708 

 

Dipole moment calculation done in   0.0 sec 

Maximum memory used throughout the entire PROP-calculation: 5.2 MB

--------------------------------
SUGGESTED CITATIONS FOR THIS RUN
--------------------------------

Below you find a list of papers that are relevant to this ORCA run
We neither can nor want to force you to cite these papers, but we appreciate if you do
You receive ORCA, which is the product of decades of hard work by many enthusiastic individuals, for free
The only thing we kindly ask in return is that you cite our papers,
We deeply appreciate it, if you show your appreciation for ORCA by not just citing the generic ORCA reference.

Please note that relegating all ORCA citations to the supporting information does *not* help us.
SI sections are not indexed - citations you put there will not count into any citation statistics
But we need these citations in order to attract the funding resources that allow us to do what we are doing

Therefore, if you are a happy ORCA user, please consider citing a few of the papers listed below in the main body of your paper

In addition to the list printed below, the program has created the file radical_011.bibtex that contains the list in bibtex format
You can import this file easily into all common literature databanks and citation aid programs


List of essential papers. We consider these as the minimum necessary citations

  1. Neese, F.
     Software update: the ORCA program system, version 6.0
     WIRES Comput. Molec. Sci. 2025 15(1), e70019
     doi.org/10.1002/wcms.7019

List of papers to cite with high priority. The work reported in these papers was absolutely
necessary for this run to complete.
Our perspective: the developers of density functionals and basis sets usually get cited in chemistry papers
Good! But without the algorithms to do something with them, the functionals or basis sets would not do anything.
Hence, in our opinion, the algorithm design and method developments papers are equally worthy of getting cited

  1. Neese, F.
     An improvement of the resolution of the identity approximation for the formation of the Coulomb matrix
     J. Comp. Chem. 2003 24(14), 1740-1747
     doi.org/10.1002/jcc.10318
  2. Neese, F.; Wennmohs, F.; Hansen, A.; Becker, U.
     Efficient, approximate and parallel Hartree-Fock and hybrid DFT calculations. A 'chain-of-spheres' algorithm for the Hartree-Fock exchange
     Chem. Phys. 2009 356(1-3), 98-109
     doi.org/10.1016/j.chemphys.2008.10.036
  3. Helmich-Paris, B.; de Souza, B.; Neese, F.; Izsák, R.
     An improved chain of spheres for exchange algorithm
     J. Chem. Phys. 2021 155(10), 104109
     doi.org/10.1063/5.0058766
  4. Neese, F.
     The SHARK Integral Generation and Digestion System
     J. Comp. Chem. 2022 44(3), 381
     doi.org/10.1002/jcc.26942

List of suggested additional citations. These are papers that are important in the 'surrounding' of 
of this run, or papers that preceded the highly important papers. If you like your results we are grateful for a citation.

  1. Izsak, R.; Neese, F.
     An overlap fitted chain of spheres exchange method
     J. Chem. Phys. 2011 135 , 144105
     doi.org/10.1063/1.3646921
  2. Izsak, R.; Hansen, A.; Neese, F.
     The resolution of identity and chain of spheres approximations for the LPNO-CCSD singles Fock term
     Molec. Phys. 2012 110 , 2413-2417
     doi.org/10.1080/00268976.2012.687466
  3. Neese, F.
     The ORCA program system
     WIRES Comput. Molec. Sci. 2012 2(1), 73-78
     doi.org/10.1002/wcms.81
  4. Izsak, R.; Neese, F.; Klopper, W.
     Robust fitting techniques in the chain of spheres approximation to the Fock exchange: The role of the complementary space
     J. Chem. Phys. 2013 139 , 
     doi.org/10.1063/1.4819264
  5. Neese, F.
     Software update: the ORCA program system, version 4.0
     WIRES Comput. Molec. Sci. 2018 8(1), 1-6
     doi.org/10.1002/wcms.1327
  6. Neese, F.; Wennmohs, F.; Becker, U.; Riplinger, C.
     The ORCA quantum chemistry program package
     J. Chem. Phys. 2020 152(22), 224108
     doi.org/10.1063/5.0004608
  7. Neese, F.
     Software update: The ORCA program system—Version 5.0
     WIRES Comput. Molec. Sci. 2022 12(1), e1606
     doi.org/10.1002/wcms.1606

List of optional additional citations

  1. Neese, F.
     Approximate second-order SCF convergence for spin unrestricted wavefunctions
     Chem. Phys. Lett. 2000 325(1-3), 93-98
     doi.org/10.1016/s0009-2614(00)00662-x

Timings for individual modules:

Sum of individual times          ...        4.698 sec (=   0.078 min)
Startup calculation              ...        0.795 sec (=   0.013 min)  16.9 %
SCF iterations                   ...        3.426 sec (=   0.057 min)  72.9 %
Property calculations            ...        0.478 sec (=   0.008 min)  10.2 %
                             ****ORCA TERMINATED NORMALLY****
TOTAL RUN TIME: 0 days 0 hours 0 minutes 5 seconds 190 msec
