[Molden Format]
[Title]
 Molden file created by orca_2mkl for BaseName=radical_011

[Atoms] AU
C    1   6          1.2049101700         0.8211653737         0.3530216288 
C    2   6          1.3139379193         0.1042826470         2.7945043301 
H    3   1          2.9644322835         1.2866635020        -0.6387841250 
H    4   1          3.1099147397         0.0118844877         3.8120330361 
H    5   1         -0.3918347139        -0.4300827708         3.8400463363 
C    6   6         -1.1171361705         0.8473739854        -1.1623705450 
H    7   1         -2.8895443266         0.8965900129        -0.0798012449 
H    8   1         -1.1258100135         2.1424618865        -2.7863558310 
H    9   1         -1.2326494599        -1.1571926954        -2.1993124075 
Br  10  35         -1.8189728977        -4.1875972080        -3.7709768461 
[GTO]
  1 0
s   5 1.0 
     1238.4016938000         0.8208956682
      186.2900499200         1.4766449896
       42.2511763460         2.1526124058
       11.6765579320         2.1081722461
        3.5930506482         0.8290999933
s   1 1.0 
        0.4024514736         0.3601183351
s   1 1.0 
        0.1309018267         0.1551027052
p   3 1.0 
        9.4680970621         1.3467645142
        2.0103545142         1.0678070931
        0.5477100471         0.5108735714
p   1 1.0 
        0.1526861379         0.1360471976
d   1 1.0 
        0.8000000000         1.9292013661

  2 0
s   5 1.0 
     1238.4016938000         0.8208956682
      186.2900499200         1.4766449896
       42.2511763460         2.1526124058
       11.6765579320         2.1081722461
        3.5930506482         0.8290999933
s   1 1.0 
        0.4024514736         0.3601183351
s   1 1.0 
        0.1309018267         0.1551027052
p   3 1.0 
        9.4680970621         1.3467645142
        2.0103545142         1.0678070931
        0.5477100471         0.5108735714
p   1 1.0 
        0.1526861379         0.1360471976
d   1 1.0 
        0.8000000000         1.9292013661

  3 0
s   3 1.0 
       13.0107010000         0.1634903809
        1.9622572000         0.2773515510
        0.4445379600         0.3157501452
s   1 1.0 
        0.1219496200         0.1470772262
p   1 1.0 
        0.8000000000         1.0784563492

  4 0
s   3 1.0 
       13.0107010000         0.1634903809
        1.9622572000         0.2773515510
        0.4445379600         0.3157501452
s   1 1.0 
        0.1219496200         0.1470772262
p   1 1.0 
        0.8000000000         1.0784563492

  5 0
s   3 1.0 
       13.0107010000         0.1634903809
        1.9622572000         0.2773515510
        0.4445379600         0.3157501452
s   1 1.0 
        0.1219496200         0.1470772262
p   1 1.0 
        0.8000000000         1.0784563492

  6 0
s   5 1.0 
     1238.4016938000         0.8208956682
      186.2900499200         1.4766449896
       42.2511763460         2.1526124058
       11.6765579320         2.1081722461
        3.5930506482         0.8290999933
s   1 1.0 
        0.4024514736         0.3601183351
s   1 1.0 
        0.1309018267         0.1551027052
p   3 1.0 
        9.4680970621         1.3467645142
        2.0103545142         1.0678070931
        0.5477100471         0.5108735714
p   1 1.0 
        0.1526861379         0.1360471976
d   1 1.0 
        0.8000000000         1.9292013661

  7 0
s   3 1.0 
       13.0107010000         0.1634903809
        1.9622572000         0.2773515510
        0.4445379600         0.3157501452
s   1 1.0 
        0.1219496200         0.1470772262
p   1 1.0 
        0.8000000000         1.0784563492

  8 0
s   3 1.0 
       13.0107010000         0.1634903809
        1.9622572000         0.2773515510
        0.4445379600         0.3157501452
s   1 1.0 
        0.1219496200         0.1470772262
p   1 1.0 
        0.8000000000         1.0784563492

  9 0
s   3 1.0 
       13.0107010000         0.1634903809
        1.9622572000         0.2773515510
        0.4445379600         0.3157501452
s   1 1.0 
        0.1219496200         0.1470772262
p   1 1.0 
        0.8000000000         1.0784563492

 10 0
s   6 1.0 
   113286.3877600000         7.5076141183
    17009.6263030000        13.8835270484
     3870.1842567000        22.7307285566
     1093.0357227000        30.8227297499
      356.3972179700        27.2481937511
      123.1253964300         9.6953381145
s   3 1.0 
      236.7408400700        -4.7631125758
       28.4686610700         5.6113863182
       11.8834437220         1.9900291396
s   3 1.0 
       21.2696333120        -1.5429794477
        3.6129226841         1.3310800628
        1.6626648969         0.4300130345
s   1 1.0 
        0.3482379323         0.3230852630
s   1 1.0 
        0.1301903139         0.1544699827
p   5 1.0 
     1560.2801881000       115.0180051576
      368.4785920500       143.9035925417
      117.2297884900       137.5255986684
       42.6489092480        78.9578527439
       16.0872250960        15.8580577654
p   3 1.0 
        8.6352810058         6.8437546680
        3.5613665502         3.7974971038
        1.5292626609         0.5585414278
p   1 1.0 
        0.5306429485         0.6455696201
p   1 1.0 
        0.1570275896         0.1408996918
d   4 1.0 
      104.8551864200       261.4493931636
       30.2811436880       176.6993802449
       10.6513942670        76.9545600188
        3.8699456233        17.5937671387
d   1 1.0 
        1.3240876762         4.6593398042
d   1 1.0 
        0.3890000000         0.5462379705

[5D]
[7F]
[9G]
[MO]
 Sym=     1a
 Ene= -4.82759417594022E+02
 Spin= Alpha
 Occup= 1.000000
  1       0.000005843821
  2      -0.000083818829
  3       0.000218990831
  4       0.000008777675
  5       0.000015438353
  6       0.000005754655
  7      -0.000008250342
  8      -0.000070927791
  9       0.000132545269
 10      -0.000001749584
 11       0.000002653891
 12       0.000001977901
 13      -0.000001569353
 14      -0.000004961014
 15       0.000001577312
 16      -0.000010644082
 17      -0.000205295333
 18       0.000000427527
 19       0.000003569178
 20       0.000003149153
 21       0.000016932421
 22      -0.000028755336
 23       0.000098905756
 24       0.000000087247
 25      -0.000002251900
 26      -0.000001465856
 27      -0.000004804523
 28      -0.000000578436
 29      -0.000005239356
 30       0.000003633800
 31      -0.000001797346
 32       0.000002406320
 33       0.000001236258
 34       0.000001916745
 35      -0.000007645017
 36       0.000000733043
 37       0.000002291619
 38      -0.000003243002
 39      -0.000001175747
 40       0.000007936809
 41      -0.000000479976
 42       0.000000189658
 43      -0.000001436251
 44       0.000006279680
 45      -0.000145565561
 46       0.001111199307
 47      -0.000009533298
 48       0.000001954789
 49       0.000000373289
 50       0.000046242067
 51      -0.000406347724
 52      -0.000261702507
 53      -0.000006188592
 54       0.000005446602
 55       0.000020422051
 56      -0.000020396398
 57       0.000004395894
 58      -0.000008503769
 59       0.000006556285
 60       0.000005165072
 61       0.000000843916
 62      -0.000005700139
 63      -0.000040858716
 64      -0.000031804867
 65      -0.000007037165
 66      -0.000002849781
 67       0.000005462523
 68      -0.000003571440
 69      -0.001647151278
 70       0.000004744041
 71      -0.000019230624
 72      -0.000008548533
 73      -0.994982547232
 74      -0.015687574628
 75       0.003910946097
 76      -0.002365474945
 77       0.001830312169
 78      -0.000001824820
 79      -0.000008002139
 80      -0.000004104880
 81       0.000006155005
 82       0.000026520033
 83       0.000013649149
 84      -0.000029780450
 85      -0.000130256830
 86      -0.000067212913
 87       0.000108247715
 88       0.000508152752
 89       0.000263269642
 90      -0.000003244407
 91       0.000002524745
 92       0.000011567049
 93      -0.000010591205
 94       0.000004992802
 95       0.000012578363
 96      -0.000009733861
 97      -0.000044841258
 98       0.000041092504
 99      -0.000019227702
100      -0.000031144327
101       0.000023864768
102       0.000111312636
103      -0.000102134214
104       0.000046848635
 Sym=     1a
 Ene= -6.24425027230023E+01
 Spin= Alpha
 Occup= 1.000000
  1      -0.000013805757
  2       0.000200658660
  3      -0.000513030117
  4      -0.000020821466
  5      -0.000036681129
  6      -0.000013702635
  7       0.000012252567
  8       0.000169774532
  9      -0.000322439757
 10       0.000004400527
 11      -0.000006213330
 12      -0.000004844155
 13       0.000003942405
 14       0.000011896146
 15      -0.000003770133
 16       0.000026095989
 17       0.000491017191
 18      -0.000001234607
 19      -0.000008515176
 20      -0.000007610985
 21      -0.000037044247
 22       0.000069825051
 23      -0.000237185917
 24      -0.000000192129
 25       0.000005282736
 26       0.000003385262
 27       0.000011329125
 28       0.000001367630
 29       0.000013095765
 30      -0.000009116099
 31       0.000004453770
 32      -0.000005494216
 33      -0.000002551373
 34      -0.000004927268
 35       0.000017596237
 36      -0.000001786205
 37      -0.000005434347
 38       0.000007592237
 39       0.000003535012
 40      -0.000017453544
 41       0.000001145505
 42      -0.000000408938
 43       0.000003306051
 44      -0.000013804379
 45       0.000344894829
 46      -0.002723435026
 47       0.000023333153
 48       0.000002936019
 49       0.000002711946
 50      -0.000118413577
 51       0.000991603566
 52       0.000634304248
 53       0.000016055821
 54      -0.000013319395
 55      -0.000053752525
 56       0.000053367951
 57      -0.000010318689
 58       0.000019064191
 59      -0.000014270160
 60      -0.000012327408
 61      -0.000002104226
 62       0.000014083357
 63       0.000097814594
 64       0.000078804300
 65       0.000017449417
 66       0.000007010929
 67      -0.000013199127
 68       0.000006984909
 69       0.004036785416
 70      -0.000008063077
 71       0.000066718887
 72       0.000031079436
 73       0.347189004297
 74      -1.046962355696
 75      -0.018560525208
 76       0.006388127738
 77      -0.004638602217
 78      -0.000018525947
 79      -0.000126635254
 80      -0.000061019905
 81      -0.000017123910
 82      -0.000077490328
 83      -0.000039606118
 84       0.000073401194
 85       0.000323116496
 86       0.000166724007
 87      -0.000264630058
 88      -0.001243908016
 89      -0.000644505714
 90       0.000021088273
 91      -0.000011985230
 92      -0.000069169583
 93       0.000066617590
 94      -0.000024097516
 95      -0.000034250470
 96       0.000024986370
 97       0.000119482915
 98      -0.000110693888
 99       0.000049326999
100       0.000075932756
101      -0.000057764742
102      -0.000269945852
103       0.000248100690
104      -0.000113178408
 Sym=     1a
 Ene= -5.62758207433347E+01
 Spin= Alpha
 Occup= 1.000000
  1      -0.000014762630
  2       0.000234127365
  3      -0.000639822765
  4      -0.000021122300
  5      -0.000041584220
  6      -0.000013856510
  7       0.000073741601
  8       0.000216045441
  9      -0.000276523042
 10       0.000003627300
 11      -0.000010168731
 12      -0.000009652067
 13       0.000002833274
 14       0.000006730831
 15      -0.000005147755
 16       0.000041374518
 17       0.000480014743
 18      -0.000003623129
 19      -0.000011837384
 20      -0.000011755546
 21      -0.000033417118
 22       0.000064048723
 23      -0.000222857760
 24      -0.000001642554
 25       0.000007833721
 26       0.000006023985
 27       0.000011961857
 28      -0.000000820331
 29       0.000020659459
 30      -0.000018053190
 31       0.000003455316
 32      -0.000007290704
 33      -0.000007928028
 34      -0.000008818672
 35       0.000013771884
 36       0.000000467053
 37      -0.000006215934
 38       0.000008027500
 39       0.000010169675
 40      -0.000022264426
 41      -0.000000897164
 42       0.000001017454
 43       0.000000715284
 44       0.000000748532
 45       0.000238049344
 46      -0.002830485304
 47       0.000028286889
 48       0.000085896811
 49       0.000042160491
 50      -0.000127470116
 51       0.001093770613
 52       0.000729199276
 53       0.000029675735
 54      -0.000018136431
 55      -0.000103465230
 56       0.000102914537
 57      -0.000009816332
 58      -0.000013959959
 59      -0.000084643640
 60      -0.000019507318
 61       0.000012785439
 62       0.000027593504
 63       0.000082839944
 64       0.000031484874
 65       0.000022989761
 66       0.000026638214
 67      -0.000012424860
 68       0.000128009475
 69       0.004848759357
 70       0.000005732581
 71       0.000189311611
 72       0.000092395963
 73      -0.000069392990
 74       0.000202220059
 75      -0.000170867890
 76       0.001094265461
 77      -0.002526063443
 78      -0.128659351473
 79      -0.881045314512
 80      -0.434442519808
 81      -0.003098934867
 82      -0.021174496151
 83      -0.010442943661
 84       0.000839872196
 85       0.005536624785
 86       0.002739825190
 87      -0.000604390254
 88      -0.003459471971
 89      -0.001745119206
 90       0.000012842867
 91      -0.000008782316
 92      -0.000044268935
 93       0.000041504292
 94      -0.000017478250
 95      -0.000039025768
 96       0.000028807701
 97       0.000138415226
 98      -0.000127835746
 99       0.000057067732
100       0.000094988493
101      -0.000070694131
102      -0.000339762727
103       0.000313046510
104      -0.000139085675
 Sym=     1a
 Ene= -5.62718037438802E+01
 Spin= Alpha
 Occup= 1.000000
  1       0.000006213986
  2      -0.000061508763
  3       0.000254236337
  4       0.000013285000
  5       0.000025424784
  6       0.000000355698
  7      -0.000033222844
  8      -0.000234221694
  9       0.000351391599
 10       0.000005623567
 11      -0.000001648805
 12      -0.000003503680
 13       0.000004363497
 14       0.000010919415
 15       0.000001790292
 16      -0.000014765495
 17      -0.000462696893
 18       0.000007440285
 19      -0.000004719785
 20       0.000007496229
 21      -0.000027592436
 22      -0.000005478656
 23       0.000188568650
 24      -0.000003423335
 25      -0.000004111424
 26      -0.000004788606
 27      -0.000005288726
 28       0.000001910335
 29       0.000022102007
 30       0.000080455618
 31      -0.000009391943
 32       0.000019153016
 33      -0.000001476611
 34       0.000016368516
 35       0.000033847673
 36       0.000000418849
 37      -0.000002791204
 38      -0.000010174318
 39      -0.000002995915
 40       0.000020809096
 41      -0.000003183380
 42      -0.000004081043
 43      -0.000009016041
 44      -0.000003224842
 45       0.000076490501
 46      -0.000417193525
 47      -0.000041823875
 48      -0.000024725019
 49       0.000001192271
 50       0.000334160230
 51       0.000378447296
 52      -0.000022724376
 53       0.000003916590
 54       0.000022777997
 55      -0.000022989532
 56       0.000002888818
 57       0.000011639626
 58       0.000151801485
 59       0.000030274098
 60      -0.000009782613
 61      -0.000017768533
 62      -0.000010791307
 63      -0.000042684853
 64      -0.000058133036
 65      -0.000034381631
 66      -0.000004443042
 67      -0.000011305545
 68       0.000029225399
 69       0.000649314661
 70       0.000042428909
 71       0.000009683687
 72      -0.000004409853
 73      -0.000001408602
 74       0.000003623625
 75      -0.000011620791
 76       0.000089693169
 77      -0.000260433997
 78      -0.947245573160
 79      -0.004864275171
 80       0.290397714846
 81      -0.022626013794
 82      -0.000121323246
 83       0.006932820582
 84       0.005489831304
 85       0.000055692199
 86      -0.001664748395
 87      -0.002069358667
 88      -0.000160583913
 89       0.000544150541
 90       0.000004431183
 91      -0.000006877692
 92       0.000001561393
 93       0.000000238428
 94      -0.000015076939
 95      -0.000007278200
 96       0.000010285051
 97       0.000005550744
 98      -0.000006924247
 99       0.000020920866
100       0.000015178203
101      -0.000019143779
102      -0.000021352537
103       0.000022590953
104      -0.000037914517
 Sym=     1a
 Ene= -5.62717927307881E+01
 Spin= Alpha
 Occup= 1.000000
  1      -0.000008104760
  2       0.000071832463
  3       0.000033318088
  4      -0.000013025054
  5      -0.000023049286
  6      -0.000028405618
  7      -0.000088747791
  8       0.000020508290
  9       0.000215429988
 10      -0.000007427062
 11       0.000001064925
 12       0.000002791903
 13       0.000000142162
 14      -0.000003446813
 15       0.000000926115
 16      -0.000025942247
 17      -0.000127759308
 18       0.000008519355
 19      -0.000009498611
 20       0.000005592326
 21      -0.000073177853
 22      -0.000029682630
 23       0.000005118741
 24       0.000004768904
 25      -0.000002499691
 26       0.000003878385
 27       0.000003812045
 28       0.000001870799
 29       0.000036856291
 30       0.000080597886
 31      -0.000005327446
 32      -0.000012467039
 33      -0.000009827116
 34       0.000017366235
 35       0.000056134565
 36      -0.000003458447
 37       0.000000710897
 38      -0.000002939207
 39      -0.000009243693
 40      -0.000015898400
 41      -0.000001188839
 42      -0.000000982346
 43       0.000001787416
 44      -0.000002383454
 45       0.000006175431
 46       0.000177437062
 47       0.000015789780
 48      -0.000011759040
 49       0.000047512524
 50       0.000005164277
 51       0.000008828516
 52      -0.000404190044
 53      -0.000000883228
 54      -0.000000456613
 55      -0.000018756519
 56      -0.000029366164
 57      -0.000003059840
 58       0.000056814274
 59       0.000050907293
 60       0.000023990103
 61      -0.000009382231
 62       0.000030711615
 63      -0.000140219648
 64      -0.000056623550
 65       0.000007613147
 66       0.000015305637
 67       0.000004158059
 68      -0.000025005494
 69      -0.000271308896
 70      -0.000014625678
 71       0.000012601856
 72      -0.000042816296
 73       0.000000240808
 74      -0.000000397722
 75       0.000006088118
 76      -0.000042077994
 77       0.000112696839
 78       0.260381488199
 79      -0.453090783112
 80       0.841748006334
 81       0.006220014123
 82      -0.010818520516
 83       0.020105282794
 84      -0.001511108052
 85       0.002606292520
 86      -0.004875982148
 87       0.000574180011
 88      -0.000905135360
 89       0.001837538740
 90       0.000009851847
 91       0.000004114978
 92       0.000009966538
 93       0.000006101784
 94       0.000003214754
 95      -0.000010115587
 96      -0.000005622154
 97      -0.000014046317
 98      -0.000004006134
 99      -0.000004955840
100       0.000014017893
101       0.000009754888
102       0.000026609653
103       0.000001194095
104       0.000009619019
 Sym=     1a
 Ene= -1.02223820624667E+01
 Spin= Alpha
 Occup= 1.000000
  1      -0.031671573157
  2      -0.000412069157
  3      -0.004265969174
  4      -0.001322953342
  5       0.000377141627
  6      -0.000977767493
  7      -0.000487849651
  8      -0.001580638134
  9       0.005017919441
 10      -0.000009707231
 11       0.001301263201
 12      -0.000132352052
 13       0.001053781781
 14      -0.000110668451
 15      -0.003681008914
 16       0.000194200122
 17      -0.005546903374
 18      -0.000261047892
 19       0.000012280725
 20       0.000016095116
 21       0.004633197439
 22      -0.000273900569
 23       0.003021567961
 24      -0.000144685068
 25       0.000027018863
 26       0.000110678165
 27      -0.000234049464
 28      -0.000125016213
 29       0.000547913403
 30       0.001191776212
 31       0.000257548216
 32       0.000068201470
 33       0.000183604882
 34      -0.000742155585
 35      -0.001875799586
 36       0.000046430270
 37       0.000004581711
 38       0.000009461706
 39       0.000886776408
 40       0.001774726451
 41       0.000013801778
 42       0.000072440414
 43      -0.000147615771
 44      -0.987181130856
 45      -0.053684448681
 46       0.055458424600
 47       0.000659392224
 48       0.000796461390
 49       0.000813645889
 50       0.002002603958
 51      -0.006973722098
 52      -0.003081177416
 53      -0.000307718847
 54       0.000456212932
 55       0.000586422838
 56      -0.000211790511
 57       0.000072626814
 58       0.002801735948
 59      -0.007424775770
 60       0.002268875746
 61       0.000121174337
 62      -0.001616608649
 63       0.002715476853
 64      -0.007962907622
 65      -0.000242491663
 66      -0.001676057503
 67       0.002281249966
 68       0.001885626281
 69      -0.024986334947
 70      -0.000004078763
 71       0.002388035872
 72       0.001034695575
 73       0.000009368158
 74      -0.000015747717
 75       0.000166620632
 76      -0.002076437645
 77       0.008064258762
 78      -0.000003330081
 79      -0.000006758815
 80       0.000001360243
 81       0.000012641055
 82       0.000027762464
 83      -0.000002195467
 84      -0.000124902772
 85      -0.000397216623
 86      -0.000133556432
 87       0.000996263111
 88       0.004384448401
 89       0.002136181018
 90      -0.000019611612
 91       0.000015552068
 92       0.000050198518
 93      -0.000048299708
 94       0.000032889160
 95       0.000093111561
 96      -0.000073561762
 97      -0.000243411208
 98       0.000233602778
 99      -0.000154962126
100      -0.000282692723
101       0.000217959424
102       0.000800717002
103      -0.000762101883
104       0.000451947596
 Sym=     1a
 Ene= -1.02190761864992E+01
 Spin= Alpha
 Occup= 1.000000
  1      -0.985463649031
  2      -0.047716844341
  3       0.042326619050
  4      -0.000482394254
  5       0.000330308498
  6       0.000381395418
  7      -0.004412777134
  8      -0.002350598602
  9       0.004882207027
 10      -0.000995987079
 11       0.000315760620
 12       0.000954584242
 13      -0.001611468121
 14      -0.000701731195
 15      -0.067558084647
 16       0.001446313499
 17      -0.016798641241
 18      -0.000159621706
 19       0.000824517206
 20      -0.002603424340
 21       0.002750472626
 22      -0.001241528204
 23       0.005271301553
 24       0.001032987415
 25       0.000042591732
 26      -0.000717226764
 27       0.000217533365
 28       0.000061234136
 29       0.004702157454
 30      -0.006207368624
 31      -0.002540196607
 32      -0.000559457654
 33       0.001336720597
 34      -0.000273867059
 35      -0.000237947508
 36       0.000146209420
 37      -0.000078961965
 38       0.000353342010
 39       0.000414802555
 40       0.001395641193
 41      -0.000100276494
 42      -0.000124352233
 43       0.000385300411
 44       0.031214592655
 45       0.001982777503
 46      -0.000291995343
 47       0.001647800153
 48       0.000458994402
 49       0.001324917143
 50      -0.001005775070
 51      -0.005003965953
 52      -0.006159245422
 53      -0.000185934392
 54       0.001222440401
 55       0.000067037766
 56       0.001047182354
 57       0.000119844331
 58      -0.000178267367
 59       0.001407700694
 60      -0.000381583307
 61       0.000198947564
 62      -0.000079297554
 63      -0.000796020899
 64      -0.000020796041
 65      -0.000322303745
 66       0.000327133878
 67      -0.000034039420
 68      -0.000227351008
 69      -0.014770707488
 70      -0.000508824330
 71      -0.000207906576
 72      -0.000352051779
 73       0.000009204656
 74      -0.000016860629
 75       0.000158693933
 76      -0.001702437764
 77       0.005730284228
 78       0.000009092050
 79      -0.000024435169
 80      -0.000001299971
 81      -0.000030323515
 82       0.000085448998
 83       0.000005725402
 84       0.000085766702
 85      -0.000533348835
 86      -0.000119541326
 87       0.000385502738
 88       0.003457816209
 89       0.001550247137
 90      -0.000014114960
 91      -0.000000531806
 92       0.000041459891
 93      -0.000045294014
 94       0.000014508583
 95       0.000066268333
 96      -0.000000937983
 97      -0.000198294837
 98       0.000213674715
 99      -0.000070167235
100      -0.000203426626
101       0.000048899303
102       0.000655311166
103      -0.000668139860
104       0.000240244718
 Sym=     1a
 Ene= -1.02144715286265E+01
 Spin= Alpha
 Occup= 1.000000
  1       0.066724727988
  2       0.007444070168
  3      -0.012189883686
  4       0.000406799935
  5      -0.000734264789
  6       0.002633604527
  7       0.000638392785
  8      -0.000466767837
  9       0.002281257991
 10       0.001347210846
 11       0.000004968584
 12      -0.000913733745
 13       0.000418167083
 14       0.000132893870
 15      -0.985813288597
 16      -0.048550040309
 17       0.030395589155
 18       0.000044177361
 19       0.000118426114
 20      -0.000263974290
 21      -0.000958173037
 22      -0.000242804908
 23      -0.000069035352
 24      -0.001089929749
 25      -0.000202876155
 26       0.001332286889
 27      -0.002099426510
 28      -0.000508499426
 29      -0.000293279926
 30       0.001746920199
 31       0.000296402868
 32       0.000279585930
 33      -0.000845471468
 34       0.004648739763
 35      -0.006851828850
 36      -0.002703474361
 37       0.000122159596
 38      -0.001403460182
 39       0.004185863712
 40      -0.007438341635
 41       0.002563469443
 42       0.000765398055
 43      -0.001402523902
 44       0.001651667394
 45      -0.000376464635
 46       0.005254055836
 47      -0.000314896104
 48       0.000008727065
 49      -0.000009550311
 50       0.002842365144
 51       0.000168596283
 52      -0.002363970240
 53      -0.000191466596
 54      -0.000211612305
 55       0.000072654496
 56      -0.000201392016
 57       0.000070060762
 58       0.000473252960
 59       0.001238186796
 60       0.000019646747
 61      -0.000103204017
 62      -0.000049615951
 63      -0.000696649829
 64      -0.001063539533
 65      -0.000074587339
 66       0.000097906293
 67       0.000139919717
 68       0.000070408137
 69      -0.002879290556
 70      -0.000049527988
 71      -0.000155604262
 72       0.000232549306
 73       0.000002757381
 74      -0.000005250807
 75       0.000046842423
 76      -0.000404779242
 77       0.001174755497
 78      -0.000000258747
 79      -0.000006584764
 80      -0.000004730660
 81       0.000001021830
 82       0.000022860389
 83       0.000016456688
 84      -0.000012277510
 85      -0.000127285033
 86      -0.000092037195
 87       0.000115273681
 88       0.000673580816
 89       0.000421163992
 90      -0.000000203595
 91       0.000002452338
 92       0.000013071622
 93      -0.000006129183
 94       0.000002677195
 95       0.000001185135
 96      -0.000011466536
 97      -0.000060647763
 98       0.000029366228
 99      -0.000012646994
100      -0.000008100321
101       0.000033560995
102       0.000172680872
103      -0.000096851709
104       0.000039874367
 Sym=     1a
 Ene= -8.66081283437203E+00
 Spin= Alpha
 Occup= 1.000000
  1       0.000032286434
  2      -0.000414326461
  3       0.000883229884
  4       0.000040195630
  5       0.000069322803
  6       0.000026572069
  7       0.000104135738
  8      -0.000351612863
  9       0.000755016088
 10      -0.000012239090
 11       0.000010772881
 12       0.000012327948
 13      -0.000011770728
 14      -0.000025156295
 15       0.000010283436
 16      -0.000062007032
 17      -0.001018603355
 18       0.000005222478
 19       0.000016714639
 20       0.000015991737
 21       0.000020164845
 22      -0.000160411060
 23       0.000502600897
 24       0.000000438646
 25      -0.000008910020
 26      -0.000004986842
 27      -0.000021762102
 28      -0.000002764588
 29      -0.000033472862
 30       0.000017960486
 31      -0.000011740179
 32       0.000007501006
 33      -0.000001853730
 34       0.000015660222
 35      -0.000023627660
 36       0.000004238622
 37       0.000010599113
 38      -0.000013933097
 39      -0.000016854746
 40       0.000009941676
 41      -0.000002751325
 42       0.000000162321
 43      -0.000005747482
 44       0.000018562843
 45      -0.000687365907
 46       0.006729113208
 47      -0.000054894580
 48      -0.000102162912
 49      -0.000050501510
 50       0.000361820599
 51      -0.002356201002
 52      -0.001437655164
 53      -0.000048284207
 54       0.000030459187
 55       0.000170222698
 56      -0.000165735076
 57       0.000017497002
 58      -0.000022479528
 59      -0.000012655479
 60       0.000022831892
 61       0.000004232755
 62      -0.000033874884
 63      -0.000204933844
 64      -0.000218856588
 65      -0.000044157708
 66      -0.000016974133
 67       0.000026396084
 68       0.000064707987
 69      -0.009956235252
 70      -0.000030141399
 71      -0.000429440651
 72      -0.000214059138
 73      -0.136664958763
 74       0.516890341612
 75      -1.093471795710
 76      -0.032432095500
 77       0.014503121441
 78       0.000074607644
 79       0.000472143109
 80       0.000228668660
 81      -0.000168389714
 82      -0.001088446374
 83      -0.000525374328
 84      -0.000194013797
 85      -0.000886602175
 86      -0.000456827472
 87       0.000642733873
 88       0.003042750428
 89       0.001576696840
 90       0.000303476493
 91      -0.000129199271
 92      -0.000924092476
 93       0.000928751937
 94      -0.000266279636
 95       0.000261806969
 96      -0.000131982424
 97      -0.000814068938
 98       0.000802935754
 99      -0.000264699499
100      -0.000170514702
101       0.000125521708
102       0.000589031521
103      -0.000545880748
104       0.000243216340
 Sym=     1a
 Ene= -6.49704123822712E+00
 Spin= Alpha
 Occup= 1.000000
  1       0.000015781799
  2      -0.000241095738
  3       0.000595383331
  4       0.000022153890
  5       0.000040064013
  6       0.000014912797
  7      -0.000047751620
  8      -0.000230107528
  9       0.000290964738
 10      -0.000004724836
 11       0.000008612631
 12       0.000010622790
 13      -0.000004910457
 14      -0.000006628674
 15       0.000006060551