
                                 *****************
                                 * O   R   C   A *
                                 *****************

                                            #,                                       
                                            ###                                      
                                            ####                                     
                                            #####                                    
                                            ######                                   
                                           ########,                                 
                                     ,,################,,,,,                         
                               ,,#################################,,                 
                          ,,##########################################,,             
                       ,#########################################, ''#####,          
                    ,#############################################,,   '####,        
                  ,##################################################,,,,####,       
                ,###########''''           ''''###############################       
              ,#####''   ,,,,##########,,,,          '''####'''          '####       
            ,##' ,,,,###########################,,,                        '##       
           ' ,,###''''                  '''############,,,                           
         ,,##''                                '''############,,,,        ,,,,,,###''
      ,#''                                            '''#######################'''  
     '                                                          ''''####''''         
             ,#######,   #######,   ,#######,      ##                                
            ,#'     '#,  ##    ##  ,#'     '#,    #''#        ,####,    ,#,          
            ##       ##  ##   ,#'  ##            #'  '#       #'       ,# #          
            ##       ##  #######   ##           ,######,      #####,      #          
            '#,     ,#'  ##    ##  '#,     ,#' ,#      #,     #,   #      #          
             '#######'   ##     ##  '#######'  #'      '#     '####' #    #          



                #########################################################
                #                        -***-                          #
                #          Department of theory and spectroscopy        #
                #                                                       #
                #                      Frank Neese                      #
                #                                                       #
                #     Directorship, Architecture, Infrastructure        #
                #                    SHARK, DRIVERS                     #
                #        Core code/Algorithms in most modules           #
                #                                                       #
                #        Max Planck Institute fuer Kohlenforschung      #
                #                Kaiser Wilhelm Platz 1                 #
                #                 D-45470 Muelheim/Ruhr                 #
                #                      Germany                          #
                #                                                       #
                #                  All rights reserved                  #
                #                        -***-                          #
                #########################################################


                         Program Version 6.1.0  -  RELEASE   -
                                (GIT: $679e74b$)
                          ($2025-06-10 18:02:51 +0200$)


 With contributions from (in alphabetic order):
[Max-Planck-Institut fuer Kohlenforschung]                               
  Daniel Aravena         : Magnetic Suceptibility                        
  Michael Atanasov       : Ab Initio Ligand Field Theory (pilot matlab implementation)
  Alexander A. Auer      : GIAO ZORA, VPT2 properties, NMR spectrum      
  Ute Becker             : All parallelization in ORCA, NUMFREQ, NUMCALC 
  Giovanni Bistoni       : ED, misc. LED, open-shell LED, HFLD           
  Dmytro Bykov           : pre 5.0 version of the SCF Hessian            
  Marcos Casanova-Páez   : Triplet and SCS-CIS(D). UHF-(DLPNO)-IP/EA/STEOM-CCSD. UHF-CVS-IP/STEOM-CCSD   
  Vijay G. Chilkuri      : MRCI spin determinant printing, contributions to CSF-ICE 
  Pauline Colinet        : FMM embedding                                 
  Dipayan Datta          : RHF DLPNO-CCSD density                        
  Achintya Kumar Dutta   : EOM-CC, STEOM-CC                              
  Nicolas Foglia         : Exact transition moments, OPA infrastructure, MCD improvements    
  Dmitry Ganyushin       : Spin-Orbit,Spin-Spin,Magnetic field MRCI      
  Miquel Garcia-Rates    : C-PCM and meta-GGA Hessian, CCSD/C-PCM, Gaussian charge scheme 
  Tiago L. C. Gouveia    : GS-ROHF, GS-ROCIS                             
  Yang Guo               : DLPNO-NEVPT2, F12-NEVPT2, CIM, IAO-localization        
  Andreas Hansen         : Spin unrestricted coupled pair/coupled cluster methods 
  Ingolf Harden          : AUTO-CI MPn and infrastructure                
  Benjamin Helmich-Paris : MC-RPA, TRAH-(SCF,CASSCF), AVAS, COSX integrals, SCF dyn. polar., MC-PDFT, srDFT 
  Lee Huntington         : MR-EOM, pCC                                   
  Robert Izsak           : Overlap fitted RIJCOSX, COSX-SCS-MP3, EOM     
  Riya Kayal             : Wick's Theorem for AUTO-CI, AUTO-CI UHF-CCSDT 
  Emily Kempfer          : AUTO-CI RHF CISDT and CCSDT, approximate NEVPT4
  Christian Kollmar      : KDIIS, OOCD, Brueckner-CCSD(T), CCSD density, CASPT2, CASPT2-K, improved NEVPT2 
  Axel Koslowski         : Symmetry handling                             
  Simone Kossmann        : meta-GGA functionals, TD-DFT gradient, OOMP2, (MP2 Hessian; deprecated post 5.0) 
  Lucas Lang             : DCDCAS, Hyperfine gauge corrections, ICE-SOC+SSC
  Marvin Lechner         : AUTO-CI (C++ implementation), FIC-MRCC        
  Spencer Leger          : CASSCF response                               
  Dagmar Lenk            : GEPOL surface, SMD, ORCA-2-JSON               
  Dimitrios Liakos       : Extrapolation schemes; Compound Job, Property file
  Dimitrios Manganas     : Further ROCIS development; embedding schemes. LFT, Crystal Embedding 
  Dimitrios Pantazis     : SARC Basis sets                               
  Anastasios Papadopoulos: AUTO-CI, single reference methods and gradients 
  Taras Petrenko         : pre 6.0 DFT Hessian and TD-DFT gradient,  ECA, NRVS 
  Petra Pikulova         : Analytic Raman intensities                    
  Peter Pinski           : DLPNO-MP2, DLPNO-MP2 Gradient                 
  Shashank Vittal Rao    : ES-AILFT, MagRelax                            
  Christoph Reimann      : Effective Core Potentials                     
  Marius Retegan         : Local ZFS, SOC                                
  Christoph Riplinger    : Optimizer, TS searches, QM/MM, DLPNO-CCSD(T), (RO)-DLPNO pert. Triples 
  Michael Roemelt        : Original ROCIS implementation, recursive CI coupling coefficients
  Masaaki Saitow         : Open-shell DLPNO-CCSD energy and density      
  Barbara Sandhoefer     : DKH picture change effects                    
  Yorick L. A. Schmerwitz: GMF and freeze-and-release deltaSCF, NEB S-IDPP initial path                    
  Kantharuban Sivalingam : CASSCF convergence/infrastructure, NEVPT2, NEVPT3, NEVPT4(SD), FIC-MRCI and CEPA variants
  Bernardo de Souza      : ESD, SOC TD-DFT                               
  Georgi L. Stoychev     : AutoAux, RI-MP2 NMR, DLPNO-MP2 response, X2C  
  Van Anh Tran           : RI-MP2 g-tensors                              
  Willem Van den Heuvel  : Paramagnetic NMR                              
  Zikuan Wang            : NOTCH, Electric field optimization            
  Frank Wennmohs         : Technical directorship and infrastructure     
  Hang Xu                : AUTO-CI-Response properties                   
                                                                         
[FACCTs GmbH]                                                            
  Markus Bursch, Nicolas Foglia, Miquel Garcia-Rates, Ingolf Harden, Hagen Neugebauer, Anastasios Papadopoulos, 
  Christoph Riplinger, Bernardo de Souza, Georgi L. Stoychev                                                    
                                                                 
  APM, various basis sets, CI-OPT, improved COSX, DLPNO-Multilevel,           
  DOCKER, DRACO, updates on ESD, Fragmentator, GOAT, IRC, LR-CPCM, L-BFGS, MBIS, meta-GGA TD-DFT gradient, ML-optimized integration grids, 
  MM, NACMEs, nearIR, NEB, NEB-TS, NL-DFT gradient (VV10), 2- and 3-layer-ONIOM, interface openCOSMO-RS, QMMM,   
  Crystal-QMMM, RESP, rigid body optimization, SF, symmetry and pop. for TD-DFT, various functionals, SOLVATOR                                   
                                                                         
[Other institutions]                                                     
  V. Asgeirsson          : NEB                                           
  Christoph Bannwarth    : sTDA-DFT, sTD-DFT, PBEh-3c, B97-3c, D3        
  Giovanni Bistoni       : ETS/NOCV, ADLD/ADEX, COVALED                  
  Martin Brehm           : Molecular dynamics                            
  Ronald Cardenas        : ETS/NOCV                                      
  Martina Colucci        : COVALED                                       
  Sebastian Ehlert       : rSCAN, r2SCAN, r2SCAN-3c, D4, dhf basis sets  
  Marvin Friede          : D4 for Fr, Ra, Ac-Lr                          
  Lars Goerigk           : TD-DFT with DH, B97 family of functionals     
  Stefan Grimme          : VdW corrections, initial TS optimization, DFT functionals, gCP, sTDA/sTD-DF 
  Waldemar Hujo          : DFT-NL                                        
  H. Jonsson             : NEB                                           
  Holger Kruse           : gCP                                           
  Marcel Mueller         : wB97X-3c, vDZP basis set                      
  Hagen Neugebauer       : wr2SCAN, Native XTB                           
  Gianluca Regni         : ADLD/ADEX                                     
  Tobias Risthaus        : pre 6.0 range-separated hybrid DFT and stability analysis
  Lukas Wittmann         : regularized MP2, r2SCAN double-hybrids, wr2SCAN        
                                                                         
We gratefully acknowledge several colleagues who have allowed us to      
interface, adapt or use parts of their codes:                            
  Ed Valeev, F. Pavosevic, A. Kumar             : LibInt (2-el integral package), F12 methods 
  Garnet Chan, S. Sharma, J. Yang, R. Olivares  : DMRG                   
  Ulf Ekstrom                                   : XCFun DFT Library      
  Mihaly Kallay                                 : mrcc  (arbitrary order and MRCC methods)
  Frank Weinhold                                : gennbo (NPA and NBO analysis)           
  Simon Mueller                                 : openCOSMO-RS                            
  Christopher J. Cramer and Donald G. Truhlar   : smd solvation model                     
  S Lehtola, MJT Oliveira, MAL Marques          : LibXC Library                           
  Liviu Ungur et al                             : ANISO software                          


 Your calculation uses the libint2 library for the computation of 2-el integrals
 For citations please refer to: http://libint.valeyev.net

 Your ORCA version has been built with support for libXC version: 7.0.0
 For citations please refer to: https://libxc.gitlab.io

 This ORCA versions uses:
   CBLAS   interface :  Fast vector & matrix operations
   LAPACKE interface :  Fast linear algebra routines
   SCALAPACK package :  Parallel linear algebra routines
   Shared memory     :  Shared parallel matrices
   BLAS/LAPACK       :  OpenBLAS 0.3.29  USE64BITINT DYNAMIC_ARCH NO_AFFINITY Zen SINGLE_THREADED
        Core in use  :  Zen
   Copyright (c) 2011-2014, The OpenBLAS Project


  ***********************************
  * Starting time: Sun Apr  5 14:32:23 2026
  * Host name:     QC1
  * Process ID:    29467
  * Working dir.:  /home/user/QC/radical/allyl/split-ts1_2
  ***********************************

NOTE: MaxCore=1200 MB was set to SCF,MP2,MDCI,CIPSI,MRCI,RASCI and CIS
      => If you want to overwrite this, your respective input block should be placed after the MaxCore statement
Warning: RI is on but no J-basis has been assigned. Assigning Def2/J (nothing to worry about!)
================================================================================

----- Orbital basis set information -----
Your calculation utilizes the basis: def-SVP
   H-Kr: A. Schäfer, H. Horn, R. Ahlrichs; J. Chem. Phys. 97, 2571 (1992)
   Rb-At: K. Eichkorn, F. Weigend, O. Treutler, R. Ahlrichs; Theor. Chem. Acc. 97, 119 (1997)
   Rn: F. Weigend, R. Ahlrichs; Phys. Chem. Chem. Phys. 7, 3297 (2005)
   Fr-Ra: I. S. Lim, P. Schwerdtfeger, B. Metz, H. Stoll, J. Chem. Phys. 122, 104103 (2005)
   Ac-Lr: X. Cao, M. Dolg, J. Molec. Struct. Theochem. 673 (2004)
----- AuxJ basis set information -----
Your calculation utilizes the auxiliary basis: def2/J
   H-Rn: F. Weigend, Phys. Chem. Chem. Phys. 8, 1057 (2006).
   Fr-Lr: K. Eichkorn, F. Weigend, O. Treutler, R. Ahlrichs; Theor. Chem. Acc. 97, 119 (1997).

================================================================================
                                        WARNINGS
                       Please study these warnings very carefully!
================================================================================


WARNING: your system is open-shell and RHF/RKS was chosen
  ===> : WILL SWITCH to UHF/UKS


================================================================================
                                       INPUT FILE
================================================================================
NAME = radical_035.inp
|  1> ! B3LYP def-SVP 
|  2> %maxcore 1200
|  3> %pal nprocs 8 end
|  4> * xyz 0 2
|  5> C    0.62017000   0.49871400   0.19268500
|  6> C    0.70164600   0.04921500   1.50071000
|  7> H    1.55733300   0.72632700  -0.33006000
|  8> H    1.66254000  -0.04995500   2.01025400
|  9> H   -0.20042400  -0.21261700   2.06230500
| 10> C   -0.56941000   0.66901800  -0.51440900
| 11> H   -1.53693900   0.47594900  -0.04042600
| 12> H   -0.57757200   1.08687800  -1.52372700
| 13> H   -0.67999400  -1.08881700  -1.37375800
| 14> Br  -0.98647600  -2.33227900  -2.06930200
| 15> *
| 16> 
| 17>                          ****END OF INPUT****
================================================================================

                       ****************************
                       * Single Point Calculation *
                       ****************************

---------------------------------
CARTESIAN COORDINATES (ANGSTROEM)
---------------------------------
  C      0.620170    0.498714    0.192685
  C      0.701646    0.049215    1.500710
  H      1.557333    0.726327   -0.330060
  H      1.662540   -0.049955    2.010254
  H     -0.200424   -0.212617    2.062305
  C     -0.569410    0.669018   -0.514409
  H     -1.536939    0.475949   -0.040426
  H     -0.577572    1.086878   -1.523727
  H     -0.679994   -1.088817   -1.373758
  Br    -0.986476   -2.332279   -2.069302

----------------------------
CARTESIAN COORDINATES (A.U.)
----------------------------
  NO LB      ZA    FRAG     MASS         X           Y           Z
   0 C     6.0000    0    12.011    1.171951    0.942433    0.364122
   1 C     6.0000    0    12.011    1.325919    0.093003    2.835931
   2 H     1.0000    0     1.008    2.942933    1.372559   -0.623723
   3 H     1.0000    0     1.008    3.141745   -0.094401    3.798830
   4 H     1.0000    0     1.008   -0.378746   -0.401788    3.897192
   5 C     6.0000    0    12.011   -1.076029    1.264261   -0.972092
   6 H     1.0000    0     1.008   -2.904394    0.899413   -0.076394
   7 H     1.0000    0     1.008   -1.091453    2.053902   -2.879427
   8 H     1.0000    0     1.008   -1.285002   -2.057566   -2.596026
   9 Br   35.0000    0    79.900   -1.864169   -4.407369   -3.910414

--------------------------------
INTERNAL COORDINATES (ANGSTROEM)
--------------------------------
 C      0   0   0     0.000000000000     0.00000000     0.00000000
 C      1   0   0     1.385502468494     0.00000000     0.00000000
 H      1   2   0     1.096970601868   117.83745666     0.00000000
 H      2   1   3     1.092147909430   121.44370045     1.73940403
 H      2   1   3     1.094383490898   120.90478899   181.29494891
 C      1   2   3     1.394304828096   124.65055079   179.24490725
 H      6   1   2     1.094553739609   120.86437157     1.90234936
 H      6   1   2     1.092426850168   121.44257688   176.08216131
 H      6   1   2     1.959768713926    99.26256069   267.54519504
 Br     9   6   1     1.457364202149   170.55863709   168.17017045

---------------------------
INTERNAL COORDINATES (A.U.)
---------------------------
 C      0   0   0     0.000000000000     0.00000000     0.00000000
 C      1   0   0     2.618220223325     0.00000000     0.00000000
 H      1   2   0     2.072974014494   117.83745666     0.00000000
 H      2   1   3     2.063860446557   121.44370045     1.73940403
 H      2   1   3     2.068085083281   120.90478899   181.29494891
 C      1   2   3     2.634854272306   124.65055079   179.24490725
 H      6   1   2     2.068406806719   120.86437157     1.90234936
 H      6   1   2     2.064387568160   121.44257688   176.08216131
 H      6   1   2     3.703426155147    99.26256069   267.54519504
 Br     9   6   1     2.754019219441   170.55863709   168.17017045

---------------------
BASIS SET INFORMATION
---------------------
There are 3 groups of distinct atoms

 Group   1 Type C   : 7s4p1d contracted to 3s2p1d pattern {511/31/1}
 Group   2 Type H   : 4s1p contracted to 2s1p pattern {31/1}
 Group   3 Type Br  : 14s10p6d contracted to 5s4p3d pattern {63311/5311/411}

Atom   0C    basis set group =>   1
Atom   1C    basis set group =>   1
Atom   2H    basis set group =>   2
Atom   3H    basis set group =>   2
Atom   4H    basis set group =>   2
Atom   5C    basis set group =>   1
Atom   6H    basis set group =>   2
Atom   7H    basis set group =>   2
Atom   8H    basis set group =>   2
Atom   9Br   basis set group =>   3
---------------------------------
AUXILIARY/J BASIS SET INFORMATION
---------------------------------
There are 3 groups of distinct atoms

 Group   1 Type C   : 12s5p4d2f1g contracted to 6s4p3d1f1g pattern {711111/2111/211/2/1}
 Group   2 Type H   : 5s2p1d contracted to 3s1p1d pattern {311/2/1}
 Group   3 Type Br  : 19s5p5d3f1g contracted to 8s4p3d2f1g pattern {121111111/2111/311/21/1}

Atom   0C    basis set group =>   1
Atom   1C    basis set group =>   1
Atom   2H    basis set group =>   2
Atom   3H    basis set group =>   2
Atom   4H    basis set group =>   2
Atom   5C    basis set group =>   1
Atom   6H    basis set group =>   2
Atom   7H    basis set group =>   2
Atom   8H    basis set group =>   2
Atom   9Br   basis set group =>   3


           ************************************************************
           *        Program running with 8 parallel MPI-processes     *
           *              working on a common directory               *
           ************************************************************
------------------------------------------------------------------------------
                             ORCA STARTUP CALCULATIONS
                           -- RI-GTO INTEGRALS CHOSEN --
------------------------------------------------------------------------------
------------------------------------------------------------------------------
                   ___                                                        
                  /   \      - P O W E R E D   B Y -                         
                 /     \                                                     
                 |  |  |   _    _      __       _____    __    __             
                 |  |  |  | |  | |    /  \     |  _  \  |  |  /  |          
                  \  \/   | |  | |   /    \    | | | |  |  | /  /          
                 / \  \   | |__| |  /  /\  \   | |_| |  |  |/  /          
                |  |  |   |  __  | /  /__\  \  |    /   |      \           
                |  |  |   | |  | | |   __   |  |    \   |  |\   \          
                \     /   | |  | | |  |  |  |  | |\  \  |  | \   \       
                 \___/    |_|  |_| |__|  |__|  |_| \__\ |__|  \__/        
                                                                              
                      - O R C A' S   B I G   F R I E N D -                    
                                      &                                       
                       - I N T E G R A L  F E E D E R -                       
                                                                              
 v1 FN, 2020, v2 2021, v3 2022-2024                                           
------------------------------------------------------------------------------


----------------------
SHARK INTEGRAL PACKAGE
----------------------

Number of atoms                             ...     10
Number of basis functions                   ...    104
Number of shells                            ...     48
Maximum angular momentum                    ...      2
Integral batch strategy                     ... SHARK/LIBINT Hybrid
RI-J (if used) integral strategy            ... SPLIT-RIJ (Revised 2003 algorithm where possible)
Printlevel                                  ...      1
Contraction scheme used                     ... SEGMENTED contraction
Prescreening option                         ... SCHWARTZ
   Thresh                                   ... 1.000e-10
   Tcut                                     ... 1.000e-11
   Tpresel                                  ... 1.000e-11 
Coulomb Range Separation                    ... NOT USED
Exchange Range Separation                   ... NOT USED
Multipole approximations                    ... NOT USED
Finite Nucleus Model                        ... NOT USED
CABS basis                                  ... NOT available
Auxiliary Coulomb fitting basis             ... AVAILABLE
   # of basis functions in Aux-J            ...    271
   # of shells in Aux-J                     ...     93
   Maximum angular momentum in Aux-J        ...      4
Auxiliary J/K fitting basis                 ... NOT available
Auxiliary Correlation fitting basis         ... NOT available
Auxiliary 'external' fitting basis          ... NOT available

Checking pre-screening integrals            ... done (  0.0 sec) Dimension = 48
   => SHARK Basis and OBASIS are compatible. Storing Pre-screening
Shell pair information
Shell pair cut-off parameter TPreSel        ...   1.0e-11
Total number of shell pairs                 ...      1176
Shell pairs after pre-screening             ...      1073
Total number of primitive shell pairs       ...      4753
Primitive shell pairs kept                  ...      3245
          la=0 lb=0:    329 shell pairs
          la=1 lb=0:    382 shell pairs
          la=1 lb=1:    124 shell pairs
          la=2 lb=0:    137 shell pairs
          la=2 lb=1:     83 shell pairs
          la=2 lb=2:     18 shell pairs

Checking whether 4 symmetric matrices of dimension 104 fit in memory
:Max Core in MB      =   1200.00
 MB in use           =      4.70
 MB left             =   1195.30
 MB needed           =      0.17
 Data fit in memory  = YES
Calculating RI/J V-Matrix + Cholesky decomp.... done (  0.0 sec)
Calculating Nuclear repulsion               ... done (  0.0 sec) ENN=    189.006246489936 Eh

Diagonalization of the overlap matrix:
Smallest eigenvalue                        ... 2.667e-03
Time for diagonalization                   ...    0.001 sec
Threshold for overlap eigenvalues          ... 1.000e-07
Number of eigenvalues below threshold      ... 0
Time for construction of square roots      ...    0.000 sec
Total time needed                          ...    0.002 sec

-------------------
DFT GRID GENERATION
-------------------

General Integration Accuracy     IntAcc      ... 4.388
Radial Grid Type                 RadialGrid  ... OptM3 with GC (2021)
Angular Grid (max. ang.)         AngularGrid ... 4 (Lebedev-302)
Angular grid pruning method      GridPruning ... 4 (adaptive)
Weight generation scheme         WeightScheme... mBecke (2022)
Basis function cutoff            BFCut       ... 1.0000e-10
Integration weight cutoff        WCut        ... 1.0000e-14
Partially contracted basis set               ... off
Rotationally invariant grid construction     ... off
Angular grids for H and He will be reduced by one unit
Core-polarized basis detected: some atoms will have their core
                               angular grid increased.

Total number of grid points                  ...    49052
Total number of batches                      ...      772
Average number of points per batch           ...       63
Average number of grid points per atom       ...     4905

--------------------
COSX GRID GENERATION
--------------------

GRIDX 1
-------
General Integration Accuracy     IntAcc      ... 3.816
Radial Grid Type                 RadialGrid  ... OptM3 with GC (2021)
Angular Grid (max. ang.)         AngularGrid ... 1 (Lebedev-50)
Angular grid pruning method      GridPruning ... 4 (adaptive)
Weight generation scheme         WeightScheme... mBecke (2022)
Basis function cutoff            BFCut       ... 1.0000e-10
Integration weight cutoff        WCut        ... 1.0000e-14
Partially contracted basis set               ... on
Rotationally invariant grid construction     ... off
Angular grids for H and He will be reduced by one unit
Core-polarized basis detected: some atoms will have their core
                               angular grid increased.

Total number of grid points                  ...    11077
Total number of batches                      ...       91
Average number of points per batch           ...      121
Average number of grid points per atom       ...     1108
UseSFitting                                  ... on

GRIDX 2
-------
General Integration Accuracy     IntAcc      ... 4.020
Radial Grid Type                 RadialGrid  ... OptM3 with GC (2021)
Angular Grid (max. ang.)         AngularGrid ... 2 (Lebedev-110)
Angular grid pruning method      GridPruning ... 4 (adaptive)
Weight generation scheme         WeightScheme... mBecke (2022)
Basis function cutoff            BFCut       ... 1.0000e-10
Integration weight cutoff        WCut        ... 1.0000e-14
Partially contracted basis set               ... on
Rotationally invariant grid construction     ... off
Angular grids for H and He will be reduced by one unit
Core-polarized basis detected: some atoms will have their core
                               angular grid increased.

Total number of grid points                  ...    16414
Total number of batches                      ...      132
Average number of points per batch           ...      124
Average number of grid points per atom       ...     1641
UseSFitting                                  ... on

GRIDX 3
-------
General Integration Accuracy     IntAcc      ... 4.338
Radial Grid Type                 RadialGrid  ... OptM3 with GC (2021)
Angular Grid (max. ang.)         AngularGrid ... 3 (Lebedev-194)
Angular grid pruning method      GridPruning ... 4 (adaptive)
Weight generation scheme         WeightScheme... mBecke (2022)
Basis function cutoff            BFCut       ... 1.0000e-10
Integration weight cutoff        WCut        ... 1.0000e-14
Partially contracted basis set               ... on
Rotationally invariant grid construction     ... off
Angular grids for H and He will be reduced by one unit
Core-polarized basis detected: some atoms will have their core
                               angular grid increased.

Total number of grid points                  ...    28583
Total number of batches                      ...      229
Average number of points per batch           ...      124
Average number of grid points per atom       ...     2858
UseSFitting                                  ... on
Grids setup in   0.4 sec
Initializing property integral containers    ... done (  0.0 sec)

SHARK setup successfully completed in   0.5 seconds

Maximum memory used throughout the entire STARTUP-calculation: 17.5 MB


           ************************************************************
           *        Program running with 8 parallel MPI-processes     *
           *              working on a common directory               *
           ************************************************************
-------------------------------------------------------------------------------
                                 ORCA GUESS
                   Start orbitals & Density for SCF / CASSCF
-------------------------------------------------------------------------------

------------
SCF SETTINGS
------------
Hamiltonian:
 Density Functional     Method          .... DFT(GTOs)
 Exchange Functional    Exchange        .... B88
   X-Alpha parameter    XAlpha          ....  0.666667
   Becke's b parameter  XBeta           ....  0.004200
 Correlation Functional Correlation     .... LYP
 LDA part of GGA corr.  LDAOpt          .... VWN-5
 Gradients option       PostSCFGGA      .... off
 Hybrid DFT is turned on
   Fraction HF Exchange ScalHFX         ....  0.200000
   Scaling of DF-GGA-X  ScalDFX         ....  0.720000
   Scaling of DF-GGA-C  ScalDFC         ....  0.810000
   Scaling of DF-LDA-C  ScalLDAC        ....  1.000000
   Perturbative correction              ....  0.000000
   NL short-range parameter             ....  4.800000
 RI-approximation to the Coulomb term is turned on
   Number of AuxJ basis functions       .... 271
   RIJ-COSX (HFX calculated with COS-X)).... on


General Settings:
 Integral files         IntName         .... radical_035
 Hartree-Fock type      HFTyp           .... UHF
 Total Charge           Charge          ....    0
 Multiplicity           Mult            ....    2
 Number of Electrons    NEL             ....   59
 Basis Dimension        Dim             ....  104
 Nuclear Repulsion      ENuc            ....    189.0062464899 Eh

Convergence Acceleration:
 AO-DIIS                CNVDIIS         .... on
   Start iteration      DIISMaxIt       ....    12
   Startup error        DIISStart       ....  0.200000
   # of expansion vecs  DIISMaxEq       ....     5
   Bias factor          DIISBfac        ....   1.050
   Max. coefficient     DIISMaxC        ....  10.000
 MO-DIIS                CNVKDIIS        .... off
 Trust-Rad. Augm. Hess. CNVTRAH         .... auto
   Auto Start mean grad. ratio tolernc. ....  1.125000
   Auto Start start iteration           ....    50
   Auto Start num. interpolation iter.  ....    10
   Max. Number of Micro iterations      ....    24
   Max. Number of Macro iterations      .... Maxiter - #DIIS iter
   Number of Davidson start vectors     ....     2
   Converg. threshold    (grad. norm)   ....   5.000e-05
   Grad. Scal. Fac. for Micro threshold ....   0.100
   Minimum threshold for Micro iter.    ....   1.000e-02
   NR start threshold (gradient norm)   ....   1.000e-04
   Initial trust radius                 ....   0.400
   Minimum AH scaling param. (alpha)    ....   1.000
   Maximum AH scaling param. (alpha)    .... 1000.000
   Quad. conv. algorithm                .... NR
   White noise on init. David. guess    .... on
   Maximum white noise                  ....   0.010
   Pseudo random numbers                .... off
   Inactive MOs                         .... canonical
   Orbital update algorithm             .... Taylor
   Preconditioner                       .... Diag
   Full preconditioner red. dimension   ....   250
 SOSCF                 CNVSOSCF           .... on
   Start iteration     SOSCFMaxIt         ....   150
   Startup grad/error  SOSCFStart         ....  0.003300
   Hessian update      SOSCFHessUp        .... L-BFGS
   Autom. constraints  SOSCFAutoConstrain .... off
 Level Shifting         CNVShift        .... on
   Level shift para.    LevelShift      ....    0.2500
   Turn off err/grad.   ShiftErr        ....    0.0010
 Zerner damping         CNVZerner       .... off
 Static damping         CNVDamp         .... on
   Fraction old density DampFac         ....    0.7000
   Max. Damping (<1)    DampMax         ....    0.9800
   Min. Damping (>=0)   DampMin         ....    0.0000
   Turn off err/grad.   DampErr         ....    0.1000

SCF Procedure:
 Maximum # iterations   MaxIter         ....   125
 SCF integral mode      SCFMode         .... Direct
   Integral package                     .... SHARK and LIBINT hybrid scheme
 Reset frequency        DirectResetFreq ....    20
 Integral Threshold     Thresh          ....  1.000e-10 Eh
 Primitive CutOff       TCut            ....  1.000e-11 Eh

Convergence Tolerance:
 Convergence Check Mode ConvCheckMode   .... Total+1el-Energy
 Convergence forced     ConvForced      .... 0
 Energy Change          TolE            ....  1.000e-06 Eh
 1-El. energy change                    ....  1.000e-03 Eh
 Orbital Gradient       TolG            ....  5.000e-05
 Orbital Rotation angle TolX            ....  5.000e-05
 DIIS Error             TolErr          ....  1.000e-06

------------------------------
INITIAL GUESS: MODEL POTENTIAL
------------------------------
Loading Hartree-Fock densities                     ... done
Calculating cut-offs                               ... done
Initializing the effective Hamiltonian             ... done
Setting up the integral package (SHARK)            ... done
Starting the Coulomb interaction                   ... done (   0.0 sec)
Making the grid                                    ... done (   0.1 sec)
Mapping shells                                     ... done
Starting the XC term evaluation                    ... done (   0.0 sec)
  promolecular density results
     # of electrons  =     58.997661151
     EX              =   -106.838482796
     EC              =     -2.447160107
     EX+EC           =   -109.285642903
Transforming the Hamiltonian                       ... done (   0.0 sec)
Diagonalizing the Hamiltonian                      ... done (   0.0 sec)
Back transforming the eigenvectors                 ... done (   0.0 sec)
Now organizing SCF variables                       ... done
                      ------------------
                      INITIAL GUESS DONE (   0.1 sec)
                      ------------------
             **** ENERGY FILE WAS UPDATED (radical_035.en.tmp) ****
Finished Guess after   0.4 sec
Maximum memory used throughout the entire GUESS-calculation: 8.8 MB


           ************************************************************
           *        Program running with 8 parallel MPI-processes     *
           *              working on a common directory               *
           ************************************************************

-------------------------------------------------------------------------------------------
                                      ORCA LEAN-SCF
                              memory conserving SCF solver
-------------------------------------------------------------------------------------------

----------------------------------------D-I-I-S--------------------------------------------
Iteration    Energy (Eh)           Delta-E    RMSDP     MaxDP     DIISErr   Damp  Time(sec)
-------------------------------------------------------------------------------------------
               ***  Starting incremental Fock matrix formation  ***
    1    -2691.3403369594534524     0.00e+00  4.14e-03  3.05e-02  6.89e-02  0.700   0.2
    2    -2691.3773784761351635    -3.70e-02  3.07e-03  2.06e-02  3.86e-02  0.700   0.2
                               ***Turning on AO-DIIS***
    3    -2691.3942422832001284    -1.69e-02  1.39e-03  9.80e-03  1.69e-02  0.700   0.2
    4    -2691.4040338461027204    -9.79e-03  2.75e-03  1.98e-02  1.08e-02  0.000   0.2
    5    -2691.4254638319953301    -2.14e-02  5.25e-04  4.48e-03  3.65e-03  0.000   0.2
                              *** Initializing SOSCF ***
---------------------------------------S-O-S-C-F--------------------------------------
Iteration    Energy (Eh)           Delta-E    RMSDP     MaxDP     MaxGrad    Time(sec)
--------------------------------------------------------------------------------------
    6    -2691.4257317999336010    -2.68e-04  3.64e-04  4.48e-03  2.50e-03     0.2
               *** Restarting incremental Fock matrix formation ***
    7    -2691.4257922923065962    -6.05e-05  3.09e-04  3.32e-03  2.47e-03     0.2
    8    -2691.4258402418540754    -4.79e-05  3.35e-04  4.51e-03  1.65e-03     0.2
    9    -2691.4258536534302948    -1.34e-05  1.24e-04  1.27e-03  1.13e-03     0.2
   10    -2691.4258595526630415    -5.90e-06  2.72e-05  2.17e-04  8.04e-05     0.2
   11    -2691.4258595309233897     2.17e-08  1.46e-05  1.27e-04  1.11e-04     0.2
                 **** Energy Check signals convergence ****

               *****************************************************
               *                     SUCCESS                       *
               *           SCF CONVERGED AFTER  11 CYCLES          *
               *****************************************************

Recomputing exchange energy using gridx3       ... done (    0.246 sec)
Old exchange energy                            :    -21.430220713 Eh
New exchange energy                            :    -21.430223388 Eh
Exchange energy change after final integration :     -0.000002674 Eh
Total energy after final integration           :  -2691.425862387 Eh
             **** ENERGY FILE WAS UPDATED (radical_035.en.tmp) ****

----------------
TOTAL SCF ENERGY
----------------

Total Energy       :      -2691.42586238708054 Eh          -73237.42103 eV

Components:
Nuclear Repulsion  :        189.00624648993573 Eh            5143.12144 eV
Electronic Energy  :      -2880.43210620280979 Eh          -78380.54240 eV
One Electron Energy:      -4115.20618778909920 Eh         -111980.45335 eV
Two Electron Energy:       1234.77408158628941 Eh           33599.91095 eV

Virial components:
Potential Energy   :      -5378.49855955987550 Eh         -146356.38642 eV
Kinetic Energy     :       2687.07269717279542 Eh           73118.96539 eV
Virial Ratio       :          2.00162003998584

DFT components:
N(Alpha)           :       29.999986529915 electrons
N(Beta)            :       28.999985035705 electrons
N(Total)           :       58.999971565619 electrons
E(X)               :      -85.241956125981 Eh       
E(C)               :       -2.870035497238 Eh       
E(XC)              :      -88.111991623220 Eh       

---------------
SCF CONVERGENCE
---------------

  Last Energy change         ...   -2.1740e-08  Tolerance :   1.0000e-06
  Last MAX-Density change    ...    1.2740e-04  Tolerance :   1.0000e-05
  Last RMS-Density change    ...    1.4580e-05  Tolerance :   1.0000e-06
  Last DIIS Error            ...    2.4956e-03  Tolerance :   1.0000e-06
  Last Orbital Gradient      ...    1.1140e-04  Tolerance :   5.0000e-05
  Last Orbital Rotation      ...    2.5008e-04  Tolerance :   5.0000e-05


----------------------
UHF SPIN CONTAMINATION
----------------------

Warning: in a DFT calculation there is little theoretical justification to 
         calculate <S**2> as in Hartree-Fock theory. We will do it anyways
         but you should keep in mind that the values have only limited relevance

Expectation value of <S**2>     :     0.778654
Ideal value S*(S+1) for S=0.5   :     0.750000
Deviation                       :     0.028654

----------------
ORBITAL ENERGIES
----------------
                 SPIN UP ORBITALS
  NO   OCC          E(Eh)            E(eV) 
   0   1.0000    -482.767960    -13136.7840 
   1   1.0000     -62.451044     -1699.3793 
   2   1.0000     -56.282804     -1531.5330 
   3   1.0000     -56.280639     -1531.4741 
   4   1.0000     -56.280618     -1531.4735 
   5   1.0000     -10.214586      -277.9530 
   6   1.0000     -10.213130      -277.9134 
   7   1.0000     -10.212729      -277.9025 
   8   1.0000      -8.668978      -235.8949 
   9   1.0000      -6.501778      -176.9224 
  10   1.0000      -6.489941      -176.6003 
  11   1.0000      -6.489905      -176.5993 
  12   1.0000      -2.616206       -71.1906 
  13   1.0000      -2.612703       -71.0953 
  14   1.0000      -2.612669       -71.0943 
  15   1.0000      -2.603287       -70.8390 
  16   1.0000      -2.603283       -70.8389 
  17   1.0000      -0.805451       -21.9174 
  18   1.0000      -0.762240       -20.7416 
  19   1.0000      -0.691896       -18.8274 
  20   1.0000      -0.568077       -15.4582 
  21   1.0000      -0.494378       -13.4527 
  22   1.0000      -0.454179       -12.3588 
  23   1.0000      -0.424643       -11.5551 
  24   1.0000      -0.403015       -10.9666 
  25   1.0000      -0.377133       -10.2623 
  26   1.0000      -0.335688        -9.1345 
  27   1.0000      -0.278080        -7.5669 
  28   1.0000      -0.277915        -7.5625 
  29   1.0000      -0.220855        -6.0098 
  30   0.0000       0.005446         0.1482 
  31   0.0000       0.061589         1.6759 
  32   0.0000       0.073926         2.0116 
  33   0.0000       0.081362         2.2140 
  34   0.0000       0.098315         2.6753 
  35   0.0000       0.143292         3.8992 
  36   0.0000       0.145891         3.9699 
  37   0.0000       0.263649         7.1742 
  38   0.0000       0.309025         8.4090 
  39   0.0000       0.337450         9.1825 
  40   0.0000       0.371814        10.1176 

                 SPIN DOWN ORBITALS
  NO   OCC          E(Eh)            E(eV) 
   0   1.0000    -482.767766    -13136.7788 
   1   1.0000     -62.450942     -1699.3765 
   2   1.0000     -56.282408     -1531.5222 
   3   1.0000     -56.280563     -1531.4720 
   4   1.0000     -56.280541     -1531.4714 
   5   1.0000     -10.216334      -278.0006 
   6   1.0000     -10.205771      -277.7132 
   7   1.0000     -10.203806      -277.6597 
   8   1.0000      -8.668690      -235.8870 
   9   1.0000      -6.501012      -176.9015 
  10   1.0000      -6.489807      -176.5966 
  11   1.0000      -6.489771      -176.5956 
  12   1.0000      -2.615669       -71.1760 
  13   1.0000      -2.612273       -71.0836 
  14   1.0000      -2.612240       -71.0827 
  15   1.0000      -2.603209       -70.8369 
  16   1.0000      -2.603205       -70.8368 
  17   1.0000      -0.795293       -21.6410 
  18   1.0000      -0.759481       -20.6665 
  19   1.0000      -0.668405       -18.1882 
  20   1.0000      -0.561560       -15.2808 
  21   1.0000      -0.489546       -13.3212 
  22   1.0000      -0.448357       -12.2004 
  23   1.0000      -0.417038       -11.3482 
  24   1.0000      -0.397205       -10.8085 
  25   1.0000      -0.374528       -10.1914 
  26   1.0000      -0.308315        -8.3897 
  27   1.0000      -0.277138        -7.5413 
  28   1.0000      -0.276913        -7.5352 
  29   0.0000      -0.108232        -2.9451 
  30   0.0000       0.022879         0.6226 
  31   0.0000       0.065002         1.7688 
  32   0.0000       0.083536         2.2731 
  33   0.0000       0.093458         2.5431 
  34   0.0000       0.104743         2.8502 
  35   0.0000       0.146543         3.9876 
  36   0.0000       0.147819         4.0224 
  37   0.0000       0.264122         7.1871 
  38   0.0000       0.311587         8.4787 
  39   0.0000       0.341660         9.2970 
*Only the first 10 virtual orbitals were printed.

                    ********************************
                    * MULLIKEN POPULATION ANALYSIS *
                    ********************************

--------------------------------------------
MULLIKEN ATOMIC CHARGES AND SPIN POPULATIONS
--------------------------------------------
   0 C :   -0.045535   -0.267731
   1 C :   -0.007966    0.679265
   2 H :    0.015755    0.009418
   3 H :    0.039024   -0.031789
   4 H :    0.032385   -0.029520
   5 C :   -0.054943    0.642024
   6 H :    0.044271   -0.027165
   7 H :    0.047974   -0.028859
   8 H :    0.108163   -0.004934
   9 Br:   -0.179129    0.059291
Sum of atomic charges         :   -0.0000000
Sum of atomic spin populations:    1.0000000

-----------------------------------------------------
MULLIKEN REDUCED ORBITAL CHARGES AND SPIN POPULATIONS
-----------------------------------------------------
CHARGE
  0 C s       :     3.139640  s :     3.139640
      pz      :     0.953929  p :     2.868716
      px      :     0.952788
      py      :     0.961999
      dz2     :     0.009098  d :     0.037179
      dxz     :     0.012415
      dyz     :     0.006121
      dx2y2   :     0.004965
      dxy     :     0.004580

  1 C s       :     3.134195  s :     3.134195
      pz      :     0.957140  p :     2.849218
      px      :     0.936047
      py      :     0.956031
      dz2     :     0.006415  d :     0.024554
      dxz     :     0.009649
      dyz     :     0.004229
      dx2y2   :     0.003022
      dxy     :     0.001238

  2 H s       :     0.961794  s :     0.961794
      pz      :     0.006088  p :     0.022451
      px      :     0.011833
      py      :     0.004529

  3 H s       :     0.937500  s :     0.937500
      pz      :     0.006288  p :     0.023475
      px      :     0.012377
      py      :     0.004810

  4 H s       :     0.944305  s :     0.944305
      pz      :     0.006862  p :     0.023310
      px      :     0.011283
      py      :     0.005165

  5 C s       :     3.129011  s :     3.129011
      pz      :     0.955522  p :     2.901223
      px      :     0.961281
      py      :     0.984420
      dz2     :     0.006138  d :     0.024709
      dxz     :     0.007516
      dyz     :     0.002526
      dx2y2   :     0.004962
      dxy     :     0.003567

  6 H s       :     0.932428  s :     0.932428
      pz      :     0.006051  p :     0.023300
      px      :     0.012406
      py      :     0.004844

  7 H s       :     0.928427  s :     0.928427
      pz      :     0.013211  p :     0.023599
      px      :     0.003752
      py      :     0.006636

  8 H s       :     0.853299  s :     0.853299
      pz      :     0.010929  p :     0.038538
      px      :     0.007579
      py      :     0.020030

  9 Brs       :     7.940946  s :     7.940946
      pz      :     5.819565  p :    17.219591
      px      :     5.953978
      py      :     5.446048
      dz2     :     2.000911  d :    10.018592
      dxz     :     2.000700
      dyz     :     2.008563
      dx2y2   :     2.006220
      dxy     :     2.002198


SPIN
  0 C s       :    -0.037182  s :    -0.037182
      pz      :    -0.053022  p :    -0.239350
      px      :    -0.023708
      py      :    -0.162620
      dz2     :     0.001964  d :     0.008802
      dxz     :     0.000207
      dyz     :     0.003983
      dx2y2   :     0.000606
      dxy     :     0.002042

  1 C s       :     0.067678  s :     0.067678
      pz      :     0.074505  p :     0.613866
      px      :     0.031553
      py      :     0.507808
      dz2     :    -0.000439  d :    -0.002280
      dxz     :    -0.000024
      dyz     :    -0.000872
      dx2y2   :    -0.000928
      dxy     :    -0.000016

  2 H s       :     0.010357  s :     0.010357
      pz      :    -0.000130  p :    -0.000939
      px      :    -0.000058
      py      :    -0.000751

  3 H s       :    -0.035067  s :    -0.035067
      pz      :     0.000289  p :     0.003278
      px      :     0.000186
      py      :     0.002803

  4 H s       :    -0.032432  s :    -0.032432
      pz      :     0.000252  p :     0.002912
      px      :     0.000152
      py      :     0.002508

  5 C s       :     0.060124  s :     0.060124
      pz      :     0.087484  p :     0.584128
      px      :     0.023156
      py      :     0.473488
      dz2     :    -0.000201  d :    -0.002228
      dxz     :    -0.000122
      dyz     :    -0.000608
      dx2y2   :    -0.000779
      dxy     :    -0.000518

  6 H s       :    -0.029853  s :    -0.029853
      pz      :     0.000278  p :     0.002688
      px      :     0.000103
      py      :     0.002307

  7 H s       :    -0.031923  s :    -0.031923
      pz      :     0.000679  p :     0.003064
      px      :    -0.000077
      py      :     0.002462

  8 H s       :    -0.008666  s :    -0.008666
      pz      :     0.000702  p :     0.003733
      px      :     0.000023
      py      :     0.003007

  9 Brs       :    -0.000029  s :    -0.000029
      pz      :     0.011240  p :     0.059615
      px      :     0.000927
      py      :     0.047447
      dz2     :     0.000002  d :    -0.000296
      dxz     :    -0.000010
      dyz     :    -0.000159
      dx2y2   :    -0.000110
      dxy     :    -0.000018



                     *******************************
                     * LOEWDIN POPULATION ANALYSIS *
                     *******************************

-------------------------------------------
LOEWDIN ATOMIC CHARGES AND SPIN POPULATIONS
-------------------------------------------
   0 C :   -0.043259   -0.150011
   1 C :   -0.004963    0.565127
   2 H :    0.034769    0.000590
   3 H :    0.027855   -0.001856
   4 H :    0.026145   -0.002062
   5 C :   -0.043946    0.523209
   6 H :    0.027895   -0.000884
   7 H :    0.029923   -0.000577
   8 H :    0.022490    0.012242
   9 Br:   -0.076910    0.054223

----------------------------------------------------
LOEWDIN REDUCED ORBITAL CHARGES AND SPIN POPULATIONS
----------------------------------------------------
CHARGE
  0 C s       :     2.872851  s :     2.872851
      pz      :     1.059969  p :     3.073852
      px      :     1.061855
      py      :     0.952028
      dz2     :     0.024810  d :     0.096556
      dxz     :     0.033667
      dyz     :     0.014586
      dx2y2   :     0.012897
      dxy     :     0.010595

  1 C s       :     2.902989  s :     2.902989
      pz      :     1.043099  p :     3.039177
      px      :     1.049474
      py      :     0.946604
      dz2     :     0.017093  d :     0.062797
      dxz     :     0.025585
      dyz     :     0.009492
      dx2y2   :     0.007435
      dxy     :     0.003193

  2 H s       :     0.900613  s :     0.900613
      pz      :     0.017522  p :     0.064618
      px      :     0.033482
      py      :     0.013614

  3 H s       :     0.902576  s :     0.902576
      pz      :     0.017527  p :     0.069568
      px      :     0.036435
      py      :     0.015606

  4 H s       :     0.904797  s :     0.904797
      pz      :     0.019126  p :     0.069058
      px      :     0.033298
      py      :     0.016634

  5 C s       :     2.907450  s :     2.907450
      pz      :     1.040228  p :     3.073736
      px      :     1.059069
      py      :     0.974439
      dz2     :     0.015464  d :     0.062761
      dxz     :     0.020772
      dyz     :     0.006013
      dx2y2   :     0.012990
      dxy     :     0.007521

  6 H s       :     0.901552  s :     0.901552
      pz      :     0.017887  p :     0.070553
      px      :     0.036100
      py      :     0.016566

  7 H s       :     0.898857  s :     0.898857
      pz      :     0.039330  p :     0.071220
      px      :     0.010448
      py      :     0.021442

  8 H s       :     0.873009  s :     0.873009
      pz      :     0.028851  p :     0.104501
      px      :     0.018954
      py      :     0.056697

  9 Brs       :     7.825847  s :     7.825847
      pz      :     5.817986  p :    17.221034
      px      :     5.948451
      py      :     5.454598
      dz2     :     2.001027  d :    10.030029
      dxz     :     2.000985
      dyz     :     2.014511
      dx2y2   :     2.010372
      dxy     :     2.003134


SPIN
  0 C s       :    -0.009426  s :    -0.009426
      pz      :    -0.024881  p :    -0.162054
      px      :    -0.008407
      py      :    -0.128766
      dz2     :     0.004951  d :     0.021468
      dxz     :     0.001090
      dyz     :     0.009018
      dx2y2   :     0.001349
      dxy     :     0.005061

  1 C s       :     0.018667  s :     0.018667
      pz      :     0.064507  p :     0.551139
      px      :     0.013965
      py      :     0.472667
      dz2     :    -0.001139  d :    -0.004679
      dxz     :    -0.000681
      dyz     :    -0.001670
      dx2y2   :    -0.001108
      dxy     :    -0.000081

  2 H s       :     0.004732  s :     0.004732
      pz      :    -0.000659  p :    -0.004142
      px      :    -0.000545
      py      :    -0.002937

  3 H s       :    -0.015691  s :    -0.015691
      pz      :     0.001754  p :     0.013835
      px      :     0.001681
      py      :     0.010400

  4 H s       :    -0.015038  s :    -0.015038
      pz      :     0.001768  p :     0.012975
      px      :     0.001453
      py      :     0.009754

  5 C s       :     0.017598  s :     0.017598
      pz      :     0.070403  p :     0.510073
      px      :     0.011807
      py      :     0.427864
      dz2     :    -0.000636  d :    -0.004462
      dxz     :    -0.000739
      dyz     :    -0.000810
      dx2y2   :    -0.000967
      dxy     :    -0.001310

  6 H s       :    -0.014025  s :    -0.014025
      pz      :     0.001861  p :     0.013141
      px      :     0.001544
      py      :     0.009737

  7 H s       :    -0.014591  s :    -0.014591
      pz      :     0.003214  p :     0.014015
      px      :     0.000221
      py      :     0.010581

  8 H s       :    -0.002008  s :    -0.002008
      pz      :     0.002931  p :     0.014249
      px      :     0.000227
      py      :     0.011091

  9 Brs       :     0.000346  s :     0.000346
      pz      :     0.010094  p :     0.053873
      px      :     0.000779
      py      :     0.043000
      dz2     :     0.000015  d :     0.000004
      dxz     :    -0.000017
      dyz     :    -0.000012
      dx2y2   :     0.000040
      dxy     :    -0.000022



                      *****************************
                      * MAYER POPULATION ANALYSIS *
                      *****************************

  NA   - Mulliken gross atomic population
  ZA   - Total nuclear charge
  QA   - Mulliken gross atomic charge
  VA   - Mayer's total valence
  BVA  - Mayer's bonded valence
  FA   - Mayer's free valence

  ATOM       NA         ZA         QA         VA         BVA        FA
  0 C      6.0455     6.0000    -0.0455     4.1164     4.0826     0.0338
  1 C      6.0080     6.0000    -0.0080     3.9186     3.5910     0.3276
  2 H      0.9842     1.0000     0.0158     0.9788     0.9786     0.0001
  3 H      0.9610     1.0000     0.0390     0.9765     0.9753     0.0013
  4 H      0.9676     1.0000     0.0324     0.9851     0.9840     0.0011
  5 C      6.0549     6.0000    -0.0549     3.9109     3.6158     0.2951
  6 H      0.9557     1.0000     0.0443     0.9863     0.9854     0.0009
  7 H      0.9520     1.0000     0.0480     0.9782     0.9771     0.0011
  8 H      0.8918     1.0000     0.1082     1.0379     1.0377     0.0002
  9 Br    35.1791    35.0000    -0.1791     0.9637     0.9601     0.0036

  Mayer bond orders larger than 0.100000
B(  0-C ,  1-C ) :   1.5486 B(  0-C ,  2-H ) :   0.9630 B(  0-C ,  5-C ) :   1.4743 
B(  1-C ,  3-H ) :   0.9562 B(  1-C ,  4-H ) :   0.9595 B(  1-C ,  5-C ) :   0.1108 
B(  5-C ,  6-H ) :   0.9557 B(  5-C ,  7-H ) :   0.9480 B(  5-C ,  8-H ) :   0.1143 
B(  8-H ,  9-Br) :   0.8923 

-------
TIMINGS
-------

Total SCF time: 0 days 0 hours 0 min 2 sec 

Total time                  ....       2.834 sec
Sum of individual times     ....       2.646 sec  ( 93.4%)

SCF preparation             ....       0.313 sec  ( 11.1%)
Fock matrix formation       ....       2.169 sec  ( 76.6%)
  Startup                   ....       0.004 sec  (  0.2% of F)
  Split-RI-J                ....       0.128 sec  (  5.9% of F)
  Chain of spheres X        ....       1.621 sec  ( 74.7% of F)
  XC integration            ....       0.475 sec  ( 21.9% of F)
    XC Preparation          ....       0.000 sec  (  0.0% of XC)
    Basis function eval.    ....       0.105 sec  ( 22.1% of XC)
    Density eval.           ....       0.090 sec  ( 19.0% of XC)
    XC-Functional eval.     ....       0.037 sec  (  7.9% of XC)
    XC-Potential eval.      ....       0.114 sec  ( 24.1% of XC)
Diagonalization             ....       0.000 sec  (  0.0%)
Density matrix formation    ....       0.025 sec  (  0.9%)
Total Energy calculation    ....       0.012 sec  (  0.4%)
Population analysis         ....       0.009 sec  (  0.3%)
Orbital Transformation      ....       0.014 sec  (  0.5%)
Orbital Orthonormalization  ....       0.000 sec  (  0.0%)
DIIS solution               ....       0.062 sec  (  2.2%)
SOSCF solution              ....       0.041 sec  (  1.4%)
Finished LeanSCF after   2.8 sec

Maximum memory used throughout the entire LEANSCF-calculation: 9.1 MB

-------------------------   --------------------
FINAL SINGLE POINT ENERGY     -2691.425862387081
-------------------------   --------------------



           ************************************************************
           *        Program running with 8 parallel MPI-processes     *
           *              working on a common directory               *
           ************************************************************

------------------------------------------------------------------------------
                              ORCA PROPERTY CALCULATIONS
------------------------------------------------------------------------------

GBWName                                 ... radical_035.gbw
Number of atoms                         ...     10
Number of basis functions               ...    104
Max core memory                         ...   1200 MB

Electric properties:
Dipole moment                           ... YES
Quadrupole moment                       ...  NO
Static polarizability (Dipole/Dipole)   ...  NO
Static polarizability (Dipole/Quad.)    ...  NO
Static polarizability (Quad./Quad.)     ...  NO
Static polarizability (Velocity)        ...  NO
Static hyperpolarizability              ...  NO

Atomic electric properties:
Dipole moment                           ...  NO
Quadrupole moment                       ...  NO
Static polarizability                   ...  NO

Choice of electric origin               ... Center of mass
Position of electric origin             ...    -1.077552    -2.645828    -2.329457

General magnetic properties:
Magnetizability                         ...  NO

EPR properties:
g-Tensor (aka g-matrix)                 ...  NO
Zero-Field splitting spin-orbit         ...  NO
Zero-field splitting spin-spin          ...  NO
Hyperfine couplings                     ...  NO (   0 nuclei)
Quadrupole couplings                    ...  NO (   0 nuclei)
Contact density                         ...  NO (   0 nuclei)

NMR properties:
Chemical shifts                         ...  NO (   0 nuclei)
Spin-rotation constants                 ...  NO (   0 nuclei)
Spin-spin couplings                     ...  NO (   0 nuclei,    0 pairs)

Choice of magnetic origin               ... GIAO
Position of magnetic origin             ...     0.000000     0.000000     0.000000

Properties with geometric perturbations:
SCF Hessian                             ...  NO
IR spectrum                             ...  NO
VCD spectrum                            ...  NO
X-ray spectroscopy properties:
SCF XES/XAS/RIXS spectra                ...  NO

SCF SOC stabilization energy            ...  NO
Diagonal Born-Oppenheimer correction    ...  NO

-------------
DIPOLE MOMENT
-------------

Method             : SCF
Type of density    : Electron Density
Multiplicity       :   2
Irrep              :   0
Energy             : -2691.4258623870805422 Eh
Basis              : AO
                                X                 Y                 Z
Electronic contribution:     -6.997683011     -16.707580644     -14.907317769
Nuclear contribution   :      7.285791632      17.416275671      15.461656361
                        -----------------------------------------
Total Dipole Moment    :      0.288108621       0.708695027       0.554338592
                        -----------------------------------------
Magnitude (a.u.)       :      0.944746788
Magnitude (Debye)      :      2.401355496



--------------------
Rotational spectrum 
--------------------
 
Rotational constants in cm-1:             0.375022             0.038983             0.036722 
Rotational constants in MHz :         11242.871299          1168.683775          1100.893487 

Dipole components along the rotational axes: 
x,y,z [a.u.] :    -0.937867    -0.113138     0.012356 
x,y,z [Debye]:    -2.383867    -0.287573     0.031407 

 

Dipole moment calculation done in   0.0 sec 

Maximum memory used throughout the entire PROP-calculation: 5.2 MB

--------------------------------
SUGGESTED CITATIONS FOR THIS RUN
--------------------------------

Below you find a list of papers that are relevant to this ORCA run
We neither can nor want to force you to cite these papers, but we appreciate if you do
You receive ORCA, which is the product of decades of hard work by many enthusiastic individuals, for free
The only thing we kindly ask in return is that you cite our papers,
We deeply appreciate it, if you show your appreciation for ORCA by not just citing the generic ORCA reference.

Please note that relegating all ORCA citations to the supporting information does *not* help us.
SI sections are not indexed - citations you put there will not count into any citation statistics
But we need these citations in order to attract the funding resources that allow us to do what we are doing

Therefore, if you are a happy ORCA user, please consider citing a few of the papers listed below in the main body of your paper

In addition to the list printed below, the program has created the file radical_035.bibtex that contains the list in bibtex format
You can import this file easily into all common literature databanks and citation aid programs


List of essential papers. We consider these as the minimum necessary citations

  1. Neese, F.
     Software update: the ORCA program system, version 6.0
     WIRES Comput. Molec. Sci. 2025 15(1), e70019
     doi.org/10.1002/wcms.7019

List of papers to cite with high priority. The work reported in these papers was absolutely
necessary for this run to complete.
Our perspective: the developers of density functionals and basis sets usually get cited in chemistry papers
Good! But without the algorithms to do something with them, the functionals or basis sets would not do anything.
Hence, in our opinion, the algorithm design and method developments papers are equally worthy of getting cited

  1. Neese, F.
     An improvement of the resolution of the identity approximation for the formation of the Coulomb matrix
     J. Comp. Chem. 2003 24(14), 1740-1747
     doi.org/10.1002/jcc.10318
  2. Neese, F.; Wennmohs, F.; Hansen, A.; Becker, U.
     Efficient, approximate and parallel Hartree-Fock and hybrid DFT calculations. A 'chain-of-spheres' algorithm for the Hartree-Fock exchange
     Chem. Phys. 2009 356(1-3), 98-109
     doi.org/10.1016/j.chemphys.2008.10.036
  3. Helmich-Paris, B.; de Souza, B.; Neese, F.; Izsák, R.
     An improved chain of spheres for exchange algorithm
     J. Chem. Phys. 2021 155(10), 104109
     doi.org/10.1063/5.0058766
  4. Neese, F.
     The SHARK Integral Generation and Digestion System
     J. Comp. Chem. 2022 44(3), 381
     doi.org/10.1002/jcc.26942

List of suggested additional citations. These are papers that are important in the 'surrounding' of 
of this run, or papers that preceded the highly important papers. If you like your results we are grateful for a citation.

  1. Izsak, R.; Neese, F.
     An overlap fitted chain of spheres exchange method
     J. Chem. Phys. 2011 135 , 144105
     doi.org/10.1063/1.3646921
  2. Izsak, R.; Hansen, A.; Neese, F.
     The resolution of identity and chain of spheres approximations for the LPNO-CCSD singles Fock term
     Molec. Phys. 2012 110 , 2413-2417
     doi.org/10.1080/00268976.2012.687466
  3. Neese, F.
     The ORCA program system
     WIRES Comput. Molec. Sci. 2012 2(1), 73-78
     doi.org/10.1002/wcms.81
  4. Izsak, R.; Neese, F.; Klopper, W.
     Robust fitting techniques in the chain of spheres approximation to the Fock exchange: The role of the complementary space
     J. Chem. Phys. 2013 139 , 
     doi.org/10.1063/1.4819264
  5. Neese, F.
     Software update: the ORCA program system, version 4.0
     WIRES Comput. Molec. Sci. 2018 8(1), 1-6
     doi.org/10.1002/wcms.1327
  6. Neese, F.; Wennmohs, F.; Becker, U.; Riplinger, C.
     The ORCA quantum chemistry program package
     J. Chem. Phys. 2020 152(22), 224108
     doi.org/10.1063/5.0004608
  7. Neese, F.
     Software update: The ORCA program system—Version 5.0
     WIRES Comput. Molec. Sci. 2022 12(1), e1606
     doi.org/10.1002/wcms.1606

List of optional additional citations

  1. Neese, F.
     Approximate second-order SCF convergence for spin unrestricted wavefunctions
     Chem. Phys. Lett. 2000 325(1-3), 93-98
     doi.org/10.1016/s0009-2614(00)00662-x

Timings for individual modules:

Sum of individual times          ...        4.735 sec (=   0.079 min)
Startup calculation              ...        0.856 sec (=   0.014 min)  18.1 %
SCF iterations                   ...        3.439 sec (=   0.057 min)  72.6 %
Property calculations            ...        0.440 sec (=   0.007 min)   9.3 %
                             ****ORCA TERMINATED NORMALLY****
TOTAL RUN TIME: 0 days 0 hours 0 minutes 5 seconds 230 msec
