[Molden Format]
[Title]
 Molden file created by orca_2mkl for BaseName=radical_014

[Atoms] AU
C    1   6          1.1987496628         0.8252604102         0.3452661928 
C    2   6          1.3119385890         0.0954897513         2.7943739390 
H    3   1          2.9604298436         1.2856279321        -0.6426448355 
H    4   1          3.1091399520         0.0077667744         3.8086976695 
H    5   1         -0.3939833325        -0.4303681195         3.8408305727 
C    6   6         -1.1052176678         0.8918108955        -1.1345348790 
H    7   1         -2.8940966768         0.8811471709        -0.0795650291 
H    8   1         -1.1222025263         2.1284061035        -2.8029325087 
H    9   1         -1.2400269507        -1.2128337917        -2.2271858680 
Br  10  35         -1.8074833628        -4.1367560161        -3.7403009218 
[GTO]
  1 0
s   5 1.0 
     1238.4016938000         0.8208956682
      186.2900499200         1.4766449896
       42.2511763460         2.1526124058
       11.6765579320         2.1081722461
        3.5930506482         0.8290999933
s   1 1.0 
        0.4024514736         0.3601183351
s   1 1.0 
        0.1309018267         0.1551027052
p   3 1.0 
        9.4680970621         1.3467645142
        2.0103545142         1.0678070931
        0.5477100471         0.5108735714
p   1 1.0 
        0.1526861379         0.1360471976
d   1 1.0 
        0.8000000000         1.9292013661

  2 0
s   5 1.0 
     1238.4016938000         0.8208956682
      186.2900499200         1.4766449896
       42.2511763460         2.1526124058
       11.6765579320         2.1081722461
        3.5930506482         0.8290999933
s   1 1.0 
        0.4024514736         0.3601183351
s   1 1.0 
        0.1309018267         0.1551027052
p   3 1.0 
        9.4680970621         1.3467645142
        2.0103545142         1.0678070931
        0.5477100471         0.5108735714
p   1 1.0 
        0.1526861379         0.1360471976
d   1 1.0 
        0.8000000000         1.9292013661

  3 0
s   3 1.0 
       13.0107010000         0.1634903809
        1.9622572000         0.2773515510
        0.4445379600         0.3157501452
s   1 1.0 
        0.1219496200         0.1470772262
p   1 1.0 
        0.8000000000         1.0784563492

  4 0
s   3 1.0 
       13.0107010000         0.1634903809
        1.9622572000         0.2773515510
        0.4445379600         0.3157501452
s   1 1.0 
        0.1219496200         0.1470772262
p   1 1.0 
        0.8000000000         1.0784563492

  5 0
s   3 1.0 
       13.0107010000         0.1634903809
        1.9622572000         0.2773515510
        0.4445379600         0.3157501452
s   1 1.0 
        0.1219496200         0.1470772262
p   1 1.0 
        0.8000000000         1.0784563492

  6 0
s   5 1.0 
     1238.4016938000         0.8208956682
      186.2900499200         1.4766449896
       42.2511763460         2.1526124058
       11.6765579320         2.1081722461
        3.5930506482         0.8290999933
s   1 1.0 
        0.4024514736         0.3601183351
s   1 1.0 
        0.1309018267         0.1551027052
p   3 1.0 
        9.4680970621         1.3467645142
        2.0103545142         1.0678070931
        0.5477100471         0.5108735714
p   1 1.0 
        0.1526861379         0.1360471976
d   1 1.0 
        0.8000000000         1.9292013661

  7 0
s   3 1.0 
       13.0107010000         0.1634903809
        1.9622572000         0.2773515510
        0.4445379600         0.3157501452
s   1 1.0 
        0.1219496200         0.1470772262
p   1 1.0 
        0.8000000000         1.0784563492

  8 0
s   3 1.0 
       13.0107010000         0.1634903809
        1.9622572000         0.2773515510
        0.4445379600         0.3157501452
s   1 1.0 
        0.1219496200         0.1470772262
p   1 1.0 
        0.8000000000         1.0784563492

  9 0
s   3 1.0 
       13.0107010000         0.1634903809
        1.9622572000         0.2773515510
        0.4445379600         0.3157501452
s   1 1.0 
        0.1219496200         0.1470772262
p   1 1.0 
        0.8000000000         1.0784563492

 10 0
s   6 1.0 
   113286.3877600000         7.5076141183
    17009.6263030000        13.8835270484
     3870.1842567000        22.7307285566
     1093.0357227000        30.8227297499
      356.3972179700        27.2481937511
      123.1253964300         9.6953381145
s   3 1.0 
      236.7408400700        -4.7631125758
       28.4686610700         5.6113863182
       11.8834437220         1.9900291396
s   3 1.0 
       21.2696333120        -1.5429794477
        3.6129226841         1.3310800628
        1.6626648969         0.4300130345
s   1 1.0 
        0.3482379323         0.3230852630
s   1 1.0 
        0.1301903139         0.1544699827
p   5 1.0 
     1560.2801881000       115.0180051576
      368.4785920500       143.9035925417
      117.2297884900       137.5255986684
       42.6489092480        78.9578527439
       16.0872250960        15.8580577654
p   3 1.0 
        8.6352810058         6.8437546680
        3.5613665502         3.7974971038
        1.5292626609         0.5585414278
p   1 1.0 
        0.5306429485         0.6455696201
p   1 1.0 
        0.1570275896         0.1408996918
d   4 1.0 
      104.8551864200       261.4493931636
       30.2811436880       176.6993802449
       10.6513942670        76.9545600188
        3.8699456233        17.5937671387
d   1 1.0 
        1.3240876762         4.6593398042
d   1 1.0 
        0.3890000000         0.5462379705

[5D]
[7F]
[9G]
[MO]
 Sym=     1a
 Ene= -4.82753452762785E+02
 Spin= Alpha
 Occup= 1.000000
  1       0.000005625695
  2      -0.000083199377
  3       0.000211577134
  4       0.000008062165
  5       0.000014947869
  6       0.000005151074
  7      -0.000006434357
  8      -0.000069825635
  9       0.000131390901
 10      -0.000001821356
 11       0.000003264529
 12       0.000002207197
 13      -0.000001180182
 14      -0.000004878107
 15       0.000001609378
 16      -0.000010995044
 17      -0.000200177295
 18       0.000000506990
 19       0.000003314539
 20       0.000003227872
 21       0.000015636157
 22      -0.000028581601
 23       0.000096701488
 24       0.000000056202
 25      -0.000002227912
 26      -0.000001314941
 27      -0.000004900208
 28      -0.000000613718
 29      -0.000005494649
 30       0.000003077516
 31      -0.000001698199
 32       0.000002239793
 33       0.000001115177
 34       0.000002196292
 35      -0.000007148439
 36       0.000000630584
 37       0.000002242308
 38      -0.000003261651
 39      -0.000001296535
 40       0.000007425395
 41      -0.000000391151
 42       0.000000169721
 43      -0.000001370457
 44       0.000005429656
 45      -0.000142609367
 46       0.001050003460
 47      -0.000008742879
 48      -0.000002031262
 49      -0.000001223622
 50       0.000043320563
 51      -0.000390714605
 52      -0.000254529507
 53      -0.000007253952
 54       0.000005513786
 55       0.000024509206
 56      -0.000023994667
 57       0.000003996627
 58      -0.000008422335
 59       0.000003657580
 60       0.000005260569
 61       0.000000008003
 62      -0.000005758879
 63      -0.000040679459
 64      -0.000033136382
 65      -0.000006785156
 66      -0.000004557205
 67       0.000004755677
 68       0.000000323052
 69      -0.001620808503
 70       0.000001660554
 71      -0.000034909066
 72      -0.000017254201
 73      -0.994982511364
 74      -0.015687650093
 75       0.003911908586
 76      -0.002369629526
 77       0.001868821595
 78      -0.000001880005
 79      -0.000008363577
 80      -0.000004262850
 81       0.000006271415
 82       0.000027377632
 83       0.000013993531
 84      -0.000029846975
 85      -0.000131843746
 86      -0.000067587721
 87       0.000110782803
 88       0.000523229417
 89       0.000269913265
 90      -0.000003167181
 91       0.000002411550
 92       0.000011117026
 93      -0.000010238251
 94       0.000004794635
 95       0.000012229581
 96      -0.000009269748
 97      -0.000042948907
 98       0.000039577360
 99      -0.000018413289
100      -0.000030481343
101       0.000022926308
102       0.000107485577
103      -0.000099115722
104       0.000045239835
 Sym=     1a
 Ene= -6.24365583953986E+01
 Spin= Alpha
 Occup= 1.000000
  1       0.000013214751
  2      -0.000198311866
  3       0.000492064162
  4       0.000018993609
  5       0.000035343924
  6       0.000012104333
  7      -0.000006984557
  8      -0.000166834528
  9       0.000320298260
 10      -0.000004561704
 11       0.000007676046
 12       0.000005372949
 13      -0.000003004817
 14      -0.000011673729
 15       0.000003842604
 16      -0.000026950503
 17      -0.000478088281
 18       0.000001424340
 19       0.000007849522
 20       0.000007788903
 21       0.000033613470
 22      -0.000069364618
 23       0.000231630428
 24       0.000000111329
 25      -0.000005184522
 26      -0.000002987324
 27      -0.000011531879
 28      -0.000001457700
 29      -0.000013528340
 30       0.000007944552
 31      -0.000004249391
 32       0.000005066752
 33       0.000002149193
 34       0.000005602567
 35      -0.000016305186
 36       0.000001550525
 37       0.000005299101
 38      -0.000007618000
 39      -0.000003816318
 40       0.000016061819
 41      -0.000000941879
 42       0.000000364250
 43      -0.000003164023
 44       0.000011756389
 45      -0.000338353908
 46       0.002571554222
 47      -0.000021386875
 48      -0.000011877499
 49      -0.000006170842
 50       0.000111903170
 51      -0.000951193547
 52      -0.000615642082
 53      -0.000018528624
 54       0.000013486888
 55       0.000063357177
 56      -0.000061855067
 57       0.000009451142
 58      -0.000018634973
 59       0.000006730459
 60       0.000012555499
 61       0.000000145840
 62      -0.000014141017
 63      -0.000097314687
 64      -0.000082695284
 65      -0.000016830814
 66      -0.000010951161
 67       0.000011514655
 68       0.000006317972
 69      -0.003964853536
 70       0.000000136416
 71      -0.000106352356
 72      -0.000052924161
 73      -0.347188784316
 74       1.046962025916
 75       0.018562728214
 76      -0.006396799599
 77       0.004728133392
 78       0.000025481195
 79       0.000163249826
 80       0.000079807614
 81       0.000018124045
 82       0.000083474729
 83       0.000042470177
 84      -0.000073713157
 85      -0.000328189960
 86      -0.000168358147
 87       0.000270153147
 88       0.001277784464
 89       0.000659335425
 90      -0.000019997115
 91       0.000011605209
 92       0.000065493521
 93      -0.000062952986
 94       0.000023270045
 95       0.000032906849
 96      -0.000023783211
 97      -0.000113345850
 98       0.000105383283
 99      -0.000046944386
100      -0.000073669955
101       0.000055184452
102       0.000258382394
103      -0.000238554359
104       0.000108373860
 Sym=     1a
 Ene= -5.62696455603709E+01
 Spin= Alpha
 Occup= 1.000000
  1       0.000013669376
  2      -0.000227569409
  3       0.000620382479
  4       0.000017668862
  5       0.000039798710
  6       0.000010967768
  7      -0.000070599343
  8      -0.000207559861
  9       0.000276325545
 10      -0.000003605263
 11       0.000012610936
 12       0.000009137080
 13      -0.000000161550
 14      -0.000006800831
 15       0.000005259183
 16      -0.000042635464
 17      -0.000466427414
 18       0.000003778935
 19       0.000010804215
 20       0.000012082031
 21       0.000029783146
 22      -0.000064658753
 23       0.000217217964
 24       0.000001354491
 25      -0.000007550980
 26      -0.000005299534
 27      -0.000012062046
 28       0.000000517636
 29      -0.000020802404
 30       0.000016979436
 31      -0.000002956262
 32       0.000006361279
 33       0.000007029363
 34       0.000009365263
 35      -0.000012362566
 36      -0.000000648020
 37       0.000006114394
 38      -0.000008076227
 39      -0.000010243743
 40       0.000020138768
 41       0.000001096287
 42      -0.000000927602
 43      -0.000000602819
 44      -0.000005332283
 45      -0.000227756600
 46       0.002626955459
 47      -0.000025878392
 48      -0.000105993898
 49      -0.000050904719
 50       0.000121069017
 51      -0.001045966907
 52      -0.000707526904
 53      -0.000035832038
 54       0.000019332490
 55       0.000127491390
 56      -0.000124984207
 57       0.000009882107
 58       0.000018664025
 59       0.000080278619
 60       0.000023255464
 61      -0.000012209259
 62      -0.000028355795
 63      -0.000077993407
 64      -0.000033963384
 65      -0.000022289271
 66      -0.000030341197
 67       0.000014841975
 68      -0.000095067601
 69      -0.004736723468
 70      -0.000026880959
 71      -0.000294631562
 72      -0.000148654224
 73       0.000085249421
 74      -0.000250505037
 75       0.000177256767
 76      -0.001093335996
 77       0.002598675968
 78       0.132976583793
 79       0.879928956009
 80       0.435400952792
 81       0.003202993546
 82       0.021151792824
 83       0.010467731299
 84      -0.000864892793
 85      -0.005533466214
 86      -0.002745920213
 87       0.000614693380
 88       0.003468531592
 89       0.001749858301
 90      -0.000012872958
 91       0.000008599080
 92       0.000043731394
 93      -0.000041237856
 94       0.000017121656
 95       0.000035538170
 96      -0.000025824034
 97      -0.000124053762
 98       0.000115150821
 99      -0.000051273726
100      -0.000086052332
101       0.000063206693
102       0.000303691319
103      -0.000281014619
104       0.000124844010
 Sym=     1a
 Ene= -5.62659023942446E+01
 Spin= Alpha
 Occup= 1.000000
  1      -0.000006563481
  2       0.000067982725
  3      -0.000281903529
  4      -0.000013983293
  5      -0.000027088503
  6      -0.000001097965
  7       0.000058520091
  8       0.000246312620
  9      -0.000338421385
 10      -0.000005560721
 11       0.000000804887
 12       0.000003566460
 13      -0.000005802534
 14      -0.000010843331
 15      -0.000001829728
 16       0.000014971505
 17       0.000463145512
 18      -0.000007845332
 19       0.000005425691
 20      -0.000007703024
 21       0.000021448064
 22      -0.000000313859
 23      -0.000185716465
 24       0.000003445871
 25       0.000004360492
 26       0.000005472244
 27       0.000005509399
 28      -0.000001992461
 29      -0.000021812125
 30      -0.000085411250
 31       0.000008686099
 32      -0.000019836358
 33      -0.000000477900
 34      -0.000016290469
 35      -0.000033880203
 36      -0.000000107951
 37       0.000003262791
 38       0.000010612856
 39       0.000002165627
 40      -0.000027419058
 41       0.000003015904
 42       0.000004352462
 43       0.000009628231
 44       0.000002938819
 45      -0.000074310797
 46       0.000390966818
 47       0.000040461845
 48       0.000024970042
 49      -0.000002371747
 50      -0.000318088738
 51      -0.000368195401
 52       0.000046316280
 53      -0.000005344935
 54      -0.000019738310
 55       0.000021681653
 56      -0.000003393564
 57      -0.000007304388
 58      -0.000157002237
 59      -0.000016478078
 60       0.000010460424
 61       0.000015423093
 62       0.000006818157
 63       0.000045613077
 64       0.000055512260
 65       0.000033691139
 66       0.000006186395
 67       0.000010821621
 68      -0.000028061817
 69      -0.000597751900
 70      -0.000037080346
 71      -0.000013808565
 72       0.000002816904
 73       0.000001556507
 74      -0.000004125211
 75       0.000010866237
 76      -0.000083690635
 77       0.000255414869
 78       0.938799968429
 79       0.014649815948
 80      -0.316334900563
 81       0.022425422229
 82       0.000354734127
 83      -0.007552757834
 84      -0.005441197086
 85      -0.000109906449
 86       0.001815858526
 87       0.002050909960
 88       0.000175437365
 89      -0.000602682773
 90      -0.000005526698
 91       0.000008047740
 92      -0.000003053083
 93       0.000000377470
 94       0.000017749512
 95       0.000007541273
 96      -0.000010589539
 97      -0.000003793571
 98       0.000005761575
 99      -0.000021413211
100      -0.000014992160
101       0.000018964499
102       0.000017841988
103      -0.000019966825
104       0.000037203862
 Sym=     1a
 Ene= -5.62658920341748E+01
 Spin= Alpha
 Occup= 1.000000
  1       0.000009120379
  2      -0.000086329771
  3       0.000034872099
  4       0.000015296281
  5       0.000026136241
  6       0.000029265166
  7       0.000054894251
  8      -0.000039266334
  9      -0.000214139584
 10       0.000007946237
 11       0.000000574639
 12      -0.000003428375
 13       0.000001559219
 14       0.000004118454
 15      -0.000000580782
 16       0.000023937968
 17       0.000096131157
 18      -0.000008324193
 19       0.000010703549
 20      -0.000004249209
 21       0.000086637874
 22       0.000028872970
 23       0.000004744324
 24      -0.000004808825
 25       0.000001696429
 26      -0.000004604071
 27      -0.000004471574
 28      -0.000001219731
 29      -0.000035509980
 30      -0.000074813714
 31       0.000005358771
 32       0.000014152461
 33       0.000011741158
 34      -0.000017918767
 35      -0.000058356326
 36       0.000003031638
 37      -0.000000259214
 38       0.000002269369
 39       0.000010508479
 40       0.000024177365
 41       0.000001400389
 42       0.000001045734
 43      -0.000002045034
 44       0.000002768057
 45      -0.000008593716
 46      -0.000183549136
 47      -0.000016774981
 48       0.000010940429
 49      -0.000046351830
 50      -0.000010094743
 51      -0.000004367332
 52       0.000378536232
 53      -0.000002757391
 54       0.000000818878
 55       0.000014105602
 56       0.000026398849
 57       0.000002880064
 58      -0.000051456866
 59      -0.000043974444
 60      -0.000022865449
 61       0.000006998626
 62      -0.000031512484
 63       0.000140622816
 64       0.000038508471
 65      -0.000007611724
 66      -0.000011336089
 67      -0.000004756689
 68       0.000025847708
 69       0.000237972185
 70       0.000014109868
 71      -0.000006358065
 72       0.000039939590
 73      -0.000000419131
 74       0.000000980415
 75      -0.000005591905
 76       0.000036909287
 77      -0.000103127642
 78      -0.287396401229
 79       0.455042815541
 80      -0.831846064407
 81      -0.006865668807
 82       0.010865873329
 83      -0.019869705219
 84       0.001667683467
 85      -0.002619639025
 86       0.004818240258
 87      -0.000631638514
 88       0.000917043941
 89      -0.001812865065
 90      -0.000012025996
 91      -0.000005222677
 92      -0.000011376186
 93      -0.000008042332
 94      -0.000004156472
 95       0.000011085730
 96       0.000006148300
 97       0.000013411127
 98       0.000005897926
 99       0.000005322241
100      -0.000014979709
101      -0.000010050827
102      -0.000023845780
103      -0.000004619971
104      -0.000009490543
 Sym=     1a
 Ene= -1.02264600250125E+01
 Spin= Alpha
 Occup= 1.000000
  1       0.026784079068
  2      -0.000012375747
  3       0.004682264123
  4       0.001428090145
  5      -0.000420454970
  6       0.001047335323
  7       0.000628910758
  8       0.001566137015
  9      -0.004903289403
 10       0.000010235452
 11      -0.001277263514
 12       0.000177227715
 13      -0.001094923376
 14       0.000135641553
 15       0.003469734599
 16      -0.000160385599
 17       0.005351743382
 18       0.000256541557
 19      -0.000007833866
 20      -0.000050401921
 21      -0.004727228134
 22       0.000286007024
 23      -0.002925196840
 24       0.000156811470
 25      -0.000000156920
 26      -0.000118534372
 27       0.000235957406
 28       0.000108860023
 29      -0.000496691038
 30      -0.001274270501
 31      -0.000313327440
 32      -0.000066303640
 33      -0.000181874212
 34       0.000746855090
 35       0.001900833070
 36      -0.000033655578
 37      -0.000010205984
 38      -0.000008313555
 39      -0.000894881830
 40      -0.001802124015
 41      -0.000010949272
 42      -0.000070107340
 43       0.000143633565
 44       0.987332237842
 45       0.053481655436
 46      -0.054118289579
 47      -0.000606358922
 48      -0.000701201383
 49      -0.000721669115
 50      -0.001945619735
 51       0.007015655383
 52       0.003103795540
 53       0.000381090324
 54      -0.000372480303
 55      -0.000770891177
 56       0.000478510653
 57      -0.000042476412
 58      -0.002837276690
 59       0.007369467765
 60      -0.002316016767
 61      -0.000198889554
 62       0.001599317676
 63      -0.002755004359
 64       0.007883614366
 65       0.000233087930
 66       0.001628090103
 67      -0.002364082409
 68      -0.001225520032
 69       0.024182979353
 70      -0.000016376009
 71      -0.002312765916
 72      -0.000994139933
 73      -0.000008277050
 74       0.000012972638
 75      -0.000150537289
 76       0.002122137258
 77      -0.008638660098
 78       0.000001693347
 79       0.000001437544
 80      -0.000004586613
 81      -0.000007191705
 82      -0.000010154119
 83       0.000012920284
 84       0.000112392337
 85       0.000371766817
 86       0.000113112394
 87      -0.001040250780
 88      -0.004667085490
 89      -0.002262906474
 90       0.000021272889
 91      -0.000016326136
 92      -0.000054234926
 93       0.000052570263
 94      -0.000034612934
 95      -0.000102381667
 96       0.000078358798
 97       0.000267931919
 98      -0.000258696045
 99       0.000165273733
100       0.000315636911
101      -0.000236571672
102      -0.000895614624
103       0.000856415501
104      -0.000490914111
 Sym=     1a
 Ene= -1.02217038250818E+01
 Spin= Alpha
 Occup= 1.000000
  1      -0.983647394579
  2      -0.047636232532
  3       0.042262378770
  4      -0.000400321478
  5       0.000304425304
  6       0.000494264542
  7      -0.004374135673
  8      -0.002389221984
  9       0.005228245566
 10      -0.000915902794
 11       0.000256297272
 12       0.000947762066
 13      -0.001666912529
 14      -0.000669093356
 15      -0.091915610939
 16       0.000151041438
 17      -0.016202097852
 18      -0.000156787419
 19       0.000827840429
 20      -0.002576586233
 21       0.002675200244
 22      -0.001332901843
 23       0.005388445421
 24       0.001034538205
 25       0.000025183225
 26      -0.000705110570
 27       0.000151934705
 28       0.000044732097
 29       0.004708162649
 30      -0.006165682990
 31      -0.002533673723
 32      -0.000547347309
 33       0.001305816451
 34      -0.000129261857
 35      -0.000396484648
 36       0.000074801718
 37      -0.000069566323
 38       0.000300442616
 39       0.000519673598
 40       0.001166696755
 41      -0.000042966711
 42      -0.000102270587
 43       0.000336790124
 44       0.026342737620
 45       0.001892382471
 46      -0.000740699967
 47       0.001724899772
 48       0.000479739745
 49       0.001391114907
 50      -0.000809600098
 51      -0.004806785028
 52      -0.006236881609
 53      -0.000182915524
 54       0.001194425008
 55       0.000002142699
 56       0.001090094449
 57       0.000092408112
 58      -0.000204882829
 59       0.001562359212
 60      -0.000399818039
 61       0.000195813480
 62      -0.000066649836
 63      -0.000909507678
 64      -0.000039225101
 65      -0.000331922116
 66       0.000334281780
 67      -0.000059791828
 68      -0.000170780746
 69      -0.014704172568
 70      -0.000513424633
 71      -0.000156629416
 72      -0.000328089487
 73       0.000009129315
 74      -0.000016687307
 75       0.000157499237
 76      -0.001726914820
 77       0.006121407200
 78       0.000010025230
 79      -0.000024629720
 80      -0.000000511821
 81      -0.000033470674
 82       0.000086161517
 83       0.000003072722
 84       0.000097929624
 85      -0.000537953673
 86      -0.000109183287
 87       0.000399560242
 88       0.003638737586
 89       0.001618453611
 90      -0.000014776702
 91      -0.000000948361
 92       0.000042016669
 93      -0.000046521321
 94       0.000014653975
 95       0.000069096412
 96       0.000000869654
 97      -0.000200510801
 98       0.000218800731
 99      -0.000070876283
100      -0.000211367894
101       0.000045893481
102       0.000665006285
103      -0.000684363314
104       0.000244031740
 Sym=     1a
 Ene= -1.02185133916065E+01
 Spin= Alpha
 Occup= 1.000000
  1       0.091054452445
  2       0.008527733068
  3      -0.013117841252
  4       0.000406658534
  5      -0.000737874736
  6       0.002569140180
  7       0.000709000244
  8      -0.000544919208
  9       0.002475197511
 10       0.001386139439
 11       0.000017141154
 12      -0.000961840818
 13       0.000457596881
 14       0.000137422937
 15      -0.983830598278
 16      -0.048612500626
 17       0.030537057560
 18       0.000056670466
 19       0.000076964026
 20      -0.000220041673
 21      -0.001054826227
 22      -0.000207692109
 23      -0.000073529666
 24      -0.001076604235
 25      -0.000198711030
 26       0.001325843416
 27      -0.002090752693
 28      -0.000500366946
 29      -0.000364746621
 30       0.001968997631
 31       0.000345800251
 32       0.000295375674
 33      -0.000874283176
 34       0.004665448608
 35      -0.006836129478
 36      -0.002703782017
 37       0.000113508994
 38      -0.001414631137
 39       0.004177892874
 40      -0.007502752445
 41       0.002562174918
 42       0.000750619448
 43      -0.001415584570
 44       0.001133134313
 45      -0.000455155797
 46       0.005356416557
 47      -0.000378542949
 48       0.000007241156
 49      -0.000034961513
 50       0.003070580646
 51       0.000331636823
 52      -0.002431518525
 53      -0.000183688537
 54      -0.000235483926
 55       0.000072670769
 56      -0.000242395241
 57       0.000070520207
 58       0.000532576032
 59       0.001347346316
 60       0.000048144267
 61      -0.000101717694
 62      -0.000050062733
 63      -0.000726700847
 64      -0.001175607692
 65      -0.000082828652
 66       0.000082701088
 67       0.000132443068
 68       0.000086098444
 69      -0.002594287290
 70      -0.000035845411
 71      -0.000140427786
 72       0.000247394374
 73       0.000002595370
 74      -0.000004927931
 75       0.000044141011
 76      -0.000382565875
 77       0.001144617458
 78      -0.000000521420
 79      -0.000006310541
 80      -0.000004461446
 81       0.000001920535
 82       0.000021918854
 83       0.000015519529
 84      -0.000016004661
 85      -0.000121740691
 86      -0.000086535304
 87       0.000119589178
 88       0.000648539818
 89       0.000402459087
 90      -0.000000488593
 91       0.000002599834
 92       0.000012415158
 93      -0.000005715120
 94       0.000002801209
 95       0.000002473847
 96      -0.000012084560
 97      -0.000057460091
 98       0.000027390508
 99      -0.000013141231
100      -0.000010143050
101       0.000034467760
102       0.000162388765
103      -0.000089715196
104       0.000039866226
 Sym=     1a
 Ene= -8.65478854623544E+00
 Spin= Alpha
 Occup= 1.000000
  1      -0.000029805579
  2       0.000398307139
  3      -0.000786185215
  4      -0.000035032688
  5      -0.000063774136
  6      -0.000021871140
  7      -0.000130571299
  8       0.000339799372
  9      -0.000749498359
 10       0.000012621406
 11      -0.000013386484
 12      -0.000013724032
 13       0.000010440583
 14       0.000024283432
 15      -0.000010186610
 16       0.000062825505
 17       0.000972687117
 18      -0.000005544779
 19      -0.000014734954
 20      -0.000015886160
 21      -0.000008198456
 22       0.000157127776
 23      -0.000482726234
 24      -0.000000329754
 25       0.000008240491
 26       0.000003828838
 27       0.000021842773
 28       0.000002949944
 29       0.000032944546
 30      -0.000016258544
 31       0.000011715267
 32      -0.000006177449
 33       0.000003612100
 34      -0.000017096944
 35       0.000019611992
 36      -0.000003851338
 37      -0.000010030672
 38       0.000013586463
 39       0.000017575261
 40      -0.000005101613
 41       0.000002396416
 42      -0.000000043426
 43       0.000005517026
 44      -0.000014576207
 45       0.000689773147
 46      -0.006338530364
 47       0.000049746657
 48       0.000102717655
 49       0.000048190234
 50      -0.000350396484
 51       0.002230036301
 52       0.001371491815
 53       0.000050010367
 54      -0.000030466780
 55      -0.000179406808
 56       0.000173254536
 57      -0.000016673237
 58       0.000020876364
 59       0.000041265451
 60      -0.000022129644
 61      -0.000001625601
 62       0.000032576659
 63       0.000202565816
 64       0.000235905552
 65       0.000042736603
 66       0.000023050129
 67      -0.000021775098
 68      -0.000154065991
 69       0.009694626119
 70       0.000049074463
 71       0.000511515546
 72       0.000258710042
 73       0.136664385414
 74      -0.516888867170
 75       1.093465627937
 76       0.032439969430
 77      -0.014676342095
 78      -0.000101514182
 79      -0.000612532578
 80      -0.000300374925
 81       0.000232918065
 82       0.001424258307
 83       0.000696958151
 84       0.000197939757
 85       0.000919696923
 86       0.000472324531
 87      -0.000649301308
 88      -0.003093913777
 89      -0.001597744064
 90      -0.000283293245
 91       0.000126990193
 92       0.000864811551
 93      -0.000864479684
 94       0.000260655112
 95      -0.000244457093
 96       0.000127625468
 97       0.000756106528
 98      -0.000743581692
 99       0.000253435716
100       0.000158742138
101      -0.000116443443
102      -0.000539438015
103       0.000501478351
104      -0.000223576007
 Sym=     1a
 Ene= -6.49022924943955E+00
 Spin= Alpha
 Occup= 1.000000
  1       0.000014218810
  2      -0.000229444900
  3       0.000557912223
  4       0.000018603650
  5       0.000036157609
  6       0.000011298111
  7      -0.000043164166
  8      -0.000218863883
  9       0.000286060274
 10      -0.000004733995
 11       0.000010463852
 12       0.000010918692
 13      -0.000003451994
 14      -0.000006238998
 15       0.000006069927