[Molden Format]
[Title]
 Molden file created by orca_2mkl for BaseName=radical_012

[Atoms] AU
C    1   6          1.2034286247         0.8241209054         0.3496012245 
C    2   6          1.3136714679         0.1007583077         2.7971593953 
H    3   1          2.9634401773         1.2864046095        -0.6403148032 
H    4   1          3.1094347493         0.0097850019         3.8105836162 
H    5   1         -0.3923978523        -0.4300884400         3.8400784617 
C    6   6         -1.1148741683         0.8559741291        -1.1568808906 
H    7   1         -2.8913924787         0.8917636523        -0.0793004675 
H    8   1         -1.1244531901         2.1382742534        -2.7925295663 
H    9   1         -1.2350834272        -1.1736692175        -2.2072209114 
Br  10  35         -1.8145282619        -4.1677702014        -3.7591698372 
[GTO]
  1 0
s   5 1.0 
     1238.4016938000         0.8208956682
      186.2900499200         1.4766449896
       42.2511763460         2.1526124058
       11.6765579320         2.1081722461
        3.5930506482         0.8290999933
s   1 1.0 
        0.4024514736         0.3601183351
s   1 1.0 
        0.1309018267         0.1551027052
p   3 1.0 
        9.4680970621         1.3467645142
        2.0103545142         1.0678070931
        0.5477100471         0.5108735714
p   1 1.0 
        0.1526861379         0.1360471976
d   1 1.0 
        0.8000000000         1.9292013661

  2 0
s   5 1.0 
     1238.4016938000         0.8208956682
      186.2900499200         1.4766449896
       42.2511763460         2.1526124058
       11.6765579320         2.1081722461
        3.5930506482         0.8290999933
s   1 1.0 
        0.4024514736         0.3601183351
s   1 1.0 
        0.1309018267         0.1551027052
p   3 1.0 
        9.4680970621         1.3467645142
        2.0103545142         1.0678070931
        0.5477100471         0.5108735714
p   1 1.0 
        0.1526861379         0.1360471976
d   1 1.0 
        0.8000000000         1.9292013661

  3 0
s   3 1.0 
       13.0107010000         0.1634903809
        1.9622572000         0.2773515510
        0.4445379600         0.3157501452
s   1 1.0 
        0.1219496200         0.1470772262
p   1 1.0 
        0.8000000000         1.0784563492

  4 0
s   3 1.0 
       13.0107010000         0.1634903809
        1.9622572000         0.2773515510
        0.4445379600         0.3157501452
s   1 1.0 
        0.1219496200         0.1470772262
p   1 1.0 
        0.8000000000         1.0784563492

  5 0
s   3 1.0 
       13.0107010000         0.1634903809
        1.9622572000         0.2773515510
        0.4445379600         0.3157501452
s   1 1.0 
        0.1219496200         0.1470772262
p   1 1.0 
        0.8000000000         1.0784563492

  6 0
s   5 1.0 
     1238.4016938000         0.8208956682
      186.2900499200         1.4766449896
       42.2511763460         2.1526124058
       11.6765579320         2.1081722461
        3.5930506482         0.8290999933
s   1 1.0 
        0.4024514736         0.3601183351
s   1 1.0 
        0.1309018267         0.1551027052
p   3 1.0 
        9.4680970621         1.3467645142
        2.0103545142         1.0678070931
        0.5477100471         0.5108735714
p   1 1.0 
        0.1526861379         0.1360471976
d   1 1.0 
        0.8000000000         1.9292013661

  7 0
s   3 1.0 
       13.0107010000         0.1634903809
        1.9622572000         0.2773515510
        0.4445379600         0.3157501452
s   1 1.0 
        0.1219496200         0.1470772262
p   1 1.0 
        0.8000000000         1.0784563492

  8 0
s   3 1.0 
       13.0107010000         0.1634903809
        1.9622572000         0.2773515510
        0.4445379600         0.3157501452
s   1 1.0 
        0.1219496200         0.1470772262
p   1 1.0 
        0.8000000000         1.0784563492

  9 0
s   3 1.0 
       13.0107010000         0.1634903809
        1.9622572000         0.2773515510
        0.4445379600         0.3157501452
s   1 1.0 
        0.1219496200         0.1470772262
p   1 1.0 
        0.8000000000         1.0784563492

 10 0
s   6 1.0 
   113286.3877600000         7.5076141183
    17009.6263030000        13.8835270484
     3870.1842567000        22.7307285566
     1093.0357227000        30.8227297499
      356.3972179700        27.2481937511
      123.1253964300         9.6953381145
s   3 1.0 
      236.7408400700        -4.7631125758
       28.4686610700         5.6113863182
       11.8834437220         1.9900291396
s   3 1.0 
       21.2696333120        -1.5429794477
        3.6129226841         1.3310800628
        1.6626648969         0.4300130345
s   1 1.0 
        0.3482379323         0.3230852630
s   1 1.0 
        0.1301903139         0.1544699827
p   5 1.0 
     1560.2801881000       115.0180051576
      368.4785920500       143.9035925417
      117.2297884900       137.5255986684
       42.6489092480        78.9578527439
       16.0872250960        15.8580577654
p   3 1.0 
        8.6352810058         6.8437546680
        3.5613665502         3.7974971038
        1.5292626609         0.5585414278
p   1 1.0 
        0.5306429485         0.6455696201
p   1 1.0 
        0.1570275896         0.1408996918
d   4 1.0 
      104.8551864200       261.4493931636
       30.2811436880       176.6993802449
       10.6513942670        76.9545600188
        3.8699456233        17.5937671387
d   1 1.0 
        1.3240876762         4.6593398042
d   1 1.0 
        0.3890000000         0.5462379705

[5D]
[7F]
[9G]
[MO]
 Sym=     1a
 Ene= -4.82757536144342E+02
 Spin= Alpha
 Occup= 1.000000
  1      -0.000005796750
  2       0.000083840916
  3      -0.000215993042
  4      -0.000008596909
  5      -0.000015345047
  6      -0.000005613621
  7       0.000007983853
  8       0.000070604199
  9      -0.000131623224
 10       0.000001787085
 11      -0.000002832596
 12      -0.000002069695
 13       0.000001467751
 14       0.000004922548
 15      -0.000001591490
 16       0.000010767951
 17       0.000202491843
 18      -0.000000450179
 19      -0.000003524361
 20      -0.000003209845
 21      -0.000016521807
 22       0.000028795590
 23      -0.000097796874
 24      -0.000000052566
 25       0.000002266067
 26       0.000001409038
 27       0.000004837078
 28       0.000000576102
 29       0.000005323620
 30      -0.000003620641
 31       0.000001794899
 32      -0.000002370634
 33      -0.000001215091
 34      -0.000002041348
 35       0.000007546980
 36      -0.000000674830
 37      -0.000002301659
 38       0.000003237060
 39       0.000001216190
 40      -0.000007752089
 41       0.000000437678
 42      -0.000000194146
 43       0.000001398903
 44      -0.000005939862
 45       0.000143944077
 46      -0.001099190882
 47       0.000009385857
 48      -0.000000136148
 49       0.000000438744
 50      -0.000045784053
 51       0.000403992584
 52       0.000260682827
 53       0.000006603930
 54      -0.000005473917
 55      -0.000021887240
 56       0.000021758392
 57      -0.000004279273
 58       0.000008274803
 59      -0.000006184495
 60      -0.000005202925
 61      -0.000000545436
 62       0.000005810519
 63       0.000040719916
 64       0.000031900211
 65       0.000007028458
 66       0.000003357798
 67      -0.000005244457
 68       0.000003535154
 69       0.001651461972
 70      -0.000003799407
 71       0.000024438521
 72       0.000011340549
 73       0.994982527175
 74       0.015687618708
 75      -0.003911348569
 76       0.002368041612
 77      -0.001847606741
 78       0.000001843478
 79       0.000008113630
 80       0.000004156790
 81      -0.000006199063
 82      -0.000026795793
 83      -0.000013771809
 84       0.000029871100
 85       0.000130956199
 86       0.000067483056
 87      -0.000109643382
 88      -0.000515648325
 89      -0.000266903525
 90       0.000003226907
 91      -0.000002499731
 92      -0.000011466935
 93       0.000010512283
 94      -0.000004949522
 95      -0.000012501020
 96       0.000009632537
 97       0.000044426058
 98      -0.000040759086
 99       0.000019052546
100       0.000031059661
101      -0.000023706240
102      -0.000110696759
103       0.000101676580
104      -0.000046593951
 Sym=     1a
 Ene= -6.24406421568347E+01
 Spin= Alpha
 Occup= 1.000000
  1      -0.000013669023
  2       0.000200415870
  3      -0.000504847381
  4      -0.000020351115
  5      -0.000036400993
  6      -0.000013313614
  7       0.000011364387
  8       0.000168861855
  9      -0.000320386900
 10       0.000004485140
 11      -0.000006644863
 12      -0.000005052681
 13       0.000003693801
 14       0.000011794263
 15      -0.000003801311
 16       0.000026389800
 17       0.000484035775
 18      -0.000001288399
 19      -0.000008389010
 20      -0.000007756774
 21      -0.000035945913
 22       0.000069909952
 23      -0.000234414684
 24      -0.000000106742
 25       0.000005305478
 26       0.000003237217
 27       0.000011394238
 28       0.000001363276
 29       0.000013238326
 30      -0.000009145478
 31       0.000004458390
 32      -0.000005395077
 33      -0.000002463757
 34      -0.000005227828
 35       0.000017319627
 36      -0.000001651445
 37      -0.000005452838
 38       0.000007571811
 39       0.000003639163
 40      -0.000016947179
 41       0.000001050639
 42      -0.000000419705
 43       0.000003218194
 44      -0.000012961435
 45       0.000340934815
 46      -0.002692734290
 47       0.000022963574
 48       0.000007275072
 49       0.000004613948
 50      -0.000117495866
 51       0.000984976342
 52       0.000631351819
 53       0.000017053848
 54      -0.000013389223
 55      -0.000057310305
 56       0.000056671779
 57      -0.000010046826
 58       0.000018416584
 59      -0.000013256915
 60      -0.000012415768
 61      -0.000001364459
 62       0.000014337775
 63       0.000097414763
 64       0.000079193570
 65       0.000017418467
 66       0.000008201548
 67      -0.000012703127
 68       0.000005797881
 69       0.004044368138
 70      -0.000005587880
 71       0.000080114657
 72       0.000038217461
 73       0.347188913531
 74      -1.046962166060
 75      -0.018561580211
 76       0.006393819970
 77      -0.004679145936
 78      -0.000020455248
 79      -0.000136961996
 80      -0.000066347707
 81      -0.000017427000
 82      -0.000079251660
 83      -0.000040475683
 84       0.000073643692
 85       0.000325106993
 86       0.000167562128
 87      -0.000267780132
 88      -0.001261100803
 89      -0.000652843607
 90       0.000020783778
 91      -0.000011900054
 92      -0.000068195696
 93       0.000065619054
 94      -0.000023898865
 95      -0.000033907238
 96       0.000024713407
 97       0.000117977383
 98      -0.000109362879
 99       0.000048763954
100       0.000075507016
101      -0.000057271743
102      -0.000267659485
103       0.000246225883
104      -0.000112244634
 Sym=     1a
 Ene= -5.62738967573999E+01
 Spin= Alpha
 Occup= 1.000000
  1      -0.000014437711
  2       0.000232250686
  3      -0.000631645513
  4      -0.000020067595
  5      -0.000041099920
  6      -0.000013034457
  7       0.000073367106
  8       0.000213323054
  9      -0.000273920663
 10       0.000003639391
 11      -0.000010916809
 12      -0.000009587434
 13       0.000002052162
 14       0.000006621898
 15      -0.000005191268
 16       0.000041853421
 17       0.000471472373
 18      -0.000003682656
 19      -0.000011600283
 20      -0.000011965351
 21      -0.000031705254
 22       0.000064359038
 23      -0.000219396892
 24      -0.000001489587
 25       0.000007801888
 26       0.000005779811
 27       0.000011972550
 28      -0.000000784867
 29       0.000020786298
 30      -0.000017962372
 31       0.000003377650
 32      -0.000007041280
 33      -0.000007686250
 34      -0.000009158647
 35       0.000013228477
 36       0.000000609637
 37      -0.000006246322
 38       0.000008001441
 39       0.000010311387
 40      -0.000021297756
 41      -0.000001002182
 42       0.000000982846
 43       0.000000606674
 44       0.000002809957
 45       0.000228164420
 46      -0.002778066747
 47       0.000027699233
 48       0.000096346526
 49       0.000046977728
 50      -0.000126501075
 51       0.001083758099
 52       0.000724290253
 53       0.000032154767
 54      -0.000018488061
 55      -0.000112556896
 56       0.000111500750
 57      -0.000009684779
 58      -0.000016273400
 59      -0.000085296479
 60      -0.000020653852
 61       0.000012974397
 62       0.000028198067
 63       0.000080576634
 64       0.000030529500
 65       0.000022956108
 66       0.000027955526
 67      -0.000013132395
 68       0.000123953955
 69       0.004841995950
 70       0.000012645344
 71       0.000226187328
 72       0.000111798228
 73      -0.000073889948
 74       0.000215903475
 75      -0.000172868558
 76       0.001096530481
 77      -0.002561488750
 78      -0.129951897213
 79      -0.880679600979
 80      -0.434798210012
 81      -0.003130086597
 82      -0.021166974246
 83      -0.010452049647
 84       0.000847375118
 85       0.005535541681
 86       0.002742185775
 87      -0.000608795983
 88      -0.003468860642
 89      -0.001750447118
 90       0.000012818475
 91      -0.000008712359
 92      -0.000044028424
 93       0.000041338636
 94      -0.000017336852
 95      -0.000037947366
 96       0.000027918028
 97       0.000134111839
 98      -0.000123998571
 99       0.000055324556
100       0.000092473610
101      -0.000068635336
102      -0.000329832496
103       0.000304173152
104      -0.000135144368
 Sym=     1a
 Ene= -5.62699519704440E+01
 Spin= Alpha
 Occup= 1.000000
  1       0.000006392646
  2      -0.000064031281
  3       0.000258565761
  4       0.000013596560
  5       0.000026091662
  6       0.000000619161
  7      -0.000037847108
  8      -0.000238358562
  9       0.000350361775
 10       0.000005567036
 11      -0.000001490389
 12      -0.000003554828
 13       0.000004686554
 14       0.000010934552
 15       0.000001817807
 16      -0.000014768581
 17      -0.000463568073
 18       0.000007553009
 19      -0.000004863756
 20       0.000007600455
 21      -0.000026846992
 22      -0.000004624018
 23       0.000188746224
 24      -0.000003485199
 25      -0.000004195825
 26      -0.000004944528
 27      -0.000005437842
 28       0.000001936783
 29       0.000021935399
 30       0.000081935996
 31      -0.000009301156
 32       0.000019529821
 33      -0.000001079060
 34       0.000016596097
 35       0.000034089270
 36       0.000000334280
 37      -0.000002876594
 38      -0.000010332223
 39      -0.000002856103
 40       0.000022043685
 41      -0.000003159981
 42      -0.000004125659
 43      -0.000009214991
 44      -0.000003096524
 45       0.000075642493
 46      -0.000410098575
 47      -0.000041758806
 48      -0.000024596053
 49       0.000001537631
 50       0.000334351948
 51       0.000378033828
 52      -0.000027898099
 53       0.000004381841
 54       0.000022078430
 55      -0.000022894596
 56       0.000003233913
 57       0.000010320435
 58       0.000153810533
 59       0.000027624173
 60      -0.000010031228
 61      -0.000017286403
 62      -0.000010069919
 63      -0.000043598359
 64      -0.000058218310
 65      -0.000034533421
 66      -0.000004823055
 67      -0.000011285059
 68       0.000029329244
 69       0.000641471497
 70       0.000040535301
 71       0.000011016185
 72      -0.000003422108
 73      -0.000001448821
 74       0.000003758366
 75      -0.000011444207
 76       0.000088483006
 77      -0.000261972783
 78      -0.946055949102
 79      -0.005663512641
 80       0.294235175122
 81      -0.022598105981
 82      -0.000140329077
 83       0.007024659831
 84       0.005483318546
 85       0.000059697179
 86      -0.001687341162
 87      -0.002067574051
 88      -0.000161978453
 89       0.000552702565
 90       0.000004692457
 91      -0.000007252583
 92       0.000001941170
 93       0.000000024157
 94      -0.000015893442
 95      -0.000007343534
 96       0.000010470261
 97       0.000005061719
 98      -0.000006549574
 99       0.000021253891
100       0.000015175038
101      -0.000019309075
102      -0.000020420707
103       0.000021850829
104      -0.000038146747
 Sym=     1a
 Ene= -5.62699410574058E+01
 Spin= Alpha
 Occup= 1.000000
  1      -0.000008348429
  2       0.000075212241
  3       0.000021421618
  4      -0.000013520866
  5      -0.000023802659
  6      -0.000028825807
  7      -0.000083806950
  8       0.000023467434
  9       0.000218704290
 10      -0.000007608507
 11       0.000000745238
 12       0.000002861832
 13      -0.000000194990
 14      -0.000003534441
 15       0.000000844967
 16      -0.000025465317
 17      -0.000124994991
 18       0.000008531338
 19      -0.000009872550
 20       0.000005348267
 21      -0.000075934602
 22      -0.000029845840
 23       0.000004503454
 24       0.000004793544
 25      -0.000002363424
 26       0.000004086609
 27       0.000003932297
 28       0.000001742691
 29       0.000037180967
 30       0.000080883688
 31      -0.000005438604
 32      -0.000012844122
 33      -0.000010324295
 34       0.000017608184
 35       0.000056992784
 36      -0.000003359754
 37       0.000000611140
 38      -0.000002878598
 39      -0.000009428361
 40      -0.000017376331
 41      -0.000001279793
 42      -0.000001004118
 43       0.000001713344
 44      -0.000002500589
 45       0.000006950558
 46       0.000176602735
 47       0.000015909578
 48      -0.000011816056
 49       0.000047394481
 50       0.000007157089
 51       0.000009283884
 52      -0.000402806025
 53       0.000000263589
 54      -0.000000423632
 55      -0.000017471955
 56      -0.000028778501
 57      -0.000002879602
 58       0.000056690335
 59       0.000050412874
 60       0.000023975273
 61      -0.000008957852
 62       0.000031090295
 63      -0.000141460115
 64      -0.000053198000
 65       0.000007616905
 66       0.000014510443
 67       0.000004337381
 68      -0.000025360912
 69      -0.000264109054
 70      -0.000014416382
 71       0.000010399619
 72      -0.000041705350
 73       0.000000294917
 74      -0.000000573970
 75       0.000005941679
 76      -0.000040701900
 77       0.000111018011
 78       0.264038121574
 79      -0.453791160651
 80       0.840230051236
 81       0.006307497211
 82      -0.010835548595
 83       0.020069441020
 84      -0.001532355348
 85       0.002611078840
 86      -0.004867287657
 87       0.000582022541
 88      -0.000908617477
 89       0.001834004650
 90       0.000010521381
 91       0.000004397384
 92       0.000010408917
 93       0.000006659640
 94       0.000003409641
 95      -0.000010535534
 96      -0.000005761454
 97      -0.000013973836
 98      -0.000004617570
 99      -0.000005009390
100       0.000014579895
101       0.000009851361
102       0.000026080349
103       0.000002297414
104       0.000009535392
 Sym=     1a
 Ene= -1.02236936924376E+01
 Spin= Alpha
 Occup= 1.000000
  1      -0.030692885707
  2      -0.000327208641
  3      -0.004399792040
  4      -0.001346649060
  5       0.000385048432
  6      -0.000994867220
  7      -0.000506475410
  8      -0.001570529890
  9       0.004998703943
 10      -0.000011543376
 11       0.001295359920
 12      -0.000139857829
 13       0.001062632032
 14      -0.000113555434
 15      -0.003608166868
 16       0.000191400804
 17      -0.005484096886
 18      -0.000259658198
 19       0.000012094101
 20       0.000021734353
 21       0.004649677671
 22      -0.000281628070
 23       0.002996170147
 24      -0.000146096071
 25       0.000019789875
 26       0.000111637905
 27      -0.000234048991
 28      -0.000121208933
 29       0.000536352149
 30       0.001216866243
 31       0.000268693261
 32       0.000068668266
 33       0.000181747649
 34      -0.000742338013
 35      -0.001885428900
 36       0.000043332171
 37       0.000006426804
 38       0.000008568031
 39       0.000888325547
 40       0.001781245161
 41       0.000012548905
 42       0.000071704559
 43      -0.000145939961
 44      -0.987214369942
 45      -0.053624668592
 46       0.055198494902
 47       0.000642580261
 48       0.000771811603
 49       0.000787013929
 50       0.002006663285
 51      -0.007006961787
 52      -0.003096183194
 53      -0.000325225279
 54       0.000439328012
 55       0.000626264471
 56      -0.000273181131
 57       0.000062753510
 58       0.002804462194
 59      -0.007403083852
 60       0.002278840404
 61       0.000137181581
 62      -0.001613983361
 63       0.002710768186
 64      -0.007934303503
 65      -0.000240933241
 66      -0.001664525800
 67       0.002299618596
 68       0.001713072716
 69      -0.024915539045
 70       0.000001437072
 71       0.002382045967
 72       0.001031587765
 73       0.000009020324
 74      -0.000014864337
 75       0.000161492654
 76      -0.002089222258
 77       0.008278070717
 78      -0.000002818849
 79      -0.000005015735
 80       0.000002365429
 81       0.000010945993
 82       0.000021996731
 83      -0.000005530304
 84      -0.000121092476
 85      -0.000387232238
 86      -0.000126823176
 87       0.001013579147
 88       0.004482065161
 89       0.002182244359
 90      -0.000020025772
 91       0.000015815909
 92       0.000051239303
 93      -0.000049338595
 94       0.000033443996
 95       0.000095504029
 96      -0.000075144997
 97      -0.000249968703
 98       0.000240006241
 99      -0.000158230262
100      -0.000291456929
101       0.000223809639
102       0.000826577723
103      -0.000787049774
104       0.000463916766
 Sym=     1a
 Ene= -1.02201127187140E+01
 Spin= Alpha
 Occup= 1.000000
  1      -0.985363828702
  2      -0.047710133775
  3       0.042281521756
  4      -0.000468264922
  5       0.000330170880
  6       0.000414066028
  7      -0.004398631869
  8      -0.002369130168
  9       0.004931654530
 10      -0.000968511834
 11       0.000304158261
 12       0.000949238050
 13      -0.001629694632
 14      -0.000695211521
 15      -0.069500894662
 16       0.001292683033
 17      -0.016677844508
 18      -0.000158348303
 19       0.000824321535
 20      -0.002580864459
 21       0.002729716392
 22      -0.001263486759
 23       0.005282389408
 24       0.001047963169
 25       0.000040069691
 26      -0.000726819820
 27       0.000204086986
 28       0.000058125279
 29       0.004709554543
 30      -0.006206828135
 31      -0.002539132682
 32      -0.000552409481
 33       0.001332540267
 34      -0.000252861898
 35      -0.000256693562
 36       0.000139451419
 37      -0.000075693729
 38       0.000341582719
 39       0.000427072041
 40       0.001363919002
 41      -0.000096555759
 42      -0.000120962722
 43       0.000374646837
 44       0.030233327949
 45       0.001961415948
 46      -0.000380522088
 47       0.001666293220
 48       0.000469978192
 49       0.001342086120
 50      -0.000971930530
 51      -0.004971515521
 52      -0.006175123162
 53      -0.000183605926
 54       0.001217936780
 55       0.000052859402
 56       0.001058334856
 57       0.000118338544
 58      -0.000185084444
 59       0.001437422749
 60      -0.000385634160
 61       0.000197033916
 62      -0.000076994723
 63      -0.000821829418
 64      -0.000022940736
 65      -0.000324558726
 66       0.000327867399
 67      -0.000041110927
 68      -0.000213780402
 69      -0.014825085169
 70      -0.000507412591
 71      -0.000189876996
 72      -0.000341787467
 73       0.000009184346
 74      -0.000016810903
 75       0.000158381294
 76      -0.001712918312
 77       0.005876793178
 78       0.000009403111
 79      -0.000024435998
 80      -0.000001079921
 81      -0.000031373607
 82       0.000085465848
 83       0.000004984905
 84       0.000089815177
 85      -0.000534040239
 86      -0.000116761886
 87       0.000391781593
 88       0.003524468280
 89       0.001578692191
 90      -0.000014263873
 91      -0.000000684016
 92       0.000041660911
 93      -0.000045674898
 94       0.000014572624
 95       0.000066898866
 96      -0.000000280300
 97      -0.000199134893
 98       0.000215284704
 99      -0.000070480808
100      -0.000205445046
101       0.000047909325
102       0.000659328135
103      -0.000673718690
104       0.000241907123
 Sym=     1a
 Ene= -1.02158136500110E+01
 Spin= Alpha
 Occup= 1.000000
  1       0.068657484452
  2       0.007472002790
  3      -0.012227270486
  4       0.000403777629
  5      -0.000732357402
  6       0.002602427258
  7       0.000620305300
  8      -0.000482858077
  9       0.002306834714
 10       0.001360777525
 11       0.000010548953
 12      -0.000927463329
 13       0.000415303612
 14       0.000129572130
 15      -0.985677828782
 16      -0.048557508214
 17       0.030421710964
 18       0.000043807569
 19       0.000115214447
 20      -0.000284981570
 21      -0.000960829961
 22      -0.000232829857
 23      -0.000063319581
 24      -0.001061421398
 25      -0.000200533838
 26       0.001321368344
 27      -0.002104133238
 28      -0.000506536549
 29      -0.000287757872
 30       0.001775134918
 31       0.000297243236
 32       0.000278990863
 33      -0.000839725057
 34       0.004664727720
 35      -0.006873131293
 36      -0.002701684092
 37       0.000120043248
 38      -0.001402395277
 39       0.004197961648
 40      -0.007462958010
 41       0.002562355233
 42       0.000759788021
 43      -0.001402906150
 44       0.001587450163
 45      -0.000386755871
 46       0.005247594966
 47      -0.000321368965
 48       0.000009351131
 49      -0.000008244107
 50       0.002871954801
 51       0.000185798328
 52      -0.002399908069
 53      -0.000188463836
 54      -0.000209615023
 55       0.000071183304
 56      -0.000207458972
 57       0.000068867403
 58       0.000485163196
 59       0.001266127458
 60       0.000025550597
 61      -0.000103048116
 62      -0.000050295233
 63      -0.000705684238
 64      -0.001081276987
 65      -0.000075694902
 66       0.000095791148
 67       0.000136820551
 68       0.000075317623
 69      -0.002888293415
 70      -0.000047813993
 71      -0.000150517396
 72       0.000234856646
 73       0.000002761393
 74      -0.000005247975
 75       0.000046948226
 76      -0.000408699502
 77       0.001205695237
 78      -0.000000257680
 79      -0.000006639835
 80      -0.000004667698
 81       0.000001024128
 82       0.000023060596
 83       0.000016245819
 84      -0.000012522161
 85      -0.000128714094
 86      -0.000091350313
 87       0.000118613004
 88       0.000688998992
 89       0.000426959196
 90      -0.000000344596
 91       0.000002481373
 92       0.000013176492
 93      -0.000006269083
 94       0.000002785511
 95       0.000001831849
 96      -0.000011604189
 97      -0.000061119634
 98       0.000030016353
 99      -0.000013143823
100      -0.000009563904
101       0.000034019991
102       0.000174179486
103      -0.000098648188
104       0.000041123861
 Sym=     1a
 Ene= -8.65896488479986E+00
 Spin= Alpha
 Occup= 1.000000
  1       0.000031591194
  2      -0.000409958025
  3       0.000849444756
  4       0.000038770379
  5       0.000067812230
  6       0.000025274528
  7       0.000110125007
  8      -0.000347115313
  9       0.000750044022
 10      -0.000012434569
 11       0.000011569104
 12       0.000012781600
 13      -0.000011378091
 14      -0.000024848338
 15       0.000010278210
 16      -0.000062350090
 17      -0.000997295879
 18       0.000005334425
 19       0.000016264727
 20       0.000016122684
 21       0.000016501739
 22      -0.000159920876
 23       0.000493862804
 24       0.000000301975
 25      -0.000008776229
 26      -0.000004540121
 27      -0.000021775291
 28      -0.000002780772
 29      -0.000033196970
 30       0.000018424792
 31      -0.000011874167
 32       0.000007081407
 33      -0.000002371021
 34       0.000016266870
 35      -0.000022646814
 36       0.000003996088
 37       0.000010546480
 38      -0.000013765007
 39      -0.000017000079
 40       0.000008133530
 41      -0.000002555943
 42       0.000000199239
 43      -0.000005604905
 44       0.000016640854
 45      -0.000681875546
 46       0.006639803583
 47      -0.000053767059
 48      -0.000106995679
 49      -0.000052215681
 50       0.000360946655
 51      -0.002328895905
 52      -0.001422660768
 53      -0.000049616208
 54       0.000030532382
 55       0.000175055856
 56      -0.000170227180
 57       0.000017183773
 58      -0.000020586686
 59      -0.000018018803
 60       0.000022837652
 61       0.000003425882
 62      -0.000033919473
 63      -0.000203293782
 64      -0.000221964905
 65      -0.000044055774
 66      -0.000018777262
 67       0.000025143363
 68       0.000085951374
 69      -0.009938691677
 70      -0.000036611179
 71      -0.000460425853
 72      -0.000230371259
 73      -0.136664740085
 74       0.516889785738
 75      -1.093468715576
 76      -0.032440590161
 77       0.014582546985
 78       0.000082158778
 79       0.000512094017
 80       0.000249198273
 81      -0.000186484085
 82      -0.001183948481
 83      -0.000574454538
 84      -0.000195365516
 85      -0.000897149528
 86      -0.000462065197
 87       0.000647523673
 88       0.003071734779
 89       0.001590644815
 90       0.000297470997
 91      -0.000128536690
 92      -0.000906979894
 93       0.000909969083
 94      -0.000264616771
 95       0.000256551425
 96      -0.000130724375
 97      -0.000797009547
 98       0.000785259563
 99      -0.000261323901
100      -0.000167096076
101       0.000123102060
102       0.000574996297
103      -0.000533128296
104       0.000237737827
 Sym=     1a
 Ene= -6.49496706725427E+00
 Spin= Alpha
 Occup= 1.000000
  1       0.000015272291
  2      -0.000237124593
  3       0.000579636705
  4       0.000021025064
  5       0.000038825429
  6       0.000013781425
  7      -0.000046638590
  8      -0.000226075066
  9       0.000286643809
 10      -0.000004756434
 11       0.000009229761
 12       0.000010771466
 13      -0.000004466936
 14      -0.000006407899
 15       0.000006079081