[Molden Format]
[Title]
 Molden file created by orca_2mkl for BaseName=radical_042

[Atoms] AU
C    1   6          1.1703603071         0.9613225816         0.3732171320 
C    2   6          1.3281524393         0.0970657829         2.8410218286 
H    3   1          2.9419086378         1.3941095505        -0.6129723558 
H    4   1          3.1472576178        -0.1128109810         3.7933568727 
H    5   1         -0.3747119054        -0.3935770414         3.9073262559 
C    6   6         -1.0755621956         1.2985177540        -0.9595027753 
H    7   1         -2.9060567535         0.9371019617        -0.0663652921 
H    8   1         -1.0863827674         2.0804391851        -2.8701992001 
H    9   1         -1.2865236622        -2.1325918469        -2.6217795820 
Br  10  35         -1.8756892482        -4.4651242777        -3.9461072156 
[GTO]
  1 0
s   5 1.0 
     1238.4016938000         0.8208956682
      186.2900499200         1.4766449896
       42.2511763460         2.1526124058
       11.6765579320         2.1081722461
        3.5930506482         0.8290999933
s   1 1.0 
        0.4024514736         0.3601183351
s   1 1.0 
        0.1309018267         0.1551027052
p   3 1.0 
        9.4680970621         1.3467645142
        2.0103545142         1.0678070931
        0.5477100471         0.5108735714
p   1 1.0 
        0.1526861379         0.1360471976
d   1 1.0 
        0.8000000000         1.9292013661

  2 0
s   5 1.0 
     1238.4016938000         0.8208956682
      186.2900499200         1.4766449896
       42.2511763460         2.1526124058
       11.6765579320         2.1081722461
        3.5930506482         0.8290999933
s   1 1.0 
        0.4024514736         0.3601183351
s   1 1.0 
        0.1309018267         0.1551027052
p   3 1.0 
        9.4680970621         1.3467645142
        2.0103545142         1.0678070931
        0.5477100471         0.5108735714
p   1 1.0 
        0.1526861379         0.1360471976
d   1 1.0 
        0.8000000000         1.9292013661

  3 0
s   3 1.0 
       13.0107010000         0.1634903809
        1.9622572000         0.2773515510
        0.4445379600         0.3157501452
s   1 1.0 
        0.1219496200         0.1470772262
p   1 1.0 
        0.8000000000         1.0784563492

  4 0
s   3 1.0 
       13.0107010000         0.1634903809
        1.9622572000         0.2773515510
        0.4445379600         0.3157501452
s   1 1.0 
        0.1219496200         0.1470772262
p   1 1.0 
        0.8000000000         1.0784563492

  5 0
s   3 1.0 
       13.0107010000         0.1634903809
        1.9622572000         0.2773515510
        0.4445379600         0.3157501452
s   1 1.0 
        0.1219496200         0.1470772262
p   1 1.0 
        0.8000000000         1.0784563492

  6 0
s   5 1.0 
     1238.4016938000         0.8208956682
      186.2900499200         1.4766449896
       42.2511763460         2.1526124058
       11.6765579320         2.1081722461
        3.5930506482         0.8290999933
s   1 1.0 
        0.4024514736         0.3601183351
s   1 1.0 
        0.1309018267         0.1551027052
p   3 1.0 
        9.4680970621         1.3467645142
        2.0103545142         1.0678070931
        0.5477100471         0.5108735714
p   1 1.0 
        0.1526861379         0.1360471976
d   1 1.0 
        0.8000000000         1.9292013661

  7 0
s   3 1.0 
       13.0107010000         0.1634903809
        1.9622572000         0.2773515510
        0.4445379600         0.3157501452
s   1 1.0 
        0.1219496200         0.1470772262
p   1 1.0 
        0.8000000000         1.0784563492

  8 0
s   3 1.0 
       13.0107010000         0.1634903809
        1.9622572000         0.2773515510
        0.4445379600         0.3157501452
s   1 1.0 
        0.1219496200         0.1470772262
p   1 1.0 
        0.8000000000         1.0784563492

  9 0
s   3 1.0 
       13.0107010000         0.1634903809
        1.9622572000         0.2773515510
        0.4445379600         0.3157501452
s   1 1.0 
        0.1219496200         0.1470772262
p   1 1.0 
        0.8000000000         1.0784563492

 10 0
s   6 1.0 
   113286.3877600000         7.5076141183
    17009.6263030000        13.8835270484
     3870.1842567000        22.7307285566
     1093.0357227000        30.8227297499
      356.3972179700        27.2481937511
      123.1253964300         9.6953381145
s   3 1.0 
      236.7408400700        -4.7631125758
       28.4686610700         5.6113863182
       11.8834437220         1.9900291396
s   3 1.0 
       21.2696333120        -1.5429794477
        3.6129226841         1.3310800628
        1.6626648969         0.4300130345
s   1 1.0 
        0.3482379323         0.3230852630
s   1 1.0 
        0.1301903139         0.1544699827
p   5 1.0 
     1560.2801881000       115.0180051576
      368.4785920500       143.9035925417
      117.2297884900       137.5255986684
       42.6489092480        78.9578527439
       16.0872250960        15.8580577654
p   3 1.0 
        8.6352810058         6.8437546680
        3.5613665502         3.7974971038
        1.5292626609         0.5585414278
p   1 1.0 
        0.5306429485         0.6455696201
p   1 1.0 
        0.1570275896         0.1408996918
d   4 1.0 
      104.8551864200       261.4493931636
       30.2811436880       176.6993802449
       10.6513942670        76.9545600188
        3.8699456233        17.5937671387
d   1 1.0 
        1.3240876762         4.6593398042
d   1 1.0 
        0.3890000000         0.5462379705

[5D]
[7F]
[9G]
[MO]
 Sym=     1a
 Ene= -4.82769769719479E+02
 Spin= Alpha
 Occup= 1.000000
  1       0.000005630738
  2      -0.000066473831
  3       0.000072043479
  4       0.000007665300
  5       0.000016595283
  6       0.000007056570
  7       0.000055645549
  8      -0.000065814168
  9       0.000143132861
 10      -0.000001551839
 11       0.000001322374
 12      -0.000002102145
 13      -0.000000566033
 14      -0.000007142289
 15       0.000001071249
 16      -0.000003582593
 17      -0.000174097166
 18      -0.000001021755
 19       0.000002817186
 20       0.000001812621
 21       0.000017203520
 22      -0.000031124794
 23       0.000094582264
 24      -0.000001838700
 25       0.000000208378
 26      -0.000000268245
 27      -0.000004921790
 28      -0.000001492206
 29      -0.000004724176
 30      -0.000003512956
 31      -0.000002475708
 32       0.000005115845
 33      -0.000001247940
 34      -0.000000494264
 35      -0.000012600932
 36       0.000002212124
 37       0.000001645447
 38      -0.000002405127
 39       0.000001565364
 40       0.000005397857
 41      -0.000001046238
 42       0.000001564774
 43      -0.000003169786
 44       0.000008294700
 45      -0.000143131969
 46       0.000578043838
 47      -0.000007931595
 48       0.000024660411
 49       0.000006437717
 50       0.000073628426
 51      -0.000191357189
 52      -0.000090140541
 53      -0.000000908205
 54       0.000002180841
 55       0.000007063082
 56      -0.000004159301
 57       0.000003033323
 58      -0.000026275467
 59      -0.000038666004
 60      -0.000004582438
 61       0.000008859106
 62       0.000000225834
 63      -0.000041357542
 64      -0.000063962552
 65      -0.000006402484
 66       0.000006293718
 67      -0.000000490737
 68       0.000139690503
 69      -0.000845155497
 70      -0.000029247567
 71      -0.000147515575
 72      -0.000080288810
 73      -0.994982033220
 74      -0.015688751160
 75       0.003922167695
 76      -0.002309539494
 77       0.001638013130
 78      -0.000003396358
 79      -0.000012352704
 80      -0.000007110209
 81       0.000010921741
 82       0.000039298376
 83       0.000022681896
 84      -0.000041159355
 85      -0.000147995879
 86      -0.000085406502
 87       0.000090396693
 88       0.000335693412
 89       0.000192555295
 90      -0.000001207832
 91       0.000001618206
 92       0.000005927333
 93      -0.000004775721
 94       0.000002832954
 95       0.000003460948
 96      -0.000004680722
 97      -0.000017039834
 98       0.000013712254
 99      -0.000008227959
100      -0.000000605085
101       0.000001489358
102       0.000003955253
103      -0.000002854237
104       0.000002734495
 Sym=     1a
 Ene= -6.24528388756654E+01
 Spin= Alpha
 Occup= 1.000000
  1       0.000013519378
  2      -0.000161747106
  3       0.000174331815
  4       0.000018610207
  5       0.000039932879
  6       0.000017222874
  7       0.000134427373
  8      -0.000159694841
  9       0.000341003104
 10      -0.000003711843
 11       0.000003086906
 12      -0.000004658798
 13      -0.000001591796
 14      -0.000016736686
 15       0.000002575505
 16      -0.000008986808
 17      -0.000416449004
 18      -0.000002354781
 19       0.000006884719
 20       0.000004474395
 21       0.000040495526
 22      -0.000074261235
 23       0.000226200827
 24      -0.000004340136
 25       0.000000379165
 26      -0.000000744348
 27      -0.000011626931
 28      -0.000003423382
 29      -0.000012083302
 30      -0.000009298792
 31      -0.000005794365
 32       0.000012249726
 33      -0.000002762607
 34      -0.000001047489
 35      -0.000030025974
 36       0.000005172354
 37       0.000003885365
 38      -0.000005661448
 39       0.000003297802
 40       0.000013176685
 41      -0.000002452630
 42       0.000003645372
 43      -0.000007451620
 44       0.000019773528
 45      -0.000345802625
 46       0.001405158021
 47      -0.000019105625
 48       0.000058404857
 49       0.000015134736
 50       0.000175949817
 51      -0.000464767629
 52      -0.000218534834
 53      -0.000002330127
 54       0.000005344175
 55       0.000017020748
 56      -0.000010073043
 57       0.000007091591
 58      -0.000062520281
 59      -0.000096472331
 60      -0.000011202187
 61       0.000020332541
 62       0.000000273574
 63      -0.000098583060
 64      -0.000156171245
 65      -0.000015323219
 66       0.000014228184
 67      -0.000001755445
 68       0.000363504507
 69      -0.002095051763
 70      -0.000073256625
 71      -0.000366053047
 72      -0.000199663222
 73      -0.347186681611
 74       1.046958417949
 75       0.018586766803
 76      -0.006255609238
 77       0.004181832890
 78       0.000089886136
 79       0.000371607620
 80       0.000207603490
 81       0.000037332940
 82       0.000139178000
 83       0.000079756967
 84      -0.000104844312
 85      -0.000380149226
 86      -0.000219178721
 87       0.000223451284
 88       0.000832046395
 89       0.000477216751
 90      -0.000010002289
 91       0.000011070097
 92       0.000045472290
 93      -0.000037972614
 94       0.000019952810
 95       0.000010155370
 96      -0.000013107884
 97      -0.000048878435
 98       0.000039755731
 99      -0.000022715444
100      -0.000000849224
101       0.000003012940
102       0.000006907976
103      -0.000004694230
104       0.000004976235
 Sym=     1a
 Ene= -5.62846038604113E+01
 Spin= Alpha
 Occup= 1.000000
  1       0.000015430157
  2      -0.000178494375
  3       0.000076830465
  4       0.000022721298
  5       0.000045096166
  6       0.000020803211
  7       0.000190604336
  8      -0.000183948297
  9       0.000415899362
 10      -0.000005312039
 11       0.000001696313
 12      -0.000005025234
 13      -0.000003988021
 14      -0.000020309516
 15       0.000002931958
 16      -0.000012130055
 17      -0.000455235090
 18      -0.000003533490
 19       0.000008113996
 20       0.000004506592
 21       0.000047731231
 22      -0.000085796397
 23       0.000254131380
 24      -0.000004854556
 25       0.000001726752
 26      -0.000000472013
 27      -0.000013153796
 28      -0.000004234265
 29      -0.000010474518
 30      -0.000000927977
 31      -0.000007928389
 32       0.000013359546
 33      -0.000004513310
 34      -0.000003517237
 35      -0.000040293285
 36       0.000006555820
 37       0.000004218366
 38      -0.000004955714
 39       0.000003665246
 40       0.000014828792
 41      -0.000002507839
 42       0.000004526167
 43      -0.000008893126
 44       0.000020620995
 45      -0.000394306870
 46       0.001718226954
 47      -0.000026751597
 48       0.000062511083
 49       0.000012546258
 50       0.000261520178
 51      -0.000545132576
 52      -0.000229427535
 53      -0.000002557671
 54       0.000007049914
 55       0.000021982825
 56      -0.000014199768
 57       0.000007676450
 58      -0.000070670744
 59      -0.000110260406
 60      -0.000018079464
 61       0.000028215287
 62      -0.000000067931
 63      -0.000116158945
 64      -0.000190685822
 65      -0.000023095279
 66       0.000023087752
 67      -0.000005277229
 68       0.000664182016
 69      -0.002450231622
 70      -0.000198058551
 71      -0.000867888164
 72      -0.000483715027
 73       0.000187876862
 74      -0.000560125377
 75       0.000274261675
 76      -0.000958576191
 77       0.001729224251
 78       0.189752324651
 79       0.852938372057
 80       0.466868003792
 81       0.004588074103
 82       0.020583662243
 83       0.011271947546
 84      -0.001258608637
 85      -0.005528998809
 86      -0.003042584772
 87       0.000640848237
 88       0.002690281262
 89       0.001496187227
 90      -0.000010407428
 91       0.000011789143
 92       0.000047268520
 93      -0.000039480745
 94       0.000020810871
 95       0.000004706842
 96      -0.000006975123
 97      -0.000023295069
 98       0.000018520394
 99      -0.000011640008
100       0.000041052419
101      -0.000046295228
102      -0.000189763614
103       0.000157637235
104      -0.000082046228
 Sym=     1a
 Ene= -5.62824245401168E+01
 Spin= Alpha
 Occup= 1.000000
  1       0.000001033820
  2      -0.000015830980
  3       0.000143148659
  4       0.000003060202
  5       0.000008220545
  6      -0.000001856991
  7      -0.000060970688
  8      -0.000092063116
  9       0.000086228352
 10       0.000001009402
 11       0.000000329786
 12      -0.000001338889
 13       0.000003609651
 14       0.000003817155
 15       0.000000137238
 16      -0.000001387343
 17      -0.000165792249
 18       0.000005042400
 19      -0.000007958504
 20       0.000001342697
 21      -0.000013623107
 22       0.000020217812
 23       0.000048068193
 24      -0.000000931982
 25      -0.000002373202
 26      -0.000001907111
 27      -0.000002781602
 28       0.000001008702
 29       0.000006861925
 30       0.000034722004
 31      -0.000001122447
 32       0.000005739308
 33       0.000003002917
 34       0.000010087896
 35       0.000026914414
 36      -0.000001762310
 37      -0.000003393603
 38      -0.000005435475
 39      -0.000001060709
 40       0.000028507851
 41      -0.000000627874
 42      -0.000003191273
 43      -0.000005910512
 44      -0.000002876222
 45       0.000042154405
 46      -0.000149047814
 47      -0.000013141132
 48      -0.000019674762
 49       0.000007097975
 50       0.000044622379
 51       0.000107339813
 52      -0.000036641568
 53       0.000003516683
 54       0.000003936631
 55       0.000000450976
 56      -0.000002423991
 57      -0.000001474254
 58       0.000094629265
 59      -0.000107462550
 60      -0.000012799352
 61      -0.000005170197
 62       0.000010334027
 63      -0.000046187345
 64       0.000099896192
 65      -0.000008322667
 66      -0.000017816306
 67       0.000008018267
 68      -0.000001934771
 69       0.000132821689
 70      -0.000022039276
 71       0.000001108326
 72       0.000021208814
 73      -0.000001170544
 74       0.000003337250
 75      -0.000004091839
 76       0.000028127689
 77      -0.000089630515
 78      -0.679194574437
 79      -0.224179295014
 80       0.685614269185
 81      -0.016222791199
 82      -0.005356211160
 83       0.016373500964
 84       0.003921864541
 85       0.001302229004
 86      -0.003947767848
 87      -0.001446282874
 88      -0.000518926485
 89       0.001416658441
 90       0.000022036653
 91      -0.000007480817
 92       0.000017411419
 93       0.000002725699
 94      -0.000024445065
 95      -0.000006900172
 96       0.000003918076
 97      -0.000002065906
 98      -0.000003763108
 99       0.000008697290
100       0.000000889506
101      -0.000003338022
102      -0.000008117620
103       0.000007409511
104      -0.000003351509
 Sym=     1a
 Ene= -5.62824032445457E+01
 Spin= Alpha
 Occup= 1.000000
  1      -0.000007360927
  2       0.000083329340
  3      -0.000374302524
  4      -0.000018076078
  5      -0.000024682646
  6      -0.000017090181
  7       0.000220053991
  8       0.000125132995
  9       0.000119872869
 10      -0.000008041264
 11      -0.000007026680
 12       0.000004497996
 13      -0.000010961507
 14      -0.000009211580
 15      -0.000000546098
 16      -0.000005125013
 17       0.000089580482
 18       0.000000501493
 19      -0.000003573587
 20      -0.000003244744
 21      -0.000102186613
 22      -0.000037416499
 23      -0.000027967248
 24       0.000003565184
 25       0.000003224418
 26       0.000006580062
 27       0.000003589216
 28      -0.000002635377
 29       0.000000381376
 30      -0.000026190473
 31      -0.000003226660
 32      -0.000014778276
 33      -0.000017972880
 34       0.000009170210
 35       0.000027973732
 36       0.000001101529
 37       0.000002084297
 38       0.000002873521
 39      -0.000012154206
 40      -0.000066422938
 41      -0.000001464454
 42       0.000001625478
 43       0.000005463439
 44       0.000003630340
 45      -0.000067816106
 46       0.000481314912
 47       0.000020410835
 48       0.000030706950
 49       0.000032991994
 50       0.000041653138
 51      -0.000211855816
 52      -0.000061730392
 53       0.000004671756
 54      -0.000006619851
 55      -0.000003467272
 56      -0.000002569886
 57      -0.000000945765
 58      -0.000059419322
 59       0.000011178010
 60       0.000008410753
 61       0.000014585608
 62       0.000014261774
 63      -0.000091107052
 64       0.000080039684
 65       0.000006708790
 66       0.000008297612
 67       0.000015503430
 68       0.000011534989
 69      -0.000344823896
 70       0.000024829880
 71      -0.000046530163
 72       0.000003069754
 73       0.000004096896
 74      -0.000011796403
 75       0.000013059021
 76      -0.000075808742
 77       0.000227620794
 78       0.695923187097
 79      -0.451396212973
 80       0.541811913499
 81       0.016624601698
 82      -0.010773479026
 83       0.012945275628
 84      -0.004027154830
 85       0.002574240554
 86      -0.003144094239
 87       0.001504846871
 88      -0.000834661663
 89       0.001211895678
 90       0.000016296983
 91       0.000017997741
 92       0.000011909867
 93       0.000018685717
 94       0.000020421753
 95      -0.000003345020
 96      -0.000007916251
 97      -0.000011066650
 98      -0.000000314074
 99      -0.000009965392
100      -0.000003533285
101       0.000004407479
102       0.000015150639
103      -0.000011766207
104       0.000007071754
 Sym=     1a
 Ene= -1.02137055641442E+01
 Spin= Alpha
 Occup= 1.000000
  1      -0.132455649017
  2      -0.003632301153
  3      -0.004027700311
  4      -0.001902524546
  5       0.000689447793
  6      -0.001146287118
  7      -0.000787172959
  8      -0.001188686933
  9       0.003898112865
 10      -0.000134167402
 11       0.001080709532
 12      -0.000345822150
 13       0.000986264022
 14      -0.000446731620
 15      -0.026004141691
 16      -0.000522847547
 17      -0.003761931896
 18      -0.000260489980
 19       0.000106473227
 20      -0.000176710704
 21       0.004791344614
 22      -0.000489828350
 23       0.001993675563
 24      -0.000044584409
 25      -0.000049394407
 26       0.000071920371
 27      -0.000210311642
 28      -0.000042524591
 29       0.000870337799
 30       0.000604888261
 31       0.000210363361
 32      -0.000038205389
 33       0.000299920464
 34      -0.000688961751
 35      -0.001965297306
 36      -0.000034040952
 37      -0.000003443645
 38       0.000062544729
 39       0.000979948261
 40       0.001707952284
 41       0.000031300778
 42       0.000069658746
 43      -0.000107672072
 44      -0.978676439770
 45      -0.051121910670
 46       0.041646546562
 47       0.000725161154
 48       0.000749956693
 49       0.000733440373
 50       0.001849019689
 51      -0.004795609114
 52      -0.001557611764
 53      -0.000806354487
 54       0.000218483114
 55       0.001359224759
 56      -0.001429150993
 57      -0.000136052923
 58       0.003193190629
 59      -0.007476139212
 60       0.002393702010
 61       0.000920064582
 62      -0.001363331905
 63       0.003207410204
 64      -0.007775718296
 65      -0.000278648830
 66      -0.000837492608
 67       0.002839430018
 68      -0.000679772160
 69      -0.012637928327
 70       0.000062835552
 71      -0.000247223213
 72      -0.000148432614
 73       0.000013172430
 74      -0.000024325805
 75       0.000226522696
 76      -0.002235650695
 77       0.008268790330
 78      -0.000009684118
 79      -0.000022723007
 80      -0.000011707252
 81       0.000033992269
 82       0.000081226800
 83       0.000042104415
 84      -0.000201365465
 85      -0.000570316940
 86      -0.000309073945
 87       0.001181149578
 88       0.004282040655
 89       0.002411349608
 90      -0.000012186122
 91       0.000017712067
 92       0.000059447706
 93      -0.000047212138
 94       0.000031920392
 95       0.000057055002
 96      -0.000081992645
 97      -0.000278912480
 98       0.000222058845
 99      -0.000147619623
100      -0.000177508492
101       0.000241125643
102       0.000863135588
103      -0.000694965693
104       0.000432276550
 Sym=     1a
 Ene= -1.02122451102687E+01
 Spin= Alpha
 Occup= 1.000000
  1       0.657645731842
  2       0.029490407803
  3      -0.022478933267
  4      -0.000214162764
  5       0.000502922534
  6      -0.002091290336
  7       0.002355019360
  8       0.002377878524
  9      -0.005833004473
 10      -0.000506247811
 11      -0.000028792450
 12      -0.000091240152
 13       0.001216404415
 14       0.000199335227
 15       0.730177390566
 16       0.033096566616
 17      -0.009368835349
 18       0.000059144636
 19      -0.000726254697
 20       0.001970782300
 21      -0.000387635034
 22       0.001291338433
 23      -0.003717639005
 24      -0.000315965922
 25       0.000081774734
 26      -0.000252696881
 27       0.001259681958
 28       0.000161371251
 29      -0.003289207404
 30       0.003234931955
 31       0.001728595765
 32       0.000160652421
 33      -0.000367247075
 34      -0.003265248081
 35       0.004618326060
 36       0.001802600879
 37      -0.000144328765
 38       0.000745887132
 39      -0.003081807689
 40       0.004680957388
 41      -0.001676614393
 42      -0.000385091093
 43       0.000755895268
 44      -0.107781096813
 45      -0.007001723348
 46       0.007078300182
 47      -0.001134486002
 48      -0.000084835326
 49      -0.000994254151
 50      -0.002009762523
 51       0.000036158304
 52       0.005281511981
 53       0.000049547420
 54      -0.000563774919
 55       0.000313119672
 56      -0.000925364988
 57       0.000048572468
 58       0.000025423184
 59      -0.003416680919
 60       0.000559959870
 61      -0.000014022624
 62      -0.000111441124
 63       0.001723898938
 64       0.000209777664
 65       0.000299849477
 66      -0.000265353948
 67       0.000465822536
 68      -0.000416632614
 69       0.006112291383
 70       0.000097273129
 71      -0.000277332761
 72      -0.000146238715
 73      -0.000007353207
 74       0.000013453261
 75      -0.000126852839
 76       0.001273263097
 77      -0.004326481652
 78      -0.000002369749
 79       0.000019454924
 80       0.000004957095
 81       0.000007439641
 82      -0.000067889999
 83      -0.000017936322
 84       0.000016085492
 85       0.000428648177
 86       0.000161731818
 87      -0.000499295640
 88      -0.002450221716
 89      -0.001269509058
 90       0.000008627731
 91      -0.000007117369
 92      -0.000035649149
 93       0.000030661591
 94      -0.000016437842
 95      -0.000041303048
 96       0.000036185186
 97       0.000172463889
 98      -0.000147274263
 99       0.000080668927
100       0.000125389226
101      -0.000127692317
102      -0.000544245199
103       0.000456375909
104      -0.000259155976
 Sym=     1a
 Ene= -1.02118464595465E+01
 Spin= Alpha
 Occup= 1.000000
  1       0.725652642364
  2       0.037958033211
  3      -0.038334257871
  4       0.000344394407
  5      -0.000582494825
  6       0.001206207833
  7       0.003152678336
  8       0.000566595968
  9      -0.000671375643
 10       0.001469976660
 11       0.000090797319
 12      -0.001639642431
 13       0.001612342749
 14       0.000219255897
 15      -0.665161614187
 16      -0.035769577874
 17       0.031916118078
 18       0.000133952648
 19      -0.000515392100
 20       0.001387102433
 21      -0.001995533976
 22       0.000943238270
 23      -0.003041469839
 24      -0.001377048431
 25      -0.000112101716
 26       0.001591947556
 27      -0.001507895614
 28      -0.000194350972
 29      -0.003223562048
 30       0.005901776320
 31       0.001944050234
 32       0.000575726338
 33      -0.001468357637
 34       0.003379241111
 35      -0.005004402581
 36      -0.002033177502
 37       0.000253318000
 38      -0.001128157576
 39       0.002786067249
 40      -0.006063295335
 41       0.001899301451
 42       0.000567386426
 43      -0.001258296430
 44      -0.079904950455
 45      -0.006041400222
 46       0.012451245130
 47      -0.001630173851
 48      -0.000035507000
 49      -0.000911946748
 50       0.003535838388
 51       0.001218064821
 52       0.000986437373
 53      -0.000073256811
 54      -0.000781032074
 55       0.000453404966
 56      -0.001179419731
 57       0.000120354737
 58       0.001010074929
 59      -0.000469258389
 60       0.000636205942
 61      -0.000013743687
 62      -0.000119448591
 63       0.000362592578
 64      -0.001940119677
 65       0.000085003410
 66      -0.000231670194
 67       0.000468399105
 68      -0.000203219017
 69       0.003818104482
 70       0.000150757552
 71      -0.000172920842
 72       0.000100727871
 73      -0.000004785463
 74       0.000008796626
 75      -0.000082426933
 76       0.000797540964
 77      -0.002700954928
 78      -0.000004065816
 79       0.000013540500
 80       0.000002759903
 81       0.000013380169
 82      -0.000047325635
 83      -0.000010223040
 84      -0.000026061322
 85       0.000282538357
 86       0.000098692437
 87      -0.000249854820
 88      -0.001532766074
 89      -0.000791105527
 90       0.000004755572
 91      -0.000003501564
 92      -0.000023436554
 93       0.000020809817
 94      -0.000009704144
 95      -0.000021546279
 96       0.000018398101
 97       0.000111500759
 98      -0.000096684305
 99       0.000047279364
100       0.000060653857
101      -0.000069279062
102      -0.000337974868
103       0.000278460659
104      -0.000150046679
 Sym=     1a
 Ene= -8.67075524865035E+00
 Spin= Alpha
 Occup= 1.000000
  1       0.000036792854
  2      -0.000388501458
  3       0.000507517125
  4       0.000042550415
  5       0.000086156795
  6       0.000040185914
  7       0.000249079894
  8      -0.000376245113
  9       0.000649580358
 10      -0.000007034697
 11       0.000007884055
 12      -0.000003432896
 13      -0.000005261876
 14      -0.000028309155
 15       0.000008090091
 16      -0.000027313987
 17      -0.000867795059
 18      -0.000002502970
 19       0.000017162788
 20       0.000012622496
 21       0.000078936740
 22      -0.000147114328
 23       0.000467197117
 24      -0.000008182817
 25      -0.000001770409
 26      -0.000003977662
 27      -0.000022763240
 28      -0.000004535450
 29      -0.000039978024
 30      -0.000034675269
 31      -0.000009197732
 32       0.000026619480
 33       0.000000206131
 34       0.000000615682
 35      -0.000059038300
 36       0.000008467785
 37       0.000007684582
 38      -0.000011480063
 39       0.000000587307
 40       0.000033312660
 41      -0.000004103357
 42       0.000005795573
 43      -0.000013168432
 44       0.000047320009
 45      -0.000750356039
 46       0.003126329162
 47      -0.000041332379
 48       0.000104524004
 49       0.000024339696
 50       0.000326902096
 51      -0.001061000153
 52      -0.000514666363
 53      -0.000008938103
 54       0.000013104895
 55       0.000040042053
 56      -0.000026309244
 57       0.000012142243
 58      -0.000115409170
 59      -0.000238437284
 60      -0.000022425541
 61       0.000024046386
 62      -0.000006753116
 63      -0.000188603980
 64      -0.000347293904
 65      -0.000030485642
 66       0.000009288519
 67      -0.000010581408
 68       0.001073167258
 69      -0.005709425371
 70      -0.000150002208
 71      -0.000746857509
 72      -0.000408981450
 73      -0.136660219273
 74       0.516878496973
 75      -1.093418990682
 76      -0.032193396484
 77       0.013832377840
 78       0.000376565034
 79       0.001522733022
 80       0.000855466928
 81      -0.000886061943
 82      -0.003589942436
 83      -0.002015697167
 84      -0.000313089314
 85      -0.001181117525
 86      -0.000676301189
 87       0.000610159756
 88       0.002310442981
 89       0.001322459974
 90       0.000167733008
 91      -0.000181585848
 92      -0.000746858218
 93       0.000624946817
 94      -0.000325113865
 95       0.000129565623
 96      -0.000152863098
 97      -0.000595661037
 98       0.000491338441
 99      -0.000262686301
100      -0.000012443637
101       0.000022800142
102       0.000070108424
103      -0.000053567956
104       0.000033179884
 Sym=     1a
 Ene= -6.50359968375861E+00
 Spin= Alpha
 Occup= 1.000000
  1       0.000019288157
  2      -0.000231773233
  3       0.000337981206
  4       0.000026427478
  5       0.000050133729
  6       0.000024059039
  7       0.000099850418
  8      -0.000219419719
  9       0.000340718380
 10      -0.000003504915
 11       0.000004730914
 12      -0.000001296116
 13      -0.000002776845
 14      -0.000015071617
 15       0.000004501734