[Molden Format]
[Title]
 Molden file created by orca_2mkl for BaseName=radical_035

[Atoms] AU
C    1   6          1.1719514565         0.9424328792         0.3641218801 
C    2   6          1.3259187830         0.0930028717         2.8359309064 
H    3   1          2.9429328693         1.3725591137        -0.6237230078 
H    4   1          3.1417452867        -0.0944012690         3.7988295196 
H    5   1         -0.3787464707        -0.4017879014         3.8971916546 
C    6   6         -1.0760289579         1.2642607987        -0.9720921308 
H    7   1         -2.9043937945         0.8994132637        -0.0763940687 
H    8   1         -1.0914529026         2.0539017610        -2.8794267329 
H    9   1         -1.2850024327        -2.0575659400        -2.5960263943 
Br  10  35         -1.8641694777        -4.4073685779        -3.9104140684 
[GTO]
  1 0
s   5 1.0 
     1238.4016938000         0.8208956682
      186.2900499200         1.4766449896
       42.2511763460         2.1526124058
       11.6765579320         2.1081722461
        3.5930506482         0.8290999933
s   1 1.0 
        0.4024514736         0.3601183351
s   1 1.0 
        0.1309018267         0.1551027052
p   3 1.0 
        9.4680970621         1.3467645142
        2.0103545142         1.0678070931
        0.5477100471         0.5108735714
p   1 1.0 
        0.1526861379         0.1360471976
d   1 1.0 
        0.8000000000         1.9292013661

  2 0
s   5 1.0 
     1238.4016938000         0.8208956682
      186.2900499200         1.4766449896
       42.2511763460         2.1526124058
       11.6765579320         2.1081722461
        3.5930506482         0.8290999933
s   1 1.0 
        0.4024514736         0.3601183351
s   1 1.0 
        0.1309018267         0.1551027052
p   3 1.0 
        9.4680970621         1.3467645142
        2.0103545142         1.0678070931
        0.5477100471         0.5108735714
p   1 1.0 
        0.1526861379         0.1360471976
d   1 1.0 
        0.8000000000         1.9292013661

  3 0
s   3 1.0 
       13.0107010000         0.1634903809
        1.9622572000         0.2773515510
        0.4445379600         0.3157501452
s   1 1.0 
        0.1219496200         0.1470772262
p   1 1.0 
        0.8000000000         1.0784563492

  4 0
s   3 1.0 
       13.0107010000         0.1634903809
        1.9622572000         0.2773515510
        0.4445379600         0.3157501452
s   1 1.0 
        0.1219496200         0.1470772262
p   1 1.0 
        0.8000000000         1.0784563492

  5 0
s   3 1.0 
       13.0107010000         0.1634903809
        1.9622572000         0.2773515510
        0.4445379600         0.3157501452
s   1 1.0 
        0.1219496200         0.1470772262
p   1 1.0 
        0.8000000000         1.0784563492

  6 0
s   5 1.0 
     1238.4016938000         0.8208956682
      186.2900499200         1.4766449896
       42.2511763460         2.1526124058
       11.6765579320         2.1081722461
        3.5930506482         0.8290999933
s   1 1.0 
        0.4024514736         0.3601183351
s   1 1.0 
        0.1309018267         0.1551027052
p   3 1.0 
        9.4680970621         1.3467645142
        2.0103545142         1.0678070931
        0.5477100471         0.5108735714
p   1 1.0 
        0.1526861379         0.1360471976
d   1 1.0 
        0.8000000000         1.9292013661

  7 0
s   3 1.0 
       13.0107010000         0.1634903809
        1.9622572000         0.2773515510
        0.4445379600         0.3157501452
s   1 1.0 
        0.1219496200         0.1470772262
p   1 1.0 
        0.8000000000         1.0784563492

  8 0
s   3 1.0 
       13.0107010000         0.1634903809
        1.9622572000         0.2773515510
        0.4445379600         0.3157501452
s   1 1.0 
        0.1219496200         0.1470772262
p   1 1.0 
        0.8000000000         1.0784563492

  9 0
s   3 1.0 
       13.0107010000         0.1634903809
        1.9622572000         0.2773515510
        0.4445379600         0.3157501452
s   1 1.0 
        0.1219496200         0.1470772262
p   1 1.0 
        0.8000000000         1.0784563492

 10 0
s   6 1.0 
   113286.3877600000         7.5076141183
    17009.6263030000        13.8835270484
     3870.1842567000        22.7307285566
     1093.0357227000        30.8227297499
      356.3972179700        27.2481937511
      123.1253964300         9.6953381145
s   3 1.0 
      236.7408400700        -4.7631125758
       28.4686610700         5.6113863182
       11.8834437220         1.9900291396
s   3 1.0 
       21.2696333120        -1.5429794477
        3.6129226841         1.3310800628
        1.6626648969         0.4300130345
s   1 1.0 
        0.3482379323         0.3230852630
s   1 1.0 
        0.1301903139         0.1544699827
p   5 1.0 
     1560.2801881000       115.0180051576
      368.4785920500       143.9035925417
      117.2297884900       137.5255986684
       42.6489092480        78.9578527439
       16.0872250960        15.8580577654
p   3 1.0 
        8.6352810058         6.8437546680
        3.5613665502         3.7974971038
        1.5292626609         0.5585414278
p   1 1.0 
        0.5306429485         0.6455696201
p   1 1.0 
        0.1570275896         0.1408996918
d   4 1.0 
      104.8551864200       261.4493931636
       30.2811436880       176.6993802449
       10.6513942670        76.9545600188
        3.8699456233        17.5937671387
d   1 1.0 
        1.3240876762         4.6593398042
d   1 1.0 
        0.3890000000         0.5462379705

[5D]
[7F]
[9G]
[MO]
 Sym=     1a
 Ene= -4.82767959563166E+02
 Spin= Alpha
 Occup= 1.000000
  1       0.000005658199
  2      -0.000068256002
  3       0.000075805066
  4       0.000007633242
  5       0.000016630202
  6       0.000006952773
  7       0.000054749724
  8      -0.000065564272
  9       0.000144328015
 10      -0.000001735297
 11       0.000001530755
 12      -0.000001784561
 13      -0.000000571566
 14      -0.000007262885
 15       0.000001104504
 16      -0.000003944971
 17      -0.000176058560
 18      -0.000000978313
 19       0.000002778962
 20       0.000001818132
 21       0.000017001250
 22      -0.000030582756
 23       0.000095405615
 24      -0.000001732557
 25       0.000000089897
 26      -0.000000328597
 27      -0.000005052896
 28      -0.000001506619
 29      -0.000005070191
 30      -0.000003360757
 31      -0.000002408673
 32       0.000004899635
 33      -0.000001180873
 34      -0.000000297732
 35      -0.000012510758
 36       0.000002125274
 37       0.000001658213
 38      -0.000002465008
 39       0.000001403282
 40       0.000005642995
 41      -0.000000972732
 42       0.000001447404
 43      -0.000003102415
 44       0.000008150233
 45      -0.000147130408
 46       0.000610148503
 47      -0.000008216053
 48       0.000023155031
 49       0.000005932597
 50       0.000073230251
 51      -0.000205435314
 52      -0.000099172817
 53      -0.000001550091
 54       0.000002317771
 55       0.000009129300
 56      -0.000006374731
 57       0.000003130287
 58      -0.000025989356
 59      -0.000039652605
 60      -0.000004459945
 61       0.000008258413
 62      -0.000000104057
 63      -0.000042167944
 64      -0.000063832942
 65      -0.000006602955
 66       0.000005223263
 67      -0.000000598967
 68       0.000134378244
 69      -0.000903381363
 70      -0.000027795750
 71      -0.000146346489
 72      -0.000078816876
 73      -0.994981999732
 74      -0.015688822903
 75       0.003922629252
 76      -0.002318005438
 77       0.001673695958
 78      -0.000003336216
 79      -0.000012388462
 80      -0.000007006784
 81       0.000010750859
 82       0.000039467879
 83       0.000022381728
 84      -0.000040855951
 85      -0.000149857390
 86      -0.000084974172
 87       0.000093914022
 88       0.000356758653
 89       0.000201238216
 90      -0.000001353420
 91       0.000001675445
 92       0.000006246707
 93      -0.000005127984
 94       0.000002982657
 95       0.000003992273
 96      -0.000004983272
 97      -0.000018464605
 98       0.000015140851
 99      -0.000008906647
100      -0.000001887371
101       0.000002943222
102       0.000009441156
103      -0.000007437643
104       0.000005385022
 Sym=     1a
 Ene= -6.24510439271590E+01
 Spin= Alpha
 Occup= 1.000000
  1       0.000013542392
  2      -0.000165497363
  3       0.000180848793
  4       0.000018495642
  5       0.000039848539
  6       0.000016921326
  7       0.000132987840
  8      -0.000158754955
  9       0.000343774540
 10      -0.000004162140
 11       0.000003542091
 12      -0.000003855196
 13      -0.000001682944
 14      -0.000016999035
 15       0.000002646484
 16      -0.000009855602
 17      -0.000420078602
 18      -0.000002237269
 19       0.000006761128
 20       0.000004467627
 21       0.000039611654
 22      -0.000072853225
 23       0.000227656936
 24      -0.000004072863
 25       0.000000117315
 26      -0.000000869956
 27      -0.000011912318
 28      -0.000003452776
 29      -0.000012838911
 30      -0.000008839517
 31      -0.000005667891
 32       0.000011682727
 33      -0.000002657399
 34      -0.000000551131
 35      -0.000029681800
 36       0.000004964423
 37       0.000003901894
 38      -0.000005779738
 39       0.000002865974
 40       0.000013605648
 41      -0.000002276961
 42       0.000003357079
 43      -0.000007279133
 44       0.000019370838
 45      -0.000354710073
 46       0.001483369063
 47      -0.000019777757
 48       0.000054621436
 49       0.000013871936
 50       0.000175370239
 51      -0.000498322918
 52      -0.000239773623
 53      -0.000003800591
 54       0.000005641448
 55       0.000021793885
 56      -0.000015216349
 57       0.000007279106
 58      -0.000061691214
 59      -0.000099149236
 60      -0.000011020134
 61       0.000018851461
 62      -0.000000486457
 63      -0.000100455027
 64      -0.000155876033
 65      -0.000015818102
 66       0.000011696123
 67      -0.000002128471
 68       0.000350670801
 69      -0.002234164657
 70      -0.000069822585
 71      -0.000363762742
 72      -0.000196299126
 73      -0.347186620408
 74       1.046958243556
 75       0.018587998044
 76      -0.006275762574
 77       0.004266681533
 78       0.000086056618
 79       0.000366845688
 80       0.000201580600
 81       0.000036490030
 82       0.000139074608
 83       0.000078347880
 84      -0.000103881665
 85      -0.000384434273
 86      -0.000217821437
 87       0.000231584711
 88       0.000882170430
 89       0.000497579493
 90      -0.000010595285
 91       0.000010798750
 92       0.000045630715
 93      -0.000038837081
 94       0.000019785753
 95       0.000011460842
 96      -0.000013670393
 97      -0.000051965485
 98       0.000043044193
 99      -0.000024092669
100      -0.000003839880
101       0.000006422306
102       0.000019752733
103      -0.000015392586
104       0.000011163154
 Sym=     1a
 Ene= -5.62828044515465E+01
 Spin= Alpha
 Occup= 1.000000
  1       0.000015299888
  2      -0.000181390333
  3       0.000084553239
  4       0.000022083996
  5       0.000044967815
  6       0.000020067483
  7       0.000186599611
  8      -0.000182257303
  9       0.000416981983
 10      -0.000005823490
 11       0.000002336939
 12      -0.000004351271
 13      -0.000003670669
 14      -0.000020608152
 15       0.000003064861
 16      -0.000013835034
 17      -0.000455869913
 18      -0.000003277981
 19       0.000007994961
 20       0.000004687967
 21       0.000045777680
 22      -0.000083750544
 23       0.000253637524
 24      -0.000004516300
 25       0.000001393855
 26      -0.000000653739
 27      -0.000013387163
 28      -0.000004174069
 29      -0.000011375482
 30       0.000000551390
 31      -0.000007725346
 32       0.000012644230
 33      -0.000004391444
 34      -0.000002743182
 35      -0.000039494108
 36       0.000006219009
 37       0.000004263396
 38      -0.000005021843
 39       0.000002814793
 40       0.000015228693
 41      -0.000002205170
 42       0.000004175354
 43      -0.000008561693
 44       0.000019176656
 45      -0.000398192634
 46       0.001791268330
 47      -0.000027770568
 48       0.000054478016
 49       0.000009460698
 50       0.000261730465
 51      -0.000578986726
 52      -0.000254217172
 53      -0.000005145575
 54       0.000007504701
 55       0.000030652932
 56      -0.000023625893
 57       0.000008023036
 58      -0.000067717866
 59      -0.000109441903
 60      -0.000017373788
 61       0.000027095001
 62      -0.000000787474
 63      -0.000117190281
 64      -0.000188835893
 65      -0.000023785751
 66       0.000020712856
 67      -0.000005286730
 68       0.000641520914
 69      -0.002604426515
 70      -0.000191149024
 71      -0.000863118351
 72      -0.000474886927
 73       0.000185002391
 74      -0.000551362050
 75       0.000273600333
 76      -0.000977431251
 77       0.001824806862
 78       0.182750443102
 79       0.857272863949
 80       0.461694886213
 81       0.004419421018
 82       0.020686739172
 83       0.011146143680
 84      -0.001215203481
 85      -0.005555906039
 86      -0.003008008038
 87       0.000635601018
 88       0.002756811151
 89       0.001509016341
 90      -0.000010950053
 91       0.000011444174
 92       0.000047094951
 93      -0.000040094673
 94       0.000020514287
 95       0.000005804548
 96      -0.000007775983
 97      -0.000026626870
 98       0.000021644599
 99      -0.000013261492
100       0.000038953368
101      -0.000040210791
102      -0.000171106225
103       0.000145009377
104      -0.000072415752
 Sym=     1a
 Ene= -5.62806392618319E+01
 Spin= Alpha
 Occup= 1.000000
  1       0.000000928482
  2      -0.000014465449
  3       0.000140161138
  4       0.000002958372
  5       0.000008357372
  6      -0.000002325306
  7      -0.000063295012
  8      -0.000098145930
  9       0.000094250348
 10       0.000000889251
 11       0.000000093299
 12      -0.000001107383
 13       0.000003777329
 14       0.000004337928
 15       0.000000172332
 16      -0.000002393254
 17      -0.000171816272
 18       0.000005585458
 19      -0.000008577813
 20       0.000001549468
 21      -0.000017415609
 22       0.000022557719
 23       0.000048295498
 24      -0.000000827526
 25      -0.000002484834
 26      -0.000002198723
 27      -0.000002750920
 28       0.000001025731
 29       0.000007878958
 30       0.000039072981
 31      -0.000001304856
 32       0.000006106799
 33       0.000003002381
 34       0.000011028063
 35       0.000029545359
 36      -0.000001874450
 37      -0.000003755530
 38      -0.000005652210
 39      -0.000001569089
 40       0.000029614096
 41      -0.000000612512
 42      -0.000003470123
 43      -0.000006191905
 44      -0.000003208624
 45       0.000047953194
 46      -0.000163526746
 47      -0.000014115878
 48      -0.000021637743
 49       0.000008103104
 50       0.000053715760
 51       0.000123248772
 52      -0.000041990938
 53       0.000004291338
 54       0.000004179925
 55      -0.000000134274
 56      -0.000002177622
 57      -0.000001981239
 58       0.000102428661
 59      -0.000111346322
 60      -0.000013288523
 61      -0.000004984499
 62       0.000011592144
 63      -0.000049419836
 64       0.000100415488
 65      -0.000009337931
 66      -0.000019161599
 67       0.000007606998
 68      -0.000002015889
 69       0.000161172206
 70      -0.000021554066
 71       0.000002988064
 72       0.000021706046
 73      -0.000001452213
 74       0.000004152744
 75      -0.000004885159
 76       0.000033285049
 77      -0.000106893161
 78      -0.676929551755
 79      -0.225848551572
 80       0.687304148704
 81      -0.016169236839
 82      -0.005396642597
 83       0.016413965828
 84       0.003910442169
 85       0.001314009171
 86      -0.003957373474
 87      -0.001445616622
 88      -0.000532026796
 89       0.001416954274
 90       0.000021614667
 91      -0.000007386167
 92       0.000017197631
 93       0.000003073559
 94      -0.000024220660
 95      -0.000007186967
 96       0.000004199574
 97      -0.000001775442
 98      -0.000004343763
 99       0.000009254047
100       0.000001848105
101      -0.000004045481
102      -0.000008707537
103       0.000008579143
104      -0.000004760354
 Sym=     1a
 Ene= -5.62806175669316E+01
 Spin= Alpha
 Occup= 1.000000
  1      -0.000008048228
  2       0.000090101493
  3      -0.000379825648
  4      -0.000019246286
  5      -0.000027047741
  6      -0.000018546770
  7       0.000215095675
  8       0.000136471340
  9       0.000116755932
 10      -0.000008476802
 11      -0.000006919170
 12       0.000004800752
 13      -0.000011228734
 14      -0.000009581810
 15      -0.000000576129
 16      -0.000005898532
 17       0.000101125903
 18       0.000000729773
 19      -0.000003991832
 20      -0.000003287799
 21      -0.000105346308
 22      -0.000038346777
 23      -0.000034935180
 24       0.000003883711
 25       0.000003191816
 26       0.000006933644
 27       0.000004047307
 28      -0.000002596598
 29       0.000001734301
 30      -0.000024621700
 31      -0.000003216420
 32      -0.000016308726
 33      -0.000018348414
 34       0.000009551368
 35       0.000029577083
 36       0.000000920494
 37       0.000002117516
 38       0.000003104154
 39      -0.000012662675
 40      -0.000068321143
 41      -0.000001457807
 42       0.000001633487
 43       0.000005871394
 44       0.000003279449
 45      -0.000066599796
 46       0.000483498530
 47       0.000022012216
 48       0.000029780958
 49       0.000034403480
 50       0.000029945318
 51      -0.000217631814
 52      -0.000077039489
 53       0.000004881615
 54      -0.000007039686
 55      -0.000002555137
 56      -0.000004157880
 57      -0.000000657068
 58      -0.000060683314
 59       0.000013157020
 60       0.000009596312
 61       0.000013795691
 62       0.000015555975
 63      -0.000094836908
 64       0.000081606580
 65       0.000008008730
 66       0.000007413799
 67       0.000015415013
 68       0.000009576528
 69      -0.000365433558
 70       0.000024416308
 71      -0.000049679590
 72       0.000000904273
 73       0.000004300308
 74      -0.000012391329
 75       0.000013607620
 76      -0.000078072460
 77       0.000236404479
 78       0.699992053665
 79      -0.442260133719
 80       0.544099679011
 81       0.016722315338
 82      -0.010555111103
 83       0.013000346909
 84      -0.004052098979
 85       0.002520977289
 86      -0.003158366933
 87       0.001516165823
 88      -0.000812044354
 89       0.001219370098
 90       0.000015883361
 91       0.000017627986
 92       0.000012209084
 93       0.000018057523
 94       0.000020603327
 95      -0.000003371543
 96      -0.000008077692
 97      -0.000011203283
 98      -0.000000399873
 99      -0.000010361043
100      -0.000003106784
101       0.000004948702
102       0.000014897171
103      -0.000010814456
104       0.000007628856
 Sym=     1a
 Ene= -1.02145860556845E+01
 Spin= Alpha
 Occup= 1.000000
  1      -0.135049584119
  2      -0.003838786532
  3      -0.003769765873
  4      -0.001893328407
  5       0.000687819790
  6      -0.001142594527
  7      -0.000718195367
  8      -0.001242943579
  9       0.004205608720
 10      -0.000136624688
 11       0.001089134200
 12      -0.000337649245
 13       0.000984739035
 14      -0.000444164346
 15      -0.026318500049
 16      -0.000522712989
 17      -0.004144191437
 18      -0.000262853658
 19       0.000106339956
 20      -0.000184064825
 21       0.004817610531
 22      -0.000520074100
 23       0.002204363497
 24      -0.000044114280
 25      -0.000049948587
 26       0.000071850472
 27      -0.000215604400
 28      -0.000046462760
 29       0.000885646721
 30       0.000596826373
 31       0.000196457653
 32      -0.000035786754
 33       0.000296165077
 34      -0.000687426641
 35      -0.001980369248
 36      -0.000031024677
 37       0.000000940326
 38       0.000058869637
 39       0.000984483810
 40       0.001711799373
 41       0.000029422602
 42       0.000070336622
 43      -0.000108867545
 44      -0.978301374695
 45      -0.051330240699
 46       0.042653849250
 47       0.000726210500
 48       0.000775630682
 49       0.000747405076
 50       0.001950477147
 51      -0.005177175741
 52      -0.001768185869
 53      -0.000808293368
 54       0.000219244203
 55       0.001377387585
 56      -0.001426579389
 57      -0.000141284331
 58       0.003135741487
 59      -0.007479652504
 60       0.002388130557
 61       0.000931028200
 62      -0.001367575239
 63       0.003131360255
 64      -0.007814610480
 65      -0.000279477281
 66      -0.000850175812
 67       0.002839566487
 68      -0.000787697612
 69      -0.013580273924
 70       0.000050300523
 71      -0.000167919246
 72      -0.000134369875
 73       0.000012484475
 74      -0.000022824131
 75       0.000215480240
 76      -0.002254476473
 77       0.008661755376
 78      -0.000008344825
 79      -0.000019846860
 80      -0.000008950787
 81       0.000029440718
 82       0.000071359601
 83       0.000032665328
 84      -0.000186746774
 85      -0.000541753027
 86      -0.000275876285
 87       0.001205470093
 88       0.004479475759
 89       0.002467833586
 90      -0.000013042909
 91       0.000017598749
 92       0.000058592063
 93      -0.000047387884
 94       0.000032406954
 95       0.000061474674
 96      -0.000082273560
 97      -0.000277837609
 98       0.000225057791
 99      -0.000151180648
100      -0.000196095754
101       0.000249060082
102       0.000891389378
103      -0.000729400552
104       0.000454425966
 Sym=     1a
 Ene= -1.02131299982207E+01
 Spin= Alpha
 Occup= 1.000000
  1       0.709896173379
  2       0.032276249218
  3      -0.025423144842
  4      -0.000196717586
  5       0.000438316377
  6      -0.002005227551
  7       0.002632511359
  8       0.002414162693
  9      -0.005905529298
 10      -0.000389061335
 11      -0.000023154659
 12      -0.000209843474
 13       0.001334621322
 14       0.000223296475
 15       0.678209960815
 16       0.030316801636
 17      -0.006863345478
 18       0.000064398089
 19      -0.000743896867
 20       0.002074495548
 21      -0.000542326823
 22       0.001336573402
 23      -0.003985685602
 24      -0.000410690661
 25       0.000083485953
 26      -0.000129493446
 27       0.001143091963
 28       0.000167695197
 29      -0.003522052359
 30       0.003661387576
 31       0.001868396640
 32       0.000202590639
 33      -0.000478016801
 34      -0.003002415636
 35       0.004234134637
 36       0.001641470207
 37      -0.000105088022
 38       0.000669841072
 39      -0.002864193241
 40       0.004208543052
 41      -0.001529986533
 42      -0.000345450030
 43       0.000654660857
 44      -0.115574216032
 45      -0.007466946532
 46       0.007833235203
 47      -0.001243039762
 48      -0.000109488026
 49      -0.001061638008
 50      -0.001730543710
 51       0.000271518930
 52       0.005429641718
 53       0.000045165264
 54      -0.000626237429
 55       0.000341352800
 56      -0.001010655912
 57       0.000045669333
 58       0.000116973604
 59      -0.003470218677
 60       0.000609374773
 61      -0.000009776253
 62      -0.000119054193
 63       0.001765475435
 64       0.000038505578
 65       0.000308865031
 66      -0.000281984553
 67       0.000500863905
 68      -0.000425748326
 69       0.006753340630
 70       0.000132668273
 71      -0.000247878488
 72      -0.000114011777
 73      -0.000007847168
 74       0.000014338932
 75      -0.000135444840
 76       0.001358542316
 77      -0.004683884511
 78      -0.000003126551
 79       0.000021302217
 80       0.000004896540
 81       0.000009950586
 82      -0.000074409227
 83      -0.000017859749
 84       0.000007613600
 85       0.000463605285
 86       0.000165268330
 87      -0.000514399070
 88      -0.002656134898
 89      -0.001346113019
 90       0.000009716489
 91      -0.000006909999
 92      -0.000038165145
 93       0.000033693265
 94      -0.000017268646
 95      -0.000046138822
 96       0.000035239456
 97       0.000183384093
 98      -0.000160567638
 99       0.000084330953
100       0.000137843395
101      -0.000126072598
102      -0.000571134573
103       0.000489445116
104      -0.000268576860
 Sym=     1a
 Ene= -1.02127288757510E+01
 Spin= Alpha
 Occup= 1.000000
  1       0.674103292117
  2       0.035661568178
  3      -0.036565739653
  4       0.000351125912
  5      -0.000619922406
  6       0.001363076638
  7       0.002946595443
  8       0.000418787985
  9      -0.000279058747
 10       0.001519413013
 11       0.000086141729
 12      -0.001603129194
 13       0.001526838649
 14       0.000220404945
 15      -0.718062742019
 16      -0.038159096094
 17       0.032599952867
 18       0.000129863712
 19      -0.000460844767
 20       0.001240053966
 21      -0.001959644024
 22       0.000834766626
 23      -0.002798767514
 24      -0.001365051010
 25      -0.000130137382
 26       0.001580228501
 27      -0.001607264405
 28      -0.000235730657
 29      -0.002968862901
 30       0.005647417141
 31       0.001811737630
 32       0.000555812110
 33      -0.001438956781
 34       0.003618146436
 35      -0.005334476947
 36      -0.002161495849
 37       0.000235349029
 38      -0.001194783832
 39       0.003010475766
 40      -0.006397683997
 41       0.002021338905
 42       0.000599040765
 43      -0.001307141044
 44      -0.073160956780
 45      -0.005527309781
 46       0.011704734412
 47      -0.001533226797
 48      -0.000047495984
 49      -0.000836287898
 50       0.003642617249
 51       0.001315705175
 52       0.000612094492
 53      -0.000082472211
 54      -0.000743262277
 55       0.000420108116
 56      -0.001108066182
 57       0.000104360311
 58       0.001015846813
 59      -0.000218121785
 60       0.000594359704
 61      -0.000011432217
 62      -0.000110721955
 63       0.000245382863
 64      -0.001957258304
 65       0.000064577708
 66      -0.000211006165
 67       0.000435721026
 68      -0.000166285108
 69       0.003537792937
 70       0.000158486938
 71      -0.000132436474
 72       0.000142817739
 73      -0.000004243496
 74       0.000007792662
 75      -0.000073123274
 76       0.000708029859
 77      -0.002445972432
 78      -0.000004288928
 79       0.000012413732
 80       0.000002013692
 81       0.000014177273
 82      -0.000043427180
 83      -0.000007631893
 84      -0.000033411250
 85       0.000255155527
 86       0.000080852346
 87      -0.000204675463
 88      -0.001390346316
 89      -0.000697920435
 90       0.000004480964
 91      -0.000002454473
 92      -0.000020836586
 93       0.000019275960
 94      -0.000008349606
 95      -0.000019980392
 96       0.000013280760
 97       0.000098465136
 98      -0.000088642482
 99       0.000040483147
100       0.000054589708
101      -0.000053486884
102      -0.000294933347
103       0.000249672670
104      -0.000127789868
 Sym=     1a
 Ene= -8.66897837198471E+00
 Spin= Alpha
 Occup= 1.000000
  1       0.000035898473
  2      -0.000387940107
  3       0.000482647865
  4       0.000041544721
  5       0.000083038013
  6       0.000038733348
  7       0.000256526126
  8      -0.000368556853
  9       0.000648367044
 10      -0.000008107317
 11       0.000008272017
 12      -0.000000824251
 13      -0.000006547909
 14      -0.000028098774
 15       0.000008057249
 16      -0.000028810913
 17      -0.000854618797
 18      -0.000002057608
 19       0.000016419250
 20       0.000012165027
 21       0.000070242522
 22      -0.000141334003
 23       0.000460002085
 24      -0.000007348636
 25      -0.000002043041
 26      -0.000004029543
 27      -0.000022965350
 28      -0.000004501217
 29      -0.000040889882
 30      -0.000033259916
 31      -0.000009264860
 32       0.000024715566
 33      -0.000000192693
 34       0.000002156380
 35      -0.000055784211
 36       0.000007953110
 37       0.000007473773
 38      -0.000011393090
 39      -0.000001057736
 40       0.000031624334
 41      -0.000003698930
 42       0.000005006938
 43      -0.000012565392
 44       0.000045284444
 45      -0.000758140093
 46       0.003304209934
 47      -0.000042328790
 48       0.000094737064
 49       0.000021468521
 50       0.000329175286
 51      -0.001127175521
 52      -0.000550689949
 53      -0.000010872461
 54       0.000013232566
 55       0.000046415015
 56      -0.000033515563
 57       0.000011678395
 58      -0.000110625433
 59      -0.000249046998
 60      -0.000023533935
 61       0.000019593736
 62      -0.000008419927
 63      -0.000189449726
 64      -0.000345358849
 65      -0.000031739177
 66       0.000003222073
 67      -0.000013061221
 68       0.001050307800
 69      -0.005995964859
 70      -0.000144981430
 71      -0.000749944797
 72      -0.000406416480
 73      -0.136660013286
 74       0.516878087515
 75      -1.093414950878
 76      -0.032236438351
 77       0.013999594720
 78       0.000361336018
 79       0.001503084727
 80       0.000830636334
 81      -0.000849732702
 82      -0.003542185461
 83      -0.001956391157
 84      -0.000308164775
 85      -0.001190088031
 86      -0.000670037148
 87       0.000622168919
 88       0.002411232432
 89       0.001357753362
 90       0.000174450484
 91      -0.000172969208
 92      -0.000734358151
 93       0.000627091785
 94      -0.000315033319
 95       0.000137009909
 96      -0.000148458807
 97      -0.000593778533
 98       0.000499478871
 99      -0.000259173719
100      -0.000018245350
101       0.000028036148
102       0.000091099457
103      -0.000071930811
104       0.000043090175
 Sym=     1a
 Ene= -6.50177786563457E+00
 Spin= Alpha
 Occup= 1.000000
  1       0.000018663544
  2      -0.000229996547
  3       0.000328307628
  4       0.000025637775
  5       0.000047965847
  6       0.000022849538
  7       0.000097483376
  8      -0.000214975589
  9       0.000334106856
 10      -0.000003987275
 11       0.000005056046
 12       0.000000248794
 13      -0.000003323967
 14      -0.000014626183
 15       0.000004536546