[Molden Format]
[Title]
 Molden file created by orca_2mkl for BaseName=radical_021

[Atoms] AU
C    1   6          1.1770971807         0.8818255826         0.3399201575 
C    2   6          1.3192045860         0.0821086005         2.8192918678 
H    3   1          2.9477308840         1.3121105541        -0.6511070292 
H    4   1          3.1256448200        -0.0358764507         3.8104248792 
H    5   1         -0.3898750679        -0.4220476553         3.8702195935 
C    6   6         -1.0771344477         1.1484886168        -1.0156011853 
H    7   1         -2.9021147848         0.8044979892        -0.1023513469 
H    8   1         -1.1048113767         2.0061105871        -2.8938113282 
H    9   1         -1.2802875660        -1.8545129771        -2.5219623579 
Br  10  35         -1.8326998684        -4.2582559578        -3.8170294720 
[GTO]
  1 0
s   5 1.0 
     1238.4016938000         0.8208956682
      186.2900499200         1.4766449896
       42.2511763460         2.1526124058
       11.6765579320         2.1081722461
        3.5930506482         0.8290999933
s   1 1.0 
        0.4024514736         0.3601183351
s   1 1.0 
        0.1309018267         0.1551027052
p   3 1.0 
        9.4680970621         1.3467645142
        2.0103545142         1.0678070931
        0.5477100471         0.5108735714
p   1 1.0 
        0.1526861379         0.1360471976
d   1 1.0 
        0.8000000000         1.9292013661

  2 0
s   5 1.0 
     1238.4016938000         0.8208956682
      186.2900499200         1.4766449896
       42.2511763460         2.1526124058
       11.6765579320         2.1081722461
        3.5930506482         0.8290999933
s   1 1.0 
        0.4024514736         0.3601183351
s   1 1.0 
        0.1309018267         0.1551027052
p   3 1.0 
        9.4680970621         1.3467645142
        2.0103545142         1.0678070931
        0.5477100471         0.5108735714
p   1 1.0 
        0.1526861379         0.1360471976
d   1 1.0 
        0.8000000000         1.9292013661

  3 0
s   3 1.0 
       13.0107010000         0.1634903809
        1.9622572000         0.2773515510
        0.4445379600         0.3157501452
s   1 1.0 
        0.1219496200         0.1470772262
p   1 1.0 
        0.8000000000         1.0784563492

  4 0
s   3 1.0 
       13.0107010000         0.1634903809
        1.9622572000         0.2773515510
        0.4445379600         0.3157501452
s   1 1.0 
        0.1219496200         0.1470772262
p   1 1.0 
        0.8000000000         1.0784563492

  5 0
s   3 1.0 
       13.0107010000         0.1634903809
        1.9622572000         0.2773515510
        0.4445379600         0.3157501452
s   1 1.0 
        0.1219496200         0.1470772262
p   1 1.0 
        0.8000000000         1.0784563492

  6 0
s   5 1.0 
     1238.4016938000         0.8208956682
      186.2900499200         1.4766449896
       42.2511763460         2.1526124058
       11.6765579320         2.1081722461
        3.5930506482         0.8290999933
s   1 1.0 
        0.4024514736         0.3601183351
s   1 1.0 
        0.1309018267         0.1551027052
p   3 1.0 
        9.4680970621         1.3467645142
        2.0103545142         1.0678070931
        0.5477100471         0.5108735714
p   1 1.0 
        0.1526861379         0.1360471976
d   1 1.0 
        0.8000000000         1.9292013661

  7 0
s   3 1.0 
       13.0107010000         0.1634903809
        1.9622572000         0.2773515510
        0.4445379600         0.3157501452
s   1 1.0 
        0.1219496200         0.1470772262
p   1 1.0 
        0.8000000000         1.0784563492

  8 0
s   3 1.0 
       13.0107010000         0.1634903809
        1.9622572000         0.2773515510
        0.4445379600         0.3157501452
s   1 1.0 
        0.1219496200         0.1470772262
p   1 1.0 
        0.8000000000         1.0784563492

  9 0
s   3 1.0 
       13.0107010000         0.1634903809
        1.9622572000         0.2773515510
        0.4445379600         0.3157501452
s   1 1.0 
        0.1219496200         0.1470772262
p   1 1.0 
        0.8000000000         1.0784563492

 10 0
s   6 1.0 
   113286.3877600000         7.5076141183
    17009.6263030000        13.8835270484
     3870.1842567000        22.7307285566
     1093.0357227000        30.8227297499
      356.3972179700        27.2481937511
      123.1253964300         9.6953381145
s   3 1.0 
      236.7408400700        -4.7631125758
       28.4686610700         5.6113863182
       11.8834437220         1.9900291396
s   3 1.0 
       21.2696333120        -1.5429794477
        3.6129226841         1.3310800628
        1.6626648969         0.4300130345
s   1 1.0 
        0.3482379323         0.3230852630
s   1 1.0 
        0.1301903139         0.1544699827
p   5 1.0 
     1560.2801881000       115.0180051576
      368.4785920500       143.9035925417
      117.2297884900       137.5255986684
       42.6489092480        78.9578527439
       16.0872250960        15.8580577654
p   3 1.0 
        8.6352810058         6.8437546680
        3.5613665502         3.7974971038
        1.5292626609         0.5585414278
p   1 1.0 
        0.5306429485         0.6455696201
p   1 1.0 
        0.1570275896         0.1408996918
d   4 1.0 
      104.8551864200       261.4493931636
       30.2811436880       176.6993802449
       10.6513942670        76.9545600188
        3.8699456233        17.5937671387
d   1 1.0 
        1.3240876762         4.6593398042
d   1 1.0 
        0.3890000000         0.5462379705

[5D]
[7F]
[9G]
[MO]
 Sym=     1a
 Ene= -4.82761668973740E+02
 Spin= Alpha
 Occup= 1.000000
  1      -0.000005513335
  2       0.000071944194
  3      -0.000096381855
  4      -0.000007054237
  5      -0.000016178231
  6      -0.000006098096
  7      -0.000045819707
  8       0.000063714429
  9      -0.000143483690
 10       0.000002085130
 11      -0.000002398839
 12       0.000000715244
 13       0.000000300918
 14       0.000007111544
 15      -0.000001229326
 16       0.000005570494
 17       0.000179569216
 18       0.000000674641
 19      -0.000002595727
 20      -0.000001977467
 21      -0.000015525213
 22       0.000028177257
 23      -0.000095553524
 24       0.000001309548
 25       0.000000399495
 26       0.000000563588
 27       0.000005235864
 28       0.000001470811
 29       0.000005875040
 30       0.000002455942
 31       0.000002084539
 32      -0.000004018392
 33       0.000000858647
 34      -0.000000521811
 35       0.000011255483
 36      -0.000001716433
 37      -0.000001660259
 38       0.000002659626
 39      -0.000000663150
 40      -0.000006125708
 41       0.000000704713
 42      -0.000001009717
 43       0.000002702400
 44      -0.000007121090
 45       0.000152650982
 46      -0.000698087962
 47       0.000008605204
 48      -0.000015464057
 49      -0.000003528489
 50      -0.000068039599
 51       0.000247202677
 52       0.000131167173
 53       0.000004224462
 54      -0.000003005626
 55      -0.000017257003
 56       0.000015005654
 57      -0.000003275047
 58       0.000021861889
 59       0.000037152058
 60       0.000002745123
 61      -0.000006073884
 62       0.000001570365
 63       0.000041981193
 64       0.000059049080
 65       0.000006967730
 66      -0.000001605282
 67      -0.000000357771
 68      -0.000114633265
 69       0.001097988431
 70       0.000023667458
 71       0.000140528237
 72       0.000074104825
 73       0.994981923298
 74       0.015688995578
 75      -0.003923461529
 76       0.002342433117
 77      -0.001783892774
 78       0.000003123228
 79       0.000012331369
 80       0.000006655380
 81      -0.000010126631
 82      -0.000039450400
 83      -0.000021341080
 84       0.000039520022
 85       0.000153700544
 86       0.000083156987
 87      -0.000104023427
 88      -0.000422004703
 89      -0.000227968092
 90       0.000001802178
 91      -0.000001821320
 92      -0.000007164319
 93       0.000006182545
 94      -0.000003397141
 95      -0.000005710899
 96       0.000005800471
 97       0.000022692143
 98      -0.000019569773
 99       0.000010861452
100       0.000006699427
101      -0.000007150254
102      -0.000026750310
103       0.000022877236
104      -0.000013537241
 Sym=     1a
 Ene= -6.24448247844033E+01
 Spin= Alpha
 Occup= 1.000000
  1      -0.000013058480
  2       0.000172487800
  3      -0.000221328500
  4      -0.000016946856
  5      -0.000038264664
  6      -0.000014678081
  7      -0.000114403400
  8       0.000153184821
  9      -0.000342314272
 10       0.000005056710
 11      -0.000005477518
 12       0.000001223600
 13       0.000001250284
 14       0.000016624260
 15      -0.000002916713
 16       0.000013738807
 17       0.000425486283
 18       0.000001466280
 19      -0.000006225834
 20      -0.000004788697
 21      -0.000034687218
 22       0.000066973703
 23      -0.000226628706
 24       0.000003034639
 25       0.000000963720
 26       0.000001355741
 27       0.000012271462
 28       0.000003363963
 29       0.000014499395
 30       0.000006271637
 31       0.000005029879
 32      -0.000009428563
 33       0.000002118716
 34      -0.000001496337
 35       0.000026270889
 36      -0.000004011135
 37      -0.000003871679
 38       0.000006163499
 39      -0.000000943855
 40      -0.000014156558
 41       0.000001647773
 42      -0.000002304912
 43       0.000006298782
 44      -0.000016734840
 45       0.000365864194
 46      -0.001698984750
 47       0.000020707982
 48      -0.000035724071
 49      -0.000007954229
 50      -0.000164738213
 51       0.000597602588
 52       0.000315043922
 53       0.000009996797
 54      -0.000007181358
 55      -0.000040792295
 56       0.000035470448
 57      -0.000007548122
 58       0.000051493056
 59       0.000093976789
 60       0.000007275264
 61      -0.000013714492
 62       0.000003800508
 63       0.000100026561
 64       0.000144681571
 65       0.000016780479
 66      -0.000003326703
 67       0.000000146013
 68      -0.000302657663
 69       0.002697378197
 70       0.000060133657
 71       0.000351722279
 72       0.000185676871
 73       0.347186532193
 74      -1.046957844074
 75      -0.018590462534
 76       0.006333538911
 77      -0.004527316015
 78      -0.000074143828
 79      -0.000346695549
 80      -0.000182503107
 81      -0.000033611854
 82      -0.000136699134
 83      -0.000073605820
 84       0.000099939918
 85       0.000392660173
 86       0.000212422169
 87      -0.000254796364
 88      -0.001036483757
 89      -0.000559975927
 90       0.000012242706
 91      -0.000010171767
 92      -0.000046497921
 93       0.000041503002
 94      -0.000019394909
 95      -0.000015609063
 96       0.000015245564
 97       0.000061255632
 98      -0.000053240164
 99       0.000028108266
100       0.000015073490
101      -0.000016296447
102      -0.000060205149
103       0.000051383299
104      -0.000030181047
 Sym=     1a
 Ene= -5.62766181080320E+01
 Spin= Alpha
 Occup= 1.000000
  1      -0.000013925195
  2       0.000183765333
  3      -0.000152771243
  4      -0.000017644570
  5      -0.000042749196
  6      -0.000015496567
  7      -0.000147543113
  8       0.000173614187
  9      -0.000395875759
 10       0.000006428892
 11      -0.000005708665
 12       0.000002130953
 13       0.000000800171
 14       0.000019297937
 15      -0.000003577478
 16       0.000020935354
 17       0.000445243258
 18       0.000001755181
 19      -0.000007443820
 20      -0.000005927929
 21      -0.000035892962
 22       0.000074202824
 23      -0.000241578399
 24       0.000003225764
 25       0.000000207487
 26       0.000001456049
 27       0.000013357372
 28       0.000003593772
 29       0.000014292391
 30      -0.000005204811
 31       0.000006339248
 32      -0.000009944404
 33       0.000003341084
 34      -0.000000735452
 35       0.000032702292
 36      -0.000004549201
 37      -0.000004283498
 38       0.000005422885
 39       0.000000826457
 40      -0.000015141830
 41       0.000001083327
 42      -0.000002749691
 43       0.000006713589
 44      -0.000011852787
 45       0.000379212895
 46      -0.001924845122
 47       0.000028575434
 48      -0.000015236100
 49       0.000004808892
 50      -0.000243018998
 51       0.000666524607
 52       0.000339500968
 53       0.000016958972
 54      -0.000010023763
 55      -0.000067924883
 56       0.000063264757
 57      -0.000008696641
 58       0.000044849600
 59       0.000084261265
 60       0.000008897867
 61      -0.000022155401
 62       0.000005431050
 63       0.000107341589
 64       0.000162161426
 65       0.000024664431
 66      -0.000010223734
 67      -0.000000495048
 68      -0.000557853916
 69       0.003101649849
 70       0.000170859786
 71       0.000838238320
 72       0.000447261317
 73      -0.000174049224
 74       0.000518121703
 75      -0.000268377502
 76       0.001027249134
 77      -0.002112040548
 78      -0.164254290833
 79      -0.866939181145
 80      -0.450464578224
 81      -0.003972985316
 82      -0.020913652401
 83      -0.010870734799
 84       0.001097752587
 85       0.005608927498
 86       0.002926893748
 87      -0.000622772471
 88      -0.002952341345
 89      -0.001556991939
 90       0.000012138536
 91      -0.000010392818
 92      -0.000046017937
 93       0.000041098128
 94      -0.000019370962
 95      -0.000009391458
 96       0.000009797782
 97       0.000036206703
 98      -0.000031212610
 99       0.000017707057
100      -0.000028122966
101       0.000022801365
102       0.000111301299
103      -0.000099332935
104       0.000042604155
 Sym=     1a
 Ene= -5.62744345053522E+01
 Spin= Alpha
 Occup= 1.000000
  1      -0.000000708898
  2       0.000010824286
  3      -0.000133071954
  4      -0.000002958533
  5      -0.000009197647
  6       0.000004804380
  7       0.000070684848
  8       0.000126508595
  9      -0.000151190012
 10      -0.000000531272
 11       0.000000715300
 12       0.000000461663
 13      -0.000004218481
 14      -0.000005885868
 15      -0.000000502894
 16       0.000008193283
 17       0.000214864081
 18      -0.000007665888
 19       0.000010394573
 20      -0.000003056989
 21       0.000032425943
 22      -0.000024999716
 23      -0.000059522471
 24       0.000000514112
 25       0.000002961427
 26       0.000003144729
 27       0.000002554003
 28      -0.000001118418
 29      -0.000014396632
 30      -0.000059848601
 31       0.000002825835
 32      -0.000007533847
 33      -0.000002057424
 34      -0.000014777146
 35      -0.000039398666
 36       0.000002098432
 37       0.000004681350
 38       0.000006633665
 39       0.000003780440
 40      -0.000030725811
 41       0.000000765228
 42       0.000004248538
 43       0.000006993108
 44       0.000004027299
 45      -0.000064380888
 46       0.000197153490
 47       0.000017688963
 48       0.000026725120
 49      -0.000012328638
 50      -0.000106139730
 51      -0.000187637799
 52       0.000081866036
 53      -0.000008257843
 54      -0.000005575281
 55       0.000004104758
 56       0.000001212458
 57       0.000003775445
 58      -0.000128810997
 59       0.000102830099
 60       0.000012516078
 61       0.000004207991
 62      -0.000015531184
 63       0.000065269360
 64      -0.000074279971
 65       0.000014039340
 66       0.000020561986
 67      -0.000003484768
 68       0.000001560264
 69      -0.000266759507
 70       0.000019947928
 71      -0.000008145592
 72      -0.000023328581
 73       0.000002271838
 74      -0.000006518811
 75       0.000007308250
 76      -0.000050083173
 77       0.000166818651
 78       0.675485322070
 79       0.229288008775
 80      -0.687585314038
 81       0.016136424197
 82       0.005480511865
 83      -0.016421119320
 84      -0.003907351850
 85      -0.001340548391
 86       0.003959026157
 87       0.001456377987
 88       0.000572575640
 89      -0.001406713609
 90      -0.000020134619
 91       0.000007225300
 92      -0.000016121700
 93      -0.000003953425
 94       0.000023417350
 95       0.000008251171
 96      -0.000005179813
 97       0.000000876105
 98       0.000006152099
 99      -0.000011228194
100      -0.000005402687
101       0.000006521279
102       0.000010689658
103      -0.000012688280
104       0.000009950394
 Sym=     1a
 Ene= -5.62744135051848E+01
 Spin= Alpha
 Occup= 1.000000
  1       0.000010200983
  2      -0.000110907034
  3       0.000372690616
  4       0.000022697058
  5       0.000034119407
  6       0.000023451886
  7      -0.000180211456
  8      -0.000166446874
  9      -0.000103863633
 10       0.000009490797
 11       0.000006069774
 12      -0.000005536860
 13       0.000011193317
 14       0.000010174058
 15       0.000000570004
 16       0.000009530488
 17      -0.000132179074
 18      -0.000001863536
 19       0.000005422860
 20       0.000002777602
 21       0.000113120221
 22       0.000040301084
 23       0.000058451060
 24      -0.000004876817
 25      -0.000002798888
 26      -0.000007819732
 27      -0.000005611418
 28       0.000002237576
 29      -0.000007276240
 30       0.000014700165
 31       0.000003174520
 32       0.000020719445
 33       0.000018813550
 34      -0.000011126487
 35      -0.000035745550
 36      -0.000000052700
 37      -0.000002109636
 38      -0.000003703480
 39       0.000014330942
 40       0.000070349436
 41       0.000001258634
 42      -0.000001666340
 43      -0.000007027939
 44      -0.000001755057
 45       0.000056661561
 46      -0.000463413317
 47      -0.000026973965
 48      -0.000024214187
 49      -0.000038276499
 50       0.000015665533
 51       0.000218762990
 52       0.000140806713
 53      -0.000005969717
 54       0.000007828958
 55      -0.000000477211
 56       0.000009872715
 57      -0.000000257876
 58       0.000058634535
 59      -0.000020949750
 60      -0.000014324585
 61      -0.000010347045
 62      -0.000020518302
 63       0.000104438667
 64      -0.000071652454
 65      -0.000012740989
 66      -0.000005813655
 67      -0.000013999243
 68      -0.000000154759
 69       0.000411804483
 70      -0.000022548574
 71       0.000054698281
 72       0.000003507279
 73      -0.000004205985
 74       0.000012092705
 75      -0.000014002754
 76       0.000079273701
 77      -0.000249002180
 78      -0.705946195319
 79       0.421143863709
 80      -0.553085838990
 81      -0.016865940506
 82       0.010051179090
 83      -0.013215831109
 84       0.004090320011
 85      -0.002400597875
 86       0.003212000426
 87      -0.001535879062
 88       0.000765028630
 89      -0.001242848641
 90      -0.000014751283
 91      -0.000016302720
 92      -0.000012588862
 93      -0.000016302084
 94      -0.000020489038
 95       0.000003776798
 96       0.000008604510
 97       0.000011107977
 98       0.000001291437
 99       0.000011456227
100       0.000001389505
101      -0.000007081627
102      -0.000014266963
103       0.000007367693
104      -0.000010051585
 Sym=     1a
 Ene= -1.02177655701614E+01
 Spin= Alpha
 Occup= 1.000000
  1       0.110922366261
  2       0.002970371620
  3       0.003913569499
  4       0.001849155451
  5      -0.000663746582
  6       0.001165635182
  7       0.000627346034
  8       0.001327754750
  9      -0.004759259302
 10       0.000119174481
 11      -0.001134633166
 12       0.000328013286
 13      -0.001045570026
 14       0.000399336471
 15       0.019528910014
 16       0.000282244922
 17       0.004899374630
 18       0.000264254605
 19      -0.000077530153
 20       0.000123864751
 21      -0.004875545884
 22       0.000500332625
 23      -0.002622132973
 24       0.000078198179
 25       0.000050752413
 26      -0.000088749450
 27       0.000223601296
 28       0.000057139385
 29      -0.000782858676
 30      -0.000770317204
 31      -0.000237446155
 32       0.000014181344
 33      -0.000261561024
 34       0.000712062248
 35       0.001984422285
 36       0.000012551279
 37      -0.000013580659
 38      -0.000046209711
 39      -0.000967890084
 40      -0.001757872572
 41      -0.000016435964
 42      -0.000068811961
 43       0.000113675389
 44       0.981428657480
 45       0.052146136732
 46      -0.045765075702
 47      -0.000677030219
 48      -0.000717587085
 49      -0.000705531055
 50      -0.002084149353
 51       0.006142227268
 52       0.002314564743
 53       0.000787529085
 54      -0.000213446083
 55      -0.001469062451
 56       0.001439918391
 57       0.000126490334
 58      -0.003026588362
 59       0.007483905930
 60      -0.002419299213
 61      -0.000879274105
 62       0.001413856724
 63      -0.003014009378
 64       0.007887798108
 65       0.000264039187
 66       0.000996689269
 67      -0.002833583138
 68       0.001028242421
 69       0.016726061526
 70      -0.000035538173
 71      -0.000305963052
 72      -0.000038874257
 73      -0.000009119870
 74       0.000015595948
 75      -0.000161083197
 76       0.002238061026
 77      -0.009792924424
 78       0.000003430356
 79       0.000006127660
 80      -0.000001252830
 81      -0.000012684858
 82      -0.000024118955
 83       0.000002412715
 84       0.000133235241
 85       0.000395822414
 86       0.000153385275
 87      -0.001269138562
 88      -0.005034643668
 89      -0.002621614568
 90       0.000015338148
 91      -0.000016957415
 92      -0.000053857852
 93       0.000046065487
 94      -0.000033274446
 95      -0.000075025213
 96       0.000082660979
 97       0.000269238128
 98      -0.000230065707
 99       0.000161170268
100       0.000263184736
101      -0.000277009737
102      -0.000992068713
103       0.000852855749
104      -0.000531164576
 Sym=     1a
 Ene= -1.02159675135157E+01
 Spin= Alpha
 Occup= 1.000000
  1      -0.832477445583
  2      -0.038849834701
  3       0.032360926319
  4       0.000089666956
  5      -0.000226296282
  6       0.001678228066
  7      -0.003297147815
  8      -0.002479031312
  9       0.006138589491
 10       0.000029855237
 11       0.000039695656
 12       0.000491502390
 13      -0.001571994356
 14      -0.000324872105
 15      -0.522911975577
 16      -0.022109363973
 17      -0.000210828436
 18      -0.000086017413
 19       0.000765398398
 20      -0.002309195591
 21       0.001107283213
 22      -0.001411741175
 23       0.004702702499
 24       0.000643756489
 25      -0.000076988540
 26      -0.000169171528
 27      -0.000796749080
 28      -0.000160793387
 29       0.004057215481
 30      -0.004649286753
 31      -0.002181813120
 32      -0.000317354256
 33       0.000760688248
 34       0.002188717363
 35      -0.003167984942
 36      -0.001169678040
 37       0.000012468860
 38      -0.000430538603
 39       0.002236033789
 40      -0.002769975036
 41       0.001099618141
 42       0.000228156491
 43      -0.000373132224
 44       0.103778571585
 45       0.006842329862
 46      -0.007711135289
 47       0.001500958066
 48       0.000237036961
 49       0.001244983975
 50       0.001045160851
 51      -0.001287086103
 52      -0.005826574449
 53      -0.000066941524
 54       0.000796867588
 55      -0.000352863296
 56       0.001154964236
 57      -0.000022675154
 58      -0.000254854920
 59       0.003252134545
 60      -0.000644508457
 61       0.000033714404
 62       0.000095695109
 63      -0.001725449330
 64       0.000133722123
 65      -0.000335542262
 66       0.000323225841
 67      -0.000473113194
 68       0.000353140051
 69      -0.009107537528
 70      -0.000245440847
 71       0.000110272409
 72      -0.000013278932
 73       0.000009126352
 74      -0.000016622688
 75       0.000157729902
 76      -0.001603221652
 77       0.005860067093
 78       0.000005561959
 79      -0.000025949454
 80      -0.000004112101
 81      -0.000018077864
 82       0.000090904828
 83       0.000015552490
 84       0.000022267403
 85      -0.000552265568
 86      -0.000165129535
 87       0.000557337461
 88       0.003310684117
 89       0.001587540718
 90      -0.000012949709
 91       0.000005604588
 92       0.000044729508
 93      -0.000042433006
 94       0.000019167448
 95       0.000060238441
 96      -0.000029244404
 97      -0.000211390395
 98       0.000198388653
 99      -0.000092404360
100      -0.000174001490
101       0.000114389038
102       0.000643921393
103      -0.000585757345
104       0.000290491706
 Sym=     1a
 Ene= -1.02154916439312E+01
 Spin= Alpha
 Occup= 1.000000
  1      -0.520828088614
  2      -0.028656372540
  3       0.030748094950
  4      -0.000388111855
  5       0.000696359948
  6      -0.001788959351
  7      -0.002330512114
  8      -0.000027713022
  9      -0.000742929544
 10      -0.001612811714
 11      -0.000062508112
 12       0.001448224894
 13      -0.001246186123
 14      -0.000232986017
 15       0.838127907410
 16       0.043454657966
 17      -0.033519257392
 18      -0.000120413688
 19       0.000327479174
 20      -0.000837856932
 21       0.001871347825
 22      -0.000535278110
 23       0.002067644420
 24       0.001315697911
 25       0.000176152815
 26      -0.001491542981
 27       0.001831245129
 28       0.000365590907
 29       0.002227014790
 30      -0.004792534493
 31      -0.001411925018
 32      -0.000496841422
 33       0.001326317423
 34      -0.004161590906
 35       0.006036612747
 36       0.002438733525
 37      -0.000155075837
 38       0.001350914924
 39      -0.003509953205
 40       0.007122507798
 41      -0.002291178429
 42      -0.000667174337
 43       0.001403944447
 44       0.041749940758
 45       0.003438598263
 46      -0.008986391896
 47       0.001242669180
 48       0.000084974186
 49       0.000625932773
 50      -0.003785010956
 51      -0.001545365688
 52       0.000376048630
 53       0.000099782170
 54       0.000629093928
 55      -0.000295205644
 56       0.000869927923
 57      -0.000069722216
 58      -0.000944231126
 59      -0.000540129561
 60      -0.000434386998
 61       0.000034459282
 62       0.000075315548
 63       0.000124564613
 64       0.001815787456
 65      -0.000010095247
 66       0.000145200659
 67      -0.000300993839
 68       0.000040789028
 69      -0.002622120584
 70      -0.000154213488
 71       0.000049311063
 72      -0.000243936987
 73       0.000002520575
 74      -0.000004609054
 75       0.000043508458
 76      -0.000436742882
 77       0.001659942837
 78       0.000004460106
 79      -0.000008230912
 80       0.000000387992
 81      -0.000014907254
 82       0.000028877242
 83      -0.000000763749
 84       0.000047829633
 85      -0.000162814046
 86      -0.000026133109
 87       0.000088156782
 88       0.000945146365
 89       0.000424973883
 90      -0.000003387442
 91      -0.000000283701
 92       0.000012411719
 93      -0.000013869406
 94       0.000004509109
 95       0.000014277779
 96      -0.000000017105
 97      -0.000057749938
 98       0.000061836526
 99      -0.000021594694
100      -0.000035522522
101       0.000013639277
102       0.000172154447
103      -0.000164525440
104       0.000069134830
 Sym=     1a
 Ene= -8.66284053761698E+00
 Spin= Alpha
 Occup= 1.000000
  1      -0.000031889319
  2       0.000373459960
  3      -0.000415298036
  4      -0.000036010371
  5      -0.000071181364
  6      -0.000031640017
  7      -0.000267885425
  8       0.000337802757
  9      -0.000643789655
 10       0.000010843972
 11      -0.000009732496
 12      -0.000006574174
 13       0.000009467576
 14       0.000026436631
 15      -0.000008057465
 16       0.000035704371
 17       0.000807807978
 18       0.000000028813
 19      -0.000013860877
 20      -0.000011270506
 21      -0.000036632426
 22       0.000124915626
 23      -0.000431069921
 24       0.000004520422
 25       0.000003003950
 26       0.000004020467
 27       0.000022667115
 28       0.000004300073
 29       0.000041126475
 30       0.000024873467
 31       0.000009666972
 32      -0.000017822053
 33       0.000002184970
 34      -0.000007899293
 35       0.000041555989
 36      -0.000006153625
 37      -0.000006767045
 38       0.000011017963
 39       0.000007452186
 40      -0.000022854899
 41       0.000002483794
 42      -0.000002609479
 43       0.000010121560
 44      -0.000036448270
 45       0.000755322276
 46      -0.003852209576
 47       0.000043389271
 48      -0.000055120841
 49      -0.000010370992
 50      -0.000332581940
 51       0.001325755729
 52       0.000680289860
 53       0.000018783742
 54      -0.000014489599
 55      -0.000072110675
 56       0.000062000420
 57      -0.000009906434
 58       0.000085398420
 59       0.000257484988
 60       0.000022038147
 61      -0.000008521822
 62       0.000013097456
 63       0.000186630176
 64       0.000327326051
 65       0.000034928814
 66       0.000011415900
 67       0.000014894448
 68      -0.000960434755
 69       0.006927741074
 70       0.000132268387
 71       0.000757417970
 72       0.000401195742
 73       0.136659523963
 74      -0.516877090022
 75       1.093404317555
 76       0.032356951304
 77      -0.014491614393
 78      -0.000313094245
 79      -0.001418255912
 80      -0.000750650042
 81       0.000734745177
 82       0.003337590317
 83       0.001765453776
 84       0.000291334058
 85       0.001203100516
 86       0.000648522427
 87      -0.000654007675
 88      -0.002706794313
 89      -0.001461781541
 90      -0.000191090977
 91       0.000150193546
 92       0.000702865975
 93      -0.000633155035
 94       0.000285881714
 95      -0.000157245926
 96       0.000136023044
 97       0.000588618081
 98      -0.000522104067
 99       0.000247485578
100       0.000038494287
101      -0.000042514824
102      -0.000153384664
103       0.000130068023
104      -0.000071946093
 Sym=     1a
 Ene= -6.49556099117160E+00
 Spin= Alpha
 Occup= 1.000000
  1       0.000015934900
  2      -0.000216014819
  3       0.000309532097
  4       0.000021077980
  5       0.000039973156
  6       0.000017294283
  7       0.000079614991
  8      -0.000198340339
  9       0.000307312143
 10      -0.000005001471
 11       0.000006559570
 12       0.000004631814
 13      -0.000004090349
 14      -0.000012345807
 15       0.000004678374