[Molden Format]
[Title]
 Molden file created by orca_2mkl for BaseName=radical_043

[Atoms] AU
C    1   6          1.1704812495         0.9640248900         0.3742772684 
C    2   6          1.3283716475         0.0975325452         2.8420063760 
H    3   1          2.9416535247         1.3969819342        -0.6114019934 
H    4   1          3.1479908316        -0.1152449483         3.7925575186 
H    5   1         -0.3740505012        -0.3923732858         3.9087019765 
C    6   6         -1.0757681757         1.3033724605        -0.9577396608 
H    7   1         -2.9062117111         0.9425462627        -0.0649498872 
H    8   1         -1.0856590023         2.0846570538        -2.8686893090 
H    9   1         -1.2867258629        -2.1434596619        -2.6254532096 
Br  10  35         -1.8773295305        -4.4735883611        -3.9513115214 
[GTO]
  1 0
s   5 1.0 
     1238.4016938000         0.8208956682
      186.2900499200         1.4766449896
       42.2511763460         2.1526124058
       11.6765579320         2.1081722461
        3.5930506482         0.8290999933
s   1 1.0 
        0.4024514736         0.3601183351
s   1 1.0 
        0.1309018267         0.1551027052
p   3 1.0 
        9.4680970621         1.3467645142
        2.0103545142         1.0678070931
        0.5477100471         0.5108735714
p   1 1.0 
        0.1526861379         0.1360471976
d   1 1.0 
        0.8000000000         1.9292013661

  2 0
s   5 1.0 
     1238.4016938000         0.8208956682
      186.2900499200         1.4766449896
       42.2511763460         2.1526124058
       11.6765579320         2.1081722461
        3.5930506482         0.8290999933
s   1 1.0 
        0.4024514736         0.3601183351
s   1 1.0 
        0.1309018267         0.1551027052
p   3 1.0 
        9.4680970621         1.3467645142
        2.0103545142         1.0678070931
        0.5477100471         0.5108735714
p   1 1.0 
        0.1526861379         0.1360471976
d   1 1.0 
        0.8000000000         1.9292013661

  3 0
s   3 1.0 
       13.0107010000         0.1634903809
        1.9622572000         0.2773515510
        0.4445379600         0.3157501452
s   1 1.0 
        0.1219496200         0.1470772262
p   1 1.0 
        0.8000000000         1.0784563492

  4 0
s   3 1.0 
       13.0107010000         0.1634903809
        1.9622572000         0.2773515510
        0.4445379600         0.3157501452
s   1 1.0 
        0.1219496200         0.1470772262
p   1 1.0 
        0.8000000000         1.0784563492

  5 0
s   3 1.0 
       13.0107010000         0.1634903809
        1.9622572000         0.2773515510
        0.4445379600         0.3157501452
s   1 1.0 
        0.1219496200         0.1470772262
p   1 1.0 
        0.8000000000         1.0784563492

  6 0
s   5 1.0 
     1238.4016938000         0.8208956682
      186.2900499200         1.4766449896
       42.2511763460         2.1526124058
       11.6765579320         2.1081722461
        3.5930506482         0.8290999933
s   1 1.0 
        0.4024514736         0.3601183351
s   1 1.0 
        0.1309018267         0.1551027052
p   3 1.0 
        9.4680970621         1.3467645142
        2.0103545142         1.0678070931
        0.5477100471         0.5108735714
p   1 1.0 
        0.1526861379         0.1360471976
d   1 1.0 
        0.8000000000         1.9292013661

  7 0
s   3 1.0 
       13.0107010000         0.1634903809
        1.9622572000         0.2773515510
        0.4445379600         0.3157501452
s   1 1.0 
        0.1219496200         0.1470772262
p   1 1.0 
        0.8000000000         1.0784563492

  8 0
s   3 1.0 
       13.0107010000         0.1634903809
        1.9622572000         0.2773515510
        0.4445379600         0.3157501452
s   1 1.0 
        0.1219496200         0.1470772262
p   1 1.0 
        0.8000000000         1.0784563492

  9 0
s   3 1.0 
       13.0107010000         0.1634903809
        1.9622572000         0.2773515510
        0.4445379600         0.3157501452
s   1 1.0 
        0.1219496200         0.1470772262
p   1 1.0 
        0.8000000000         1.0784563492

 10 0
s   6 1.0 
   113286.3877600000         7.5076141183
    17009.6263030000        13.8835270484
     3870.1842567000        22.7307285566
     1093.0357227000        30.8227297499
      356.3972179700        27.2481937511
      123.1253964300         9.6953381145
s   3 1.0 
      236.7408400700        -4.7631125758
       28.4686610700         5.6113863182
       11.8834437220         1.9900291396
s   3 1.0 
       21.2696333120        -1.5429794477
        3.6129226841         1.3310800628
        1.6626648969         0.4300130345
s   1 1.0 
        0.3482379323         0.3230852630
s   1 1.0 
        0.1301903139         0.1544699827
p   5 1.0 
     1560.2801881000       115.0180051576
      368.4785920500       143.9035925417
      117.2297884900       137.5255986684
       42.6489092480        78.9578527439
       16.0872250960        15.8580577654
p   3 1.0 
        8.6352810058         6.8437546680
        3.5613665502         3.7974971038
        1.5292626609         0.5585414278
p   1 1.0 
        0.5306429485         0.6455696201
p   1 1.0 
        0.1570275896         0.1408996918
d   4 1.0 
      104.8551864200       261.4493931636
       30.2811436880       176.6993802449
       10.6513942670        76.9545600188
        3.8699456233        17.5937671387
d   1 1.0 
        1.3240876762         4.6593398042
d   1 1.0 
        0.3890000000         0.5462379705

[5D]
[7F]
[9G]
[MO]
 Sym=     1a
 Ene= -4.82770011467797E+02
 Spin= Alpha
 Occup= 1.000000
  1       0.000005626227
  2      -0.000066216447
  3       0.000071501744
  4       0.000007666531
  5       0.000016579771
  6       0.000007073502
  7       0.000055648204
  8      -0.000065820271
  9       0.000142751015
 10      -0.000001527928
 11       0.000001290500
 12      -0.000002136100
 13      -0.000000564473
 14      -0.000007119225
 15       0.000001065651
 16      -0.000003523264
 17      -0.000173576720
 18      -0.000001023960
 19       0.000002821005
 20       0.000001808759
 21       0.000017204732
 22      -0.000031151398
 23       0.000094361571
 24      -0.000001852551
 25       0.000000218376
 26      -0.000000261163
 27      -0.000004902404
 28      -0.000001486337
 29      -0.000004664736
 30      -0.000003519315
 31      -0.000002491992
 32       0.000005143995
 33      -0.000001251898
 34      -0.000000513387
 35      -0.000012610818
 36       0.000002219051
 37       0.000001640934
 38      -0.000002394143
 39       0.000001585462
 40       0.000005358823
 41      -0.000001055405
 42       0.000001578417
 43      -0.000003177465
 44       0.000008307955
 45      -0.000142493711
 46       0.000573273803
 47      -0.000007894735
 48       0.000024831155
 49       0.000006495411
 50       0.000073628162
 51      -0.000189340971
 52      -0.000088913986
 53      -0.000000829111
 54       0.000002158233
 55       0.000006794356
 56      -0.000003869062
 57       0.000003021646
 58      -0.000026272477
 59      -0.000038480698
 60      -0.000004584177
 61       0.000008938882
 62       0.000000266049
 63      -0.000041206271
 64      -0.000063913611
 65      -0.000006372321
 66       0.000006436344
 67      -0.000000461456
 68       0.000140386703
 69      -0.000837095740
 70      -0.000029451675
 71      -0.000147644322
 72      -0.000080492545
 73      -0.994982038470
 74      -0.015688740025
 75       0.003922092158
 76      -0.002308314062
 77       0.001632972310
 78      -0.000003404207
 79      -0.000012345119
 80      -0.000007123809
 81       0.000010943687
 82       0.000039266115
 83       0.000022720781
 84      -0.000041193520
 85      -0.000147703091
 86      -0.000085453373
 87       0.000089886162
 88       0.000332726402
 89       0.000191318958
 90      -0.000001187460
 91       0.000001609514
 92       0.000005880846
 93      -0.000004725496
 94       0.000002811068
 95       0.000003387620
 96      -0.000004635907
 97      -0.000016835073
 98       0.000013510755
 99      -0.000008130115
100      -0.000000437129
101       0.000001281118
102       0.000003188465
103      -0.000002227394
104       0.000002362641
 Sym=     1a
 Ene= -6.24530788337651E+01
 Spin= Alpha
 Occup= 1.000000
  1       0.000013511566
  2      -0.000161179262
  3       0.000173304108
  4       0.000018634649
  5       0.000039918241
  6       0.000017269255
  7       0.000134377791
  8      -0.000159747513
  9       0.000340109690
 10      -0.000003653284
 11       0.000003006650
 12      -0.000004748932
 13      -0.000001575896
 14      -0.000016683475
 15       0.000002563989
 16      -0.000008848782
 17      -0.000415328473
 18      -0.000002361583
 19       0.000006897878
 20       0.000004468881
 21       0.000040535632
 22      -0.000074343058
 23       0.000225739045
 24      -0.000004376882
 25       0.000000400597
 26      -0.000000728658
 27      -0.000011584533
 28      -0.000003410354
 29      -0.000011973044
 30      -0.000009327880
 31      -0.000005817502
 32       0.000012326352
 33      -0.000002771789
 34      -0.000001094565
 35      -0.000030064023
 36       0.000005188817
 37       0.000003876722
 38      -0.000005638568
 39       0.000003349235
 40       0.000013096558
 41      -0.000002474191
 42       0.000003679581
 43      -0.000007471830
 44       0.000019811691
 45      -0.000344359332
 46       0.001393624643
 47      -0.000019037080
 48       0.000058833693
 49       0.000015307271
 50       0.000175921575
 51      -0.000459964806
 52      -0.000215648871
 53      -0.000002151247
 54       0.000005293704
 55       0.000016396428
 56      -0.000009384559
 57       0.000007067351
 58      -0.000062553411
 59      -0.000095990235
 60      -0.000011207363
 61       0.000020528345
 62       0.000000375713
 63      -0.000098229951
 64      -0.000156066766
 65      -0.000015245353
 66       0.000014574430
 67      -0.000001661385
 68       0.000365180932
 69      -0.002075763577
 70      -0.000073740624
 71      -0.000366298014
 72      -0.000200132014
 73      -0.347186691992
 74       1.046958445431
 75       0.018586568567
 76      -0.006252684238
 77       0.004169819309
 78       0.000090416637
 79       0.000372210537
 80       0.000208443225
 81       0.000037445249
 82       0.000139163188
 83       0.000079945477
 84      -0.000104958814
 85      -0.000379466511
 86      -0.000219335250
 87       0.000222266420
 88       0.000824969237
 89       0.000474309559
 90      -0.000009916161
 91       0.000011109394
 92       0.000045451327
 93      -0.000037848757
 94       0.000019975648
 95       0.000009973856
 96      -0.000013024460
 97      -0.000048434914
 98       0.000039290876
 99      -0.000022516474
100      -0.000000457256
101       0.000002524136
102       0.000005109443
103      -0.000003228709
104       0.000004107103
 Sym=     1a
 Ene= -5.62848448695269E+01
 Spin= Alpha
 Occup= 1.000000
  1       0.000015442856
  2      -0.000178051838
  3       0.000076040249
  4       0.000022809917
  5       0.000045082531
  6       0.000020901187
  7       0.000190717014
  8      -0.000184106836
  9       0.000415052938
 10      -0.000005241331
 11       0.000001596521
 12      -0.000005096976
 13      -0.000004013946
 14      -0.000020239842
 15       0.000002911780
 16      -0.000011873860
 17      -0.000454474857
 18      -0.000003554209
 19       0.000008126457
 20       0.000004476849
 21       0.000047907454
 22      -0.000085943154
 23       0.000253897178
 24      -0.000004900359
 25       0.000001752370
 26      -0.000000451125
 27      -0.000013117612
 28      -0.000004230010
 29      -0.000010355162
 30      -0.000001099586
 31      -0.000007959939
 32       0.000013458538
 33      -0.000004520127
 34      -0.000003593572
 35      -0.000040376764
 36       0.000006586042
 37       0.000004205306
 38      -0.000004942859
 39       0.000003771797
 40       0.000014751177
 41      -0.000002546267
 42       0.000004566543
 43      -0.000008932249
 44       0.000020788720
 45      -0.000393414533
 46       0.001706575283
 47      -0.000026630092
 48       0.000063454705
 49       0.000012958670
 50       0.000261260516
 51      -0.000540134484
 52      -0.000226105696
 53      -0.000002253864
 54       0.000006978642
 55       0.000020893832
 56      -0.000012986164
 57       0.000007627893
 58      -0.000070929099
 59      -0.000110143326
 60      -0.000018126347
 61       0.000028353517
 62       0.000000018341
 63      -0.000115850115
 64      -0.000190688731
 65      -0.000022983368
 66       0.000023385881
 67      -0.000005197334
 68       0.000667148576
 69      -0.002428729491
 70      -0.000199024456
 71      -0.000868394231
 72      -0.000484934633
 73       0.000188253731
 74      -0.000561277072
 75       0.000274302039
 76      -0.000955773268
 77       0.001715648715
 78       0.190752335448
 79       0.852283772769
 80       0.467655137370
 81       0.004612149805
 82       0.020568050481
 83       0.011291052698
 84      -0.001264767946
 85      -0.005524814539
 86      -0.003047738957
 87       0.000641564824
 88       0.002680798255
 89       0.001494455002
 90      -0.000010325212
 91       0.000011836464
 92       0.000047283469
 93      -0.000039382471
 94       0.000020847538
 95       0.000004555734
 96      -0.000006854771
 97      -0.000022809999
 98       0.000018076074
 99      -0.000011403178
100       0.000041287425
101      -0.000047163756
102      -0.000192350202
103       0.000159321068
104      -0.000083387028
 Sym=     1a
 Ene= -5.62826629919130E+01
 Spin= Alpha
 Occup= 1.000000
  1       0.000001049625
  2      -0.000016014962
  3       0.000143320962
  4       0.000003070124
  5       0.000008206548
  6      -0.000001785419
  7      -0.000060686555
  8      -0.000091209463
  9       0.000085024424
 10       0.000001025253
 11       0.000000368842
 12      -0.000001366391
 13       0.000003586047
 14       0.000003746533
 15       0.000000132272
 16      -0.000001251595
 17      -0.000164754593
 18       0.000004968770
 19      -0.000007870236
 20       0.000001315661
 21      -0.000013141953
 22       0.000019913491
 23       0.000047957438
 24      -0.000000945454
 25      -0.000002356385
 26      -0.000001869979
 27      -0.000002783459
 28       0.000001006053
 29       0.000006734611
 30       0.000034175275
 31      -0.000001102735
 32       0.000005693561
 33       0.000003008946
 34       0.000009961003
 35       0.000026554738
 36      -0.000001746755
 37      -0.000003344739
 38      -0.000005401887
 39      -0.000000996450
 40       0.000028340330
 41      -0.000000628688
 42      -0.000003153081
 43      -0.000005870240
 44      -0.000002828350
 45       0.000041363557
 46      -0.000147151429
 47      -0.000012987059
 48      -0.000019396604
 49       0.000006934164
 50       0.000043372283
 51       0.000105296452
 52      -0.000035915142
 53       0.000003430076
 54       0.000003908431
 55       0.000000519929
 56      -0.000002461122
 57      -0.000001412410
 58       0.000093551566
 59      -0.000106851833
 60      -0.000012714390
 61      -0.000005198042
 62       0.000010155866
 63      -0.000045724261
 64       0.000099622130
 65      -0.000008184191
 66      -0.000017618152
 67       0.000008036852
 68      -0.000001922617
 69       0.000129250570
 70      -0.000022101148
 71       0.000000867655
 72       0.000021135055
 73      -0.000001133245
 74       0.000003229171
 75      -0.000003988569
 76       0.000027460655
 77      -0.000087423369
 78      -0.679704575909
 79      -0.223854521002
 80       0.685214890583
 81      -0.016234898307
 82      -0.005348380281
 83       0.016363946490
 84       0.003924586465
 85       0.001300073973
 86      -0.003945479123
 87      -0.001446819398
 88      -0.000517013285
 89       0.001416228939
 90       0.000022090895
 91      -0.000007499948
 92       0.000017433076
 93       0.000002672704
 94      -0.000024479648
 95      -0.000006862903
 96       0.000003883039
 97      -0.000002102413
 98      -0.000003684926
 99       0.000008626622
100       0.000000766005
101      -0.000003245883
102      -0.000008041596
103       0.000007258217
104      -0.000003170171
 Sym=     1a
 Ene= -5.62826417615131E+01
 Spin= Alpha
 Occup= 1.000000
  1      -0.000007266530
  2       0.000082395295
  3      -0.000373179949
  4      -0.000017906579
  5      -0.000024345544
  6      -0.000016888620
  7       0.000220519792
  8       0.000123387499
  9       0.000120345932
 10      -0.000007983991
 11      -0.000007036042
 12       0.000004453161
 13      -0.000010912976
 14      -0.000009146738
 15      -0.000000541770
 16      -0.000005019904
 17       0.000087831802
 18       0.000000475215
 19      -0.000003517720
 20      -0.000003238533
 21      -0.000101696397
 22      -0.000037258384
 23      -0.000026923576
 24       0.000003519672
 25       0.000003226304
 26       0.000006525979
 27       0.000003525264
 28      -0.000002639323
 29       0.000000215116
 30      -0.000026329351
 31      -0.000003230791
 32      -0.000014558035
 33      -0.000017922698
 34       0.000009117281
 35       0.000027739073
 36       0.000001127088
 37       0.000002072287
 38       0.000002838533
 39      -0.000012084789
 40      -0.000066151950
 41      -0.000001464992
 42       0.000001620250
 43       0.000005402753
 44       0.000003675656
 45      -0.000067942722
 46       0.000480715782
 47       0.000020179594
 48       0.000030791403
 49       0.000032790220
 50       0.000043327488
 51      -0.000210803557
 52      -0.000059821943
 53       0.000004645097
 54      -0.000006552337
 55      -0.000003582595
 56      -0.000002356119
 57      -0.000000976260
 58      -0.000059141330
 59       0.000010939323
 60       0.000008256543
 61       0.000014688969
 62       0.000014078244
 63      -0.000090570255
 64       0.000079640980
 65       0.000006520835
 66       0.000008416380
 67       0.000015504825
 68       0.000011761587
 69      -0.000341704950
 70       0.000024874365
 71      -0.000046034843
 72       0.000003395092
 73       0.000004059469
 74      -0.000011686709
 75       0.000012965663
 76      -0.000075412907
 77       0.000226191559
 78       0.695151453558
 79      -0.452791749037
 80       0.541638181387
 81       0.016606092692
 82      -0.010806843317
 83       0.012941059209
 84      -0.004022489293
 85       0.002582408803
 86      -0.003142918065
 87       0.001502818616
 88      -0.000838179433
 89       0.001211100766
 90       0.000016360646
 91       0.000018045656
 92       0.000011864248
 93       0.000018775948
 94       0.000020383940
 95      -0.000003346280
 96      -0.000007893486
 97      -0.000011040092
 98      -0.000000311568
 99      -0.000009907124
100      -0.000003587334
101       0.000004337992
102       0.000015183480
103      -0.000011887567
104       0.000007002377
 Sym=     1a
 Ene= -1.02135843729552E+01
 Spin= Alpha
 Occup= 1.000000
  1      -0.133268051213
  2      -0.003664301742
  3      -0.004005147587
  4      -0.001902727483
  5       0.000689536705
  6      -0.001144991228
  7      -0.000803552595
  8      -0.001186053979
  9       0.003863538973
 10      -0.000134735623
 11       0.001080145590
 12      -0.000345429150
 13       0.000984347667
 14      -0.000447613630
 15      -0.026076532673
 16      -0.000523630205
 17      -0.003731449735
 18      -0.000260168873
 19       0.000107599227
 20      -0.000178681354
 21       0.004788876468
 22      -0.000487620441
 23       0.001972070531
 24      -0.000042958796
 25      -0.000049168669
 26       0.000070685892
 27      -0.000209651793
 28      -0.000041968871
 29       0.000874802580
 30       0.000600796836
 31       0.000208769536
 32      -0.000038944732
 33       0.000301537982
 34      -0.000688586772
 35      -0.001962917365
 36      -0.000034414203
 37      -0.000004053539
 38       0.000063041578
 39       0.000980031989
 40       0.001708891421
 41       0.000031443363
 42       0.000069415297
 43      -0.000107256089
 44      -0.978567190559
 45      -0.051081474927
 46       0.041488949163
 47       0.000728900930
 48       0.000745311791
 49       0.000732973124
 50       0.001834455340
 51      -0.004741252092
 52      -0.001536441386
 53      -0.000805499928
 54       0.000221851064
 55       0.001356529102
 56      -0.001427502108
 57      -0.000135965164
 58       0.003204062261
 59      -0.007472806320
 60       0.002393865063
 61       0.000918131829
 62      -0.001362867300
 63       0.003216480088
 64      -0.007769611715
 65      -0.000278846790
 66      -0.000836196782
 67       0.002838283698
 68      -0.000663467712
 69      -0.012520290982
 70       0.000064590936
 71      -0.000255143775
 72      -0.000148826711
 73       0.000013265867
 74      -0.000024526729
 75       0.000228033073
 76      -0.002234476210
 77       0.008221228266
 78      -0.000009852247
 79      -0.000023097677
 80      -0.000012075588
 81       0.000034564102
 82       0.000082511870
 83       0.000043365567
 84      -0.000203271769
 85      -0.000574330438
 86      -0.000313695343
 87       0.001178500609
 88       0.004258535804
 89       0.002405589980
 90      -0.000012077556
 91       0.000017734943
 92       0.000059604384
 93      -0.000047219939
 94       0.000031875811
 95       0.000056508846
 96      -0.000082005924
 97      -0.000279307655
 98       0.000221853429
 99      -0.000147266550
100      -0.000175260138
101       0.000240304505
102       0.000860421937
103      -0.000691244412
104       0.000429825565
 Sym=     1a
 Ene= -1.02121319599961E+01
 Spin= Alpha
 Occup= 1.000000
  1       0.664837265868
  2       0.029866672246
  3      -0.022846318766
  4      -0.000209561526
  5       0.000500444038
  6      -0.002078489940
  7       0.002385552893
  8       0.002380208035
  9      -0.005823295277
 10      -0.000493720994
 11      -0.000028447715
 12      -0.000107677968
 13       0.001233911168
 14       0.000200642746
 15       0.723427294502
 16       0.032737414455
 17      -0.009075610502
 18       0.000060358916
 19      -0.000733923797
 20       0.001984149123
 21      -0.000403989062
 22       0.001301597317
 23      -0.003736017621
 24      -0.000332818574
 25       0.000078023917
 26      -0.000236393640
 27       0.001245056515
 28       0.000156678318
 29      -0.003324015181
 30       0.003296222591
 31       0.001747975012
 32       0.000166535804
 33      -0.000381998423
 34      -0.003231806786
 35       0.004567738539
 36       0.001782434225
 37      -0.000144659377
 38       0.000732947425
 39      -0.003055334614
 40       0.004623094254
 41      -0.001657314438
 42      -0.000378766806
 43       0.000744143205
 44      -0.109184422071
 45      -0.007102077453
 46       0.007268228622
 47      -0.001150491791
 48      -0.000081689298
 49      -0.001001782054
 50      -0.001970440576
 51       0.000024831335
 52       0.005278767938
 53       0.000048042955
 54      -0.000570946882
 55       0.000319589664
 56      -0.000938525328
 57       0.000051365540
 58       0.000036124411
 59      -0.003425545682
 60       0.000567682126
 61      -0.000014014480
 62      -0.000114347024
 63       0.001727327324
 64       0.000186727035
 65       0.000299571037
 66      -0.000268694863
 67       0.000472723598
 68      -0.000419630973
 69       0.006088794700
 70       0.000095620965
 71      -0.000284600099
 72      -0.000148346622
 73      -0.000007365738
 74       0.000013479964
 75      -0.000127053800
 76       0.001274832881
 77      -0.004322396412
 78      -0.000002360766
 79       0.000019444371
 80       0.000005003895
 81       0.000007410212
 82      -0.000067842639
 83      -0.000018091529
 84       0.000016442119
 85       0.000428771666
 86       0.000162789455
 87      -0.000500763178
 88      -0.002447817728
 89      -0.001272038869
 90       0.000008557956
 91      -0.000007193719
 92      -0.000035697764
 93       0.000030606946
 94      -0.000016469937
 95      -0.000040992040
 96       0.000036578083
 97       0.000172838367
 98      -0.000147115909
 99       0.000080889022
100       0.000124630667
101      -0.000128987625
102      -0.000546216722
103       0.000456535228
104      -0.000260234444
 Sym=     1a
 Ene= -1.02117356929734E+01
 Spin= Alpha
 Occup= 1.000000
  1       0.718920869993
  2       0.037649937106
  3      -0.038096610366
  4       0.000348152048
  5      -0.000585730916
  6       0.001223726318
  7       0.003127011001
  8       0.000538468669
  9      -0.000607707163
 10       0.001471823519
 11       0.000090923242
 12      -0.001641956277
 13       0.001599388707
 14       0.000215035786
 15      -0.672494254649
 16      -0.036097516308
 17       0.031996477435
 18       0.000133153477
 19      -0.000507020821
 20       0.001363496474
 21      -0.001986537294
 22       0.000931683717
 23      -0.002996463356
 24      -0.001370841839
 25      -0.000110365308
 26       0.001597518340
 27      -0.001519750787
 28      -0.000192501293
 29      -0.003192604701
 30       0.005872387301
 31       0.001926380102
 32       0.000574648234
 33      -0.001463434210
 34       0.003410779841
 35      -0.005053008753
 36      -0.002051155590
 37       0.000258220178
 38      -0.001133413568
 39       0.002819323432
 40      -0.006111108942
 41       0.001915991954
 42       0.000570510688
 43      -0.001266040604
 44      -0.079360927461
 45      -0.006004481958
 46       0.012426683098
 47      -0.001617821857
 48      -0.000031507545
 49      -0.000900281154
 50       0.003558056062
 51       0.001198473250
 52       0.000927513398
 53      -0.000073263793
 54      -0.000774012769
 55       0.000452485628
 56      -0.001171117508
 57       0.000121578537
 58       0.001010521231
 59      -0.000440407564
 60       0.000631817169
 61      -0.000013173536
 62      -0.000119613717
 63       0.000345960963
 64      -0.001945232120
 65       0.000081603616
 66      -0.000229788798
 67       0.000465220725
 68      -0.000199930242
 69       0.003717342393
 70       0.000147474409
 71      -0.000173102869
 72       0.000097555120
 73      -0.000004694505
 74       0.000008631975
 75      -0.000080850170
 76       0.000781276333
 77      -0.002638177294
 78      -0.000003988599
 79       0.000013262902
 80       0.000002751861
 81       0.000013126112
 82      -0.000046349645
 83      -0.000010177490
 84      -0.000025475010
 85       0.000276756314
 86       0.000097538541
 87      -0.000244812455
 88      -0.001497184660
 89      -0.000775429448
 90       0.000004597915
 91      -0.000003480524
 92      -0.000022988648
 93       0.000020329393
 94      -0.000009524808
 95      -0.000020830539
 96       0.000018275057
 97       0.000109416478
 98      -0.000094482271
 99       0.000046429767
100       0.000058675527
101      -0.000068611318
102      -0.000331790933
103       0.000272247290
104      -0.000147420173
 Sym=     1a
 Ene= -8.67099287021461E+00
 Spin= Alpha
 Occup= 1.000000
  1       0.000036903902
  2      -0.000388432813
  3       0.000510282287
  4       0.000042590561
  5       0.000086533964
  6       0.000040397267
  7       0.000247576150
  8      -0.000377186860
  9       0.000648961478
 10      -0.000006890265
 11       0.000007863362
 12      -0.000003753506
 13      -0.000005088362
 14      -0.000028334013
 15       0.000008087285
 16      -0.000027059805
 17      -0.000868430734
 18      -0.000002548665
 19       0.000017252799
 20       0.000012680235
 21       0.000080032237
 22      -0.000147723013
 23       0.000467686683
 24      -0.000008302564
 25      -0.000001753364
 26      -0.000003968895
 27      -0.000022725264
 28      -0.000004525441
 29      -0.000039640847
 30      -0.000034748856
 31      -0.000009275009
 32       0.000026862409
 33       0.000000296101
 34       0.000000423836
 35      -0.000059491800
 36       0.000008524222
 37       0.000007701666
 38      -0.000011473706
 39       0.000000808244
 40       0.000033527825
 41      -0.000004157278
 42       0.000005896768
 43      -0.000013246478
 44       0.000047587116
 45      -0.000748983032
 46       0.003100586626
 47      -0.000041286738
 48       0.000105719816
 49       0.000024770025
 50       0.000326581686
 51      -0.001051467607
 52      -0.000509761386
 53      -0.000008726332
 54       0.000013012763
 55       0.000039305410
 56      -0.000025398754
 57       0.000012227085
 58      -0.000115908608
 59      -0.000236743431
 60      -0.000022244893
 61       0.000024681142
 62      -0.000006526819
 63      -0.000188306697
 64      -0.000347317207
 65      -0.000030341146
 66       0.000010117210
 67      -0.000010096208
 68       0.001076120699
 69      -0.005669259412
 70      -0.000150731482
 71      -0.000746386956
 72      -0.000409383121
 73      -0.136660251459
 74       0.516878561132
 75      -1.093419604972
 76      -0.032187085381
 77       0.013808315558
 78       0.000378663376
 79       0.001525192793
 80       0.000858904455
 81      -0.000891069593
 82      -0.003595942561
 83      -0.002023910938
 84      -0.000313735204
 85      -0.001179638077
 86      -0.000677113258
 87       0.000608342492
 88       0.002295976012
 89       0.001317319553
 90       0.000166728356
 91      -0.000182824633
 92      -0.000748665188
 93       0.000624608405
 94      -0.000326523611
 95       0.000128483214
 96      -0.000153476005
 97      -0.000595890170
 98       0.000490137290
 99      -0.000263141955
100      -0.000011662673
101       0.000022032778
102       0.000067103571
103      -0.000050996784
104       0.000031757572
 Sym=     1a
 Ene= -6.50384385593110E+00
 Spin= Alpha
 Occup= 1.000000
  1       0.000019381251
  2      -0.000232007967
  3       0.000339276030
  4       0.000026435967
  5       0.000050406203
  6       0.000024222088
  7       0.000099796860
  8      -0.000220030487
  9       0.000341257168
 10      -0.000003434701
 11       0.000004730848
 12      -0.000001486077
 13      -0.000002699991
 14      -0.000015126124
 15       0.000004492217