[Molden Format]
[Title]
 Molden file created by orca_2mkl for BaseName=radical_032

[Atoms] AU
C    1   6          1.1726752216         0.9338195074         0.3601288888 
C    2   6          1.3249323459         0.0912246394         2.8335838666 
H    3   1          2.9434657721         1.3626796254        -0.6284737793 
H    4   1          3.1392432893        -0.0857406541         3.8011935670 
H    5   1         -0.3805001365        -0.4053292482         3.8927659160 
C    6   6         -1.0761952538         1.2489804731        -0.9777121763 
H    7   1         -2.9037021548         0.8832183107        -0.0807272107 
H    8   1         -1.0936978973         2.0438843227        -2.8827885557 
H    9   1         -1.2843107929        -2.0253234327        -2.5847220526 
Br  10  35         -1.8591598137        -4.3829627649        -3.8952527956 
[GTO]
  1 0
s   5 1.0 
     1238.4016938000         0.8208956682
      186.2900499200         1.4766449896
       42.2511763460         2.1526124058
       11.6765579320         2.1081722461
        3.5930506482         0.8290999933
s   1 1.0 
        0.4024514736         0.3601183351
s   1 1.0 
        0.1309018267         0.1551027052
p   3 1.0 
        9.4680970621         1.3467645142
        2.0103545142         1.0678070931
        0.5477100471         0.5108735714
p   1 1.0 
        0.1526861379         0.1360471976
d   1 1.0 
        0.8000000000         1.9292013661

  2 0
s   5 1.0 
     1238.4016938000         0.8208956682
      186.2900499200         1.4766449896
       42.2511763460         2.1526124058
       11.6765579320         2.1081722461
        3.5930506482         0.8290999933
s   1 1.0 
        0.4024514736         0.3601183351
s   1 1.0 
        0.1309018267         0.1551027052
p   3 1.0 
        9.4680970621         1.3467645142
        2.0103545142         1.0678070931
        0.5477100471         0.5108735714
p   1 1.0 
        0.1526861379         0.1360471976
d   1 1.0 
        0.8000000000         1.9292013661

  3 0
s   3 1.0 
       13.0107010000         0.1634903809
        1.9622572000         0.2773515510
        0.4445379600         0.3157501452
s   1 1.0 
        0.1219496200         0.1470772262
p   1 1.0 
        0.8000000000         1.0784563492

  4 0
s   3 1.0 
       13.0107010000         0.1634903809
        1.9622572000         0.2773515510
        0.4445379600         0.3157501452
s   1 1.0 
        0.1219496200         0.1470772262
p   1 1.0 
        0.8000000000         1.0784563492

  5 0
s   3 1.0 
       13.0107010000         0.1634903809
        1.9622572000         0.2773515510
        0.4445379600         0.3157501452
s   1 1.0 
        0.1219496200         0.1470772262
p   1 1.0 
        0.8000000000         1.0784563492

  6 0
s   5 1.0 
     1238.4016938000         0.8208956682
      186.2900499200         1.4766449896
       42.2511763460         2.1526124058
       11.6765579320         2.1081722461
        3.5930506482         0.8290999933
s   1 1.0 
        0.4024514736         0.3601183351
s   1 1.0 
        0.1309018267         0.1551027052
p   3 1.0 
        9.4680970621         1.3467645142
        2.0103545142         1.0678070931
        0.5477100471         0.5108735714
p   1 1.0 
        0.1526861379         0.1360471976
d   1 1.0 
        0.8000000000         1.9292013661

  7 0
s   3 1.0 
       13.0107010000         0.1634903809
        1.9622572000         0.2773515510
        0.4445379600         0.3157501452
s   1 1.0 
        0.1219496200         0.1470772262
p   1 1.0 
        0.8000000000         1.0784563492

  8 0
s   3 1.0 
       13.0107010000         0.1634903809
        1.9622572000         0.2773515510
        0.4445379600         0.3157501452
s   1 1.0 
        0.1219496200         0.1470772262
p   1 1.0 
        0.8000000000         1.0784563492

  9 0
s   3 1.0 
       13.0107010000         0.1634903809
        1.9622572000         0.2773515510
        0.4445379600         0.3157501452
s   1 1.0 
        0.1219496200         0.1470772262
p   1 1.0 
        0.8000000000         1.0784563492

 10 0
s   6 1.0 
   113286.3877600000         7.5076141183
    17009.6263030000        13.8835270484
     3870.1842567000        22.7307285566
     1093.0357227000        30.8227297499
      356.3972179700        27.2481937511
      123.1253964300         9.6953381145
s   3 1.0 
      236.7408400700        -4.7631125758
       28.4686610700         5.6113863182
       11.8834437220         1.9900291396
s   3 1.0 
       21.2696333120        -1.5429794477
        3.6129226841         1.3310800628
        1.6626648969         0.4300130345
s   1 1.0 
        0.3482379323         0.3230852630
s   1 1.0 
        0.1301903139         0.1544699827
p   5 1.0 
     1560.2801881000       115.0180051576
      368.4785920500       143.9035925417
      117.2297884900       137.5255986684
       42.6489092480        78.9578527439
       16.0872250960        15.8580577654
p   3 1.0 
        8.6352810058         6.8437546680
        3.5613665502         3.7974971038
        1.5292626609         0.5585414278
p   1 1.0 
        0.5306429485         0.6455696201
p   1 1.0 
        0.1570275896         0.1408996918
d   4 1.0 
      104.8551864200       261.4493931636
       30.2811436880       176.6993802449
       10.6513942670        76.9545600188
        3.8699456233        17.5937671387
d   1 1.0 
        1.3240876762         4.6593398042
d   1 1.0 
        0.3890000000         0.5462379705

[5D]
[7F]
[9G]
[MO]
 Sym=     1a
 Ene= -4.82767117577279E+02
 Spin= Alpha
 Occup= 1.000000
  1       0.000005657729
  2      -0.000068962911
  3       0.000077845880
  4       0.000007592798
  5       0.000016613236
  6       0.000006881385
  7       0.000054060935
  8      -0.000065385464
  9       0.000144507233
 10      -0.000001810715
 11       0.000001635906
 12      -0.000001632249
 13      -0.000000561916
 14      -0.000007292932
 15       0.000001119556
 16      -0.000004124301
 17      -0.000176679527
 18      -0.000000951517
 19       0.000002757113
 20       0.000001823610
 21       0.000016867199
 22      -0.000030267558
 23       0.000095603355
 24      -0.000001679166
 25       0.000000030804
 26      -0.000000358644
 27      -0.000005101987
 28      -0.000001507564
 29      -0.000005226279
 30      -0.000003287318
 31      -0.000002370390
 32       0.000004789528
 33      -0.000001143178
 34      -0.000000199491
 35      -0.000012426941
 36       0.000002078182
 37       0.000001660672
 38      -0.000002491549
 39       0.000001318258
 40       0.000005744292
 41      -0.000000936211
 42       0.000001387803
 43      -0.000003062008
 44       0.000008055832
 45      -0.000148581456
 46       0.000623873972
 47      -0.000008316903
 48       0.000022334922
 49       0.000005664837
 50       0.000072771275
 51      -0.000211671079
 52      -0.000103348845
 53      -0.000001874976
 54       0.000002384013
 55       0.000010140097
 56      -0.000007455203
 57       0.000003164401
 58      -0.000025725986
 59      -0.000039901860
 60      -0.000004356680
 61       0.000007954109
 62      -0.000000275657
 63      -0.000042380833
 64      -0.000063519481
 65      -0.000006676224
 66       0.000004714887
 67      -0.000000592068
 68       0.000131792937
 69      -0.000929990071
 70      -0.000027155308
 71      -0.000145670396
 72      -0.000078138683
 73      -0.994981986936
 74      -0.015688850681
 75       0.003922794123
 76      -0.002321665496
 77       0.001689581678
 78      -0.000003306656
 79      -0.000012394229
 80      -0.000006957285
 81       0.000010665106
 82       0.000039509603
 83       0.000022235776
 84      -0.000040682803
 85      -0.000150567213
 86      -0.000084732848
 87       0.000095420540
 88       0.000366173111
 89       0.000205083023
 90      -0.000001418765
 91       0.000001698586
 92       0.000006384320
 93      -0.000005283289
 94       0.000003046030
 95       0.000004235170
 96      -0.000005109992
 97      -0.000019088570
 98       0.000015779890
 99      -0.000009199914
100      -0.000002511698
101       0.000003579478
102       0.000011924670
103      -0.000009567564
104       0.000006573556
 Sym=     1a
 Ene= -6.24502096891856E+01
 Spin= Alpha
 Occup= 1.000000
  1       0.000013520825
  2      -0.000166937634
  3       0.000184542842
  4       0.000018384718
  5       0.000039731165
  6       0.000016722407
  7       0.000131711169
  8      -0.000158161813
  9       0.000344191049
 10      -0.000004348904
 11       0.000003769254
 12      -0.000003473566
 13      -0.000001690020
 14      -0.000017058060
 15       0.000002678467
 16      -0.000010283187
 17      -0.000421087340
 18      -0.000002166760
 19       0.000006694404
 20       0.000004470668
 21       0.000039093737
 22      -0.000072059238
 23       0.000227904599
 24      -0.000003939443
 25      -0.000000013120
 26      -0.000000932068
 27      -0.000012017847
 28      -0.000003453722
 29      -0.000013195220
 30      -0.000008622652
 31      -0.000005587492
 32       0.000011398419
 33      -0.000002599036
 34      -0.000000302459
 35      -0.000029420688
 36       0.000004852865
 37       0.000003901844
 38      -0.000005831842
 39       0.000002641401
 40       0.000013767707
 41      -0.000002190199
 42       0.000003212146
 43      -0.000007178445
 44       0.000019119463
 45      -0.000357882586
 46       0.001516905326
 47      -0.000020016625
 48       0.000052581439
 49       0.000013201884
 50       0.000174462929
 51      -0.000513180732
 52      -0.000249575869
 53      -0.000004547846
 54       0.000005793245
 55       0.000024140502
 56      -0.000017732735
 57       0.000007355591
 58      -0.000061004954
 59      -0.000099896840
 60      -0.000010825961
 61       0.000018124128
 62      -0.000000871877
 63      -0.000100946096
 64      -0.000155140292
 65      -0.000015997749
 66       0.000010504601
 67      -0.000002164879
 68       0.000344408695
 69      -0.002297628416
 70      -0.000068312401
 71      -0.000362396285
 72      -0.000194759517
 73      -0.347186599809
 74       1.046958177226
 75       0.018588450735
 76      -0.006284450282
 77       0.004304365293
 78       0.000084332858
 79       0.000364478288
 80       0.000198879505
 81       0.000036087223
 82       0.000138911841
 83       0.000077684815
 84      -0.000103359612
 85      -0.000386035744
 86      -0.000217097035
 87       0.000235053484
 88       0.000904515633
 89       0.000506574044
 90      -0.000010850134
 91       0.000010684761
 92       0.000045714743
 93      -0.000039220096
 94       0.000019711681
 95       0.000012052932
 96      -0.000013906887
 97      -0.000053321737
 98       0.000044513656
 99      -0.000024687756
100      -0.000005296069
101       0.000007913838
102       0.000025561000
103      -0.000020359506
104       0.000013935356
 Sym=     1a
 Ene= -5.62819702308694E+01
 Spin= Alpha
 Occup= 1.000000
  1       0.000015186268
  2      -0.000182337860
  3       0.000089938397
  4       0.000021676091
  5       0.000044814589
  6       0.000019632092
  7       0.000183520457
  8      -0.000181288685
  9       0.000415898299
 10      -0.000006018219
 11       0.000002689941
 12      -0.000004033538
 13      -0.000003436670
 14      -0.000020640694
 15       0.000003128131
 16      -0.000014673209
 17      -0.000455170040
 18      -0.000003130481
 19       0.000007928617
 20       0.000004793477
 21       0.000044728314
 22      -0.000082568888
 23       0.000252755997
 24      -0.000004352233
 25       0.000001216071
 26      -0.000000747544
 27      -0.000013459663
 28      -0.000004122785
 29      -0.000011832604
 30       0.000001194769
 31      -0.000007584450
 32       0.000012293173
 33      -0.000004301496
 34      -0.000002345140
 35      -0.000038949804
 36       0.000006033074
 37       0.000004274423
 38      -0.000005058185
 39       0.000002383479
 40       0.000015371537
 41      -0.000002055115
 42       0.000003993108
 43      -0.000008372686
 44       0.000018389166
 45      -0.000398457490
 46       0.001819441718
 47      -0.000028105924
 48       0.000050199944
 49       0.000007840049
 50       0.000260584252
 51      -0.000593429537
 52      -0.000265602288
 53      -0.000006501640
 54       0.000007741980
 55       0.000035070643
 56      -0.000028370883
 57       0.000008158194
 58      -0.000065809922
 59      -0.000108248900
 60      -0.000016813101
 61       0.000026481617
 62      -0.000001203198
 63      -0.000116987949
 64      -0.000186893322
 65      -0.000024015764
 66       0.000019495754
 67      -0.000005030649
 68       0.000630473744
 69      -0.002674184124
 70      -0.000188055743
 71      -0.000860281921
 72      -0.000470839296
 73       0.000183621248
 74      -0.000547162299
 75       0.000273094133
 76      -0.000985294297
 77       0.001867058812
 78       0.179722428717
 79       0.859022092837
 80       0.459628255627
 81       0.004346431124
 82       0.020728154254
 83       0.011095740961
 84      -0.001196248261
 85      -0.005566283016
 86      -0.002993783525
 87       0.000633249408
 88       0.002786074940
 89       0.001515126317
 90      -0.000011168628
 91       0.000011287257
 92       0.000046985545
 93      -0.000040323794
 94       0.000020364121
 95       0.000006308534
 96      -0.000008104933
 97      -0.000028066029
 98       0.000023032120
 99      -0.000013950743
100       0.000037762443
101      -0.000037539671
102      -0.000162572644
103       0.000138950543
104      -0.000068056317
 Sym=     1a
 Ene= -5.62798086237129E+01
 Spin= Alpha
 Occup= 1.000000
  1       0.000000878698
  2      -0.000013779988
  3       0.000138300060
  4       0.000002920954
  5       0.000008420390
  6      -0.000002544888
  7      -0.000064237609
  8      -0.000100971563
  9       0.000098330928
 10       0.000000826757
 11      -0.000000031783
 12      -0.000000999157
 13       0.000003851196
 14       0.000004573656
 15       0.000000192341
 16      -0.000002911763
 17      -0.000174587112
 18       0.000005838327
 19      -0.000008849567
 20       0.000001655285
 21      -0.000019232406
 22       0.000023546803
 23       0.000048436427
 24      -0.000000777268
 25      -0.000002532382
 26      -0.000002336184
 27      -0.000002726939
 28       0.000001029897
 29       0.000008361417
 30       0.000041227440
 31      -0.000001400408
 32       0.000006278826
 33       0.000002982591
 34       0.000011459611
 35       0.000030734941
 36      -0.000001918105
 37      -0.000003918798
 38      -0.000005745657
 39      -0.000001821120
 40       0.000030036007
 41      -0.000000608044
 42      -0.000003591720
 43      -0.000006313711
 44      -0.000003349527
 45       0.000050502123
 46      -0.000169542257
 47      -0.000014556571
 48      -0.000022476251
 49       0.000008579067
 50       0.000058258540
 51       0.000130878809
 52      -0.000044901254
 53       0.000004702499
 54       0.000004303331
 55      -0.000000490997
 56      -0.000002016891
 57      -0.000002212073
 58       0.000105886792
 59      -0.000112724136
 60      -0.000013461073
 61      -0.000004843488
 62       0.000012214367
 63      -0.000050985926
 64       0.000099626829
 65      -0.000009809700
 66      -0.000019654035
 67       0.000007295624
 68      -0.000002039191
 69       0.000174867125
 70      -0.000021283258
 71       0.000003845783
 72       0.000021895629
 73      -0.000001581305
 74       0.000004526564
 75      -0.000005247852
 76       0.000035674493
 77      -0.000115042286
 78      -0.676210229817
 79      -0.226530288831
 80       0.687787586090
 81      -0.016152300664
 82      -0.005413182942
 83       0.016425560319
 84       0.003907042414
 85       0.001318929457
 86      -0.003960111498
 87      -0.001446013647
 88      -0.000537991652
 89       0.001416457357
 90       0.000021418471
 91      -0.000007353427
 92       0.000017081248
 93       0.000003222015
 94      -0.000024118349
 95      -0.000007328508
 96       0.000004334342
 97      -0.000001647289
 98      -0.000004608102
 99       0.000009521376
100       0.000002315888
101      -0.000004381506
102      -0.000008968106
103       0.000009129561
104      -0.000005442544
 Sym=     1a
 Ene= -5.62797868196550E+01
 Spin= Alpha
 Occup= 1.000000
  1      -0.000008362554
  2       0.000093233194
  3      -0.000382234304
  4      -0.000019780199
  5      -0.000028116539
  6      -0.000019220030
  7       0.000212550754
  8       0.000141343830
  9       0.000115346641
 10      -0.000008661470
 11      -0.000006861117
 12       0.000004937946
 13      -0.000011333729
 14      -0.000009715239
 15      -0.000000586384
 16      -0.000006303566
 17       0.000106339953
 18       0.000000851447
 19      -0.000004187006
 20      -0.000003289461
 21      -0.000106863428
 22      -0.000038732537
 23      -0.000038172075
 24       0.000004026746
 25       0.000003171187
 26       0.000007085850
 27       0.000004260869
 28      -0.000002569838
 29       0.000002398246
 30      -0.000023719622
 31      -0.000003225414
 32      -0.000016989047
 33      -0.000018508399
 34       0.000009756524
 35       0.000030371757
 36       0.000000830429
 37       0.000002123454
 38       0.000003207667
 39      -0.000012919546
 40      -0.000069140433
 41      -0.000001451205
 42       0.000001633012
 43       0.000006055033
 44       0.000003093038
 45      -0.000065697854
 46       0.000483884189
 47       0.000022726933
 48       0.000029226913
 49       0.000034994353
 50       0.000024671988
 51      -0.000219508258
 52      -0.000084264931
 53       0.000004997814
 54      -0.000007204738
 55      -0.000002132138
 56      -0.000004895058
 57      -0.000000539089
 58      -0.000060988731
 59       0.000014119662
 60       0.000010140844
 61       0.000013371376
 62       0.000016132933
 63      -0.000096366395
 64       0.000081702874
 65       0.000008588840
 66       0.000007046475
 67       0.000015305326
 68       0.000008489213
 69      -0.000373467338
 70       0.000024179648
 71      -0.000050856009
 72       0.000000013853
 73       0.000004354110
 74      -0.000012547992
 75       0.000013779600
 76      -0.000078718670
 77       0.000239361379
 78       0.701469712136
 79      -0.438501244635
 80       0.545237637707
 81       0.016757833334
 82      -0.010465308554
 83       0.013027690893
 84      -0.004061243271
 85       0.002499223147
 86      -0.003165317726
 87       0.001520411379
 88      -0.000803141749
 89       0.001222690987
 90       0.000015707901
 91       0.000017453163
 92       0.000012314284
 93       0.000017788129
 94       0.000020651005
 95      -0.000003403072
 96      -0.000008151610
 97      -0.000011226576
 98      -0.000000483041
 99      -0.000010528262
100      -0.000002885764
101       0.000005215449
102       0.000014761831
103      -0.000010327172
104       0.000007904963
 Sym=     1a
 Ene= -1.02149923611355E+01
 Spin= Alpha
 Occup= 1.000000
  1      -0.135287736647
  2      -0.003888295408
  3      -0.003671462165
  4      -0.001888851857
  5       0.000686989897
  6      -0.001141895186
  7      -0.000697366365
  8      -0.001264658903
  9       0.004327109296
 10      -0.000137137540
 11       0.001093485196
 12      -0.000334703978
 13       0.000986032822
 14      -0.000442171938
 15      -0.026250925150
 16      -0.000516523837
 17      -0.004301601527
 18      -0.000263688327
 19       0.000105443904
 20      -0.000184920128
 21       0.004829908055
 22      -0.000529139740
 23       0.002291154223
 24      -0.000044920084
 25      -0.000050329538
 26       0.000072334577
 27      -0.000217724510
 28      -0.000047992674
 29       0.000887958777
 30       0.000599326139
 31       0.000192907429
 32      -0.000034361645
 33       0.000294138587
 34      -0.000687571953
 35      -0.001986179232
 36      -0.000029576744
 37       0.000002951720
 38       0.000057176291
 39       0.000985779112
 40       0.001714969176
 41       0.000028452633
 42       0.000070447780
 43      -0.000109352410
 44      -0.978264335192
 45      -0.051427025972
 46       0.043093518442
 47       0.000725133686
 48       0.000782027386
 49       0.000750849982
 50       0.001986123812
 51      -0.005341424734
 52      -0.001862084981
 53      -0.000808077875
 54       0.000219088416
 55       0.001388066922
 56      -0.001426490032
 57      -0.000142704625
 58       0.003112747554
 59      -0.007478784624
 60       0.002387375934
 61       0.000933195787
 62      -0.001370622831
 63       0.003102545221
 64      -0.007828679080
 65      -0.000279093305
 66      -0.000860328688
 67       0.002839478257
 68      -0.000832765270
 69      -0.014015814790
 70       0.000045518573
 71      -0.000120926523
 72      -0.000121854345
 73       0.000012114633
 74      -0.000022023028
 75       0.000209522033
 76      -0.002259849867
 77       0.008836226067
 78      -0.000007681740
 79      -0.000018317998
 80      -0.000007616105
 81       0.000027183912
 82       0.000066103336
 83       0.000028087342
 84      -0.000179467776
 85      -0.000526163256
 86      -0.000259845369
 87       0.001215544740
 88       0.004567016855
 89       0.002492634298
 90      -0.000013417857
 91       0.000017522558
 92       0.000058113900
 93      -0.000047392654
 94       0.000032589428
 95       0.000063488814
 96      -0.000082337657
 97      -0.000277159413
 98       0.000226286088
 99      -0.000152724170
100      -0.000205063137
101       0.000252799594
102       0.000905213544
103      -0.000746171696
104       0.000464932670
 Sym=     1a
 Ene= -1.02135308690688E+01
 Spin= Alpha
 Occup= 1.000000
  1       0.729785590133
  2       0.033344373422
  3      -0.026561454502
  4      -0.000188642703
  5       0.000410306455
  6      -0.001966914757
  7       0.002739798678
  8       0.002426409028
  9      -0.005934551337
 10      -0.000339903356
 11      -0.000021902371
 12      -0.000255746522
 13       0.001379253751
 14       0.000233795796
 15       0.656352311072
 16       0.029155030055
 17      -0.005837148725
 18       0.000066467525
 19      -0.000748496717
 20       0.002113564266
 21      -0.000607632753
 22       0.001350844928
 23      -0.004093019188
 24      -0.000447652597
 25       0.000083971933
 26      -0.000081126455
 27       0.001094109558
 28       0.000169944234
 29      -0.003610266547
 30       0.003825038499
 31       0.001921368763
 32       0.000218815609
 33      -0.000521760645
 34      -0.002891420252
 35       0.004075376721
 36       0.001574178146
 37      -0.000089043166
 38       0.000637967249
 39      -0.002773057738
 40       0.004010681258
 41      -0.001468827186
 42      -0.000328932806
 43       0.000613184574
 44      -0.117854607897
 45      -0.007600380039
 46       0.008059963298
 47      -0.001284215446
 48      -0.000121880312
 49      -0.001087993062
 50      -0.001620440977
 51       0.000382932884
 52       0.005488338258
 53       0.000044369154
 54      -0.000651015223
 55       0.000350952379
 56      -0.001041866253
 57       0.000043736170
 58       0.000151601929
 59      -0.003480505156
 60       0.000626472467
 61      -0.000008753786
 62      -0.000120880069
 63       0.001777786378
 64      -0.000022915905
 65       0.000312673704
 66      -0.000288935248
 67       0.000511425320
 68      -0.000425688552
 69       0.007037385344
 70       0.000148675444
 71      -0.000230958422
 72      -0.000097650055
 73      -0.000008041914
 74       0.000014688043
 75      -0.000138833758
 76       0.001392372901
 77      -0.004833863193
 78      -0.000003460797
 79       0.000022065895
 80       0.000004828310
 81       0.000011062619
 82      -0.000077108213
 83      -0.000017682320
 84       0.000003608403
 85       0.000477658781
 86       0.000165864341
 87      -0.000519289365
 88      -0.002742117833
 89      -0.001376465185
 90       0.000010185274
 91      -0.000006759766
 92      -0.000039143168
 93       0.000034954785
 94      -0.000017560415
 95      -0.000048193882
 96       0.000034536655
 97       0.000187531412
 98      -0.000166018384
 99       0.000085567088
100       0.000142989066
101      -0.000124541199
102      -0.000580921013
103       0.000502610712
104      -0.000271556529
 Sym=     1a
 Ene= -1.02131253045628E+01
 Spin= Alpha
 Occup= 1.000000
  1       0.652466697343
  2       0.034688220032
  3      -0.035792284009
  4       0.000354167256
  5      -0.000633485905
  6       0.001425660216
  7       0.002857914182
  8       0.000359454536
  9      -0.000123839219
 10       0.001537521002
 11       0.000083487899
 12      -0.001584629430
 13       0.001490184473
 14       0.000221040051
 15      -0.738097672035
 16      -0.039056469059
 17       0.032823264564
 18       0.000128387295
 19      -0.000439756929
 20       0.001179989955
 21      -0.001944756334
 22       0.000790744675
 23      -0.002697341552
 24      -0.001359560904
 25      -0.000137959695
 26       0.001571196941
 27      -0.001644943009
 28      -0.000254589591
 29      -0.002862800109
 30       0.005535914144
 31       0.001756034398
 32       0.000546814735
 33      -0.001425210208
 34       0.003708718459
 35      -0.005456992314
 36      -0.002209180583
 37       0.000225052448
 38      -0.001220911417
 39       0.003095028018
 40      -0.006522055500
 41       0.002067138989
 42       0.000610986098
 43      -0.001324508150
 44      -0.069869947099
 45      -0.005288507157
 46       0.011362749351
 47      -0.001492368969
 48      -0.000052501097
 49      -0.000805206988
 50       0.003676642879
 51       0.001354690561
 52       0.000460922988
 53      -0.000085769663
 54      -0.000727249032
 55       0.000405284500
 56      -0.001076988059
 57       0.000098222442
 58       0.001014502564
 59      -0.000112685251
 60       0.000575455869
 61      -0.000011508846
 62      -0.000106609582
 63       0.000195985984
 64      -0.001955220533
 65       0.000056370492
 66      -0.000202503413
 67       0.000420484566
 68      -0.000149737922
 69       0.003418175894
 70       0.000160958504
 71      -0.000116215872
 72       0.000160394879
 73      -0.000004010070
 74       0.000007361362
 75      -0.000069111907
 76       0.000669868441
 77      -0.002337352941
 78      -0.000004368580
 79       0.000011913356
 80       0.000001684036
 81       0.000014466724
 82      -0.000041692657
 83      -0.000006485720
 84      -0.000036337052
 85       0.000243186493
 86       0.000073120784
 87      -0.000186023009
 88      -0.001329429525
 89      -0.000658599142
 90       0.000004353566
 91      -0.000002009175
 92      -0.000019697894
 93       0.000018595554
 94      -0.000007776513
 95      -0.000019267976
 96       0.000011115015
 97       0.000092814230
 98      -0.000085120029
 99       0.000037621801
100       0.000051924074
101      -0.000046914389
102      -0.000276768116
103       0.000237431407
104      -0.000118560405
 Sym=     1a
 Ene= -8.66815295266001E+00
 Spin= Alpha
 Occup= 1.000000
  1       0.000035428195
  2      -0.000386993638
  3       0.000471172929
  4       0.000041011026
  5       0.000081478082
  6       0.000037982462
  7       0.000259586722
  8      -0.000364566819
  9       0.000647151209
 10      -0.000008574635
 11       0.000008403795
 12       0.000000335272
 13      -0.000007123522
 14      -0.000027966492
 15       0.000008046517
 16      -0.000029575347
 17      -0.000847592297
 18      -0.000001834160
 19       0.000016058808
 20       0.000011963105
 21       0.000065894938
 22      -0.000138660771
 23       0.000456110266
 24      -0.000006954538
 25      -0.000002173701
 26      -0.000004042305
 27      -0.000023009183
 28      -0.000004474011
 29      -0.000041276417
 30      -0.000032533185
 31      -0.000009285231
 32       0.000023784372
 33      -0.000000420996
 34       0.000002911214
 35      -0.000054115230
 36       0.000007702658
 37       0.000007370233
 38      -0.000011345567
 39      -0.000001890112
 40       0.000030679747
 41      -0.000003516034
 42       0.000004642928
 43      -0.000012263892
 44       0.000044228378
 45      -0.000760200090
 46       0.003383856139
 47      -0.000042552766
 48       0.000089999744
 49       0.000019984243
 50       0.000329509528
 51      -0.001156718710
 52      -0.000567481090
 53      -0.000011747914
 54       0.000013377814
 55       0.000049404481
 56      -0.000036928344
 57       0.000011378295
 58      -0.000108067849
 59      -0.000253212341
 60      -0.000023801564
 61       0.000017714937
 62      -0.000009025014
 63      -0.000189651290
 64      -0.000343905004
 65      -0.000032154956
 66       0.000000898357
 67      -0.000014044749
 68       0.001038917091
 69      -0.006125210801
 70      -0.000142862273
 71      -0.000751197333
 72      -0.000405433019
 73      -0.136659933678
 74       0.516877929924
 75      -1.093413326342
 76      -0.032254735895
 77       0.014072437187
 78       0.000354419722
 79       0.001493164996
 80       0.000819389308
 81      -0.000833244601
 82      -0.003518161601
 83      -0.001929542575
 84      -0.000305776878
 85      -0.001193236790
 86      -0.000667007650
 87       0.000627056368
 88       0.002455261374
 89       0.001373002621
 90       0.000177225185
 91      -0.000169284299
 92      -0.000729079217
 93       0.000627988036
 94      -0.000310574037
 95       0.000140195852
 96      -0.000146511423
 97      -0.000592888553
 98       0.000502952892
 99      -0.000257503374
100      -0.000020984658
101       0.000030273929
102       0.000100351046
103      -0.000080242190
104       0.000047423820
 Sym=     1a
 Ene= -6.50093448289969E+00
 Spin= Alpha
 Occup= 1.000000
  1       0.000018328431
  2      -0.000228674047
  3       0.000324027051
  4       0.000025253109
  5       0.000046890526
  6       0.000022240071
  7       0.000095983007
  8      -0.000212668291
  9       0.000330579748
 10      -0.000004185980
 11       0.000005178050
 12       0.000000922654
 13      -0.000003563487
 14      -0.000014412641
 15       0.000004555091