[Molden Format]
[Title]
 Molden file created by orca_2mkl for BaseName=radical_029

[Atoms] AU
C    1   6          1.1736333127         0.9250020453         0.3559563735 
C    2   6          1.3238740993         0.0893802667         2.8313596589 
H    3   1          2.9439741084         1.3525941571        -0.6331432925 
H    4   1          3.1366713720        -0.0767323297         3.8034517897 
H    5   1         -0.3821895517        -0.4088195724         3.8883193904 
C    6   6         -1.0765259559         1.2331842524        -0.9835495404 
H    7   1         -2.9030010664         0.8671953229        -0.0850849192 
H    8   1         -1.0959202152         2.0347191510        -2.8857667640 
H    9   1         -1.2836021456        -1.9931357274        -2.5732646430 
Br  10  35         -1.8541633778        -4.3589386765        -3.8802842749 
[GTO]
  1 0
s   5 1.0 
     1238.4016938000         0.8208956682
      186.2900499200         1.4766449896
       42.2511763460         2.1526124058
       11.6765579320         2.1081722461
        3.5930506482         0.8290999933
s   1 1.0 
        0.4024514736         0.3601183351
s   1 1.0 
        0.1309018267         0.1551027052
p   3 1.0 
        9.4680970621         1.3467645142
        2.0103545142         1.0678070931
        0.5477100471         0.5108735714
p   1 1.0 
        0.1526861379         0.1360471976
d   1 1.0 
        0.8000000000         1.9292013661

  2 0
s   5 1.0 
     1238.4016938000         0.8208956682
      186.2900499200         1.4766449896
       42.2511763460         2.1526124058
       11.6765579320         2.1081722461
        3.5930506482         0.8290999933
s   1 1.0 
        0.4024514736         0.3601183351
s   1 1.0 
        0.1309018267         0.1551027052
p   3 1.0 
        9.4680970621         1.3467645142
        2.0103545142         1.0678070931
        0.5477100471         0.5108735714
p   1 1.0 
        0.1526861379         0.1360471976
d   1 1.0 
        0.8000000000         1.9292013661

  3 0
s   3 1.0 
       13.0107010000         0.1634903809
        1.9622572000         0.2773515510
        0.4445379600         0.3157501452
s   1 1.0 
        0.1219496200         0.1470772262
p   1 1.0 
        0.8000000000         1.0784563492

  4 0
s   3 1.0 
       13.0107010000         0.1634903809
        1.9622572000         0.2773515510
        0.4445379600         0.3157501452
s   1 1.0 
        0.1219496200         0.1470772262
p   1 1.0 
        0.8000000000         1.0784563492

  5 0
s   3 1.0 
       13.0107010000         0.1634903809
        1.9622572000         0.2773515510
        0.4445379600         0.3157501452
s   1 1.0 
        0.1219496200         0.1470772262
p   1 1.0 
        0.8000000000         1.0784563492

  6 0
s   5 1.0 
     1238.4016938000         0.8208956682
      186.2900499200         1.4766449896
       42.2511763460         2.1526124058
       11.6765579320         2.1081722461
        3.5930506482         0.8290999933
s   1 1.0 
        0.4024514736         0.3601183351
s   1 1.0 
        0.1309018267         0.1551027052
p   3 1.0 
        9.4680970621         1.3467645142
        2.0103545142         1.0678070931
        0.5477100471         0.5108735714
p   1 1.0 
        0.1526861379         0.1360471976
d   1 1.0 
        0.8000000000         1.9292013661

  7 0
s   3 1.0 
       13.0107010000         0.1634903809
        1.9622572000         0.2773515510
        0.4445379600         0.3157501452
s   1 1.0 
        0.1219496200         0.1470772262
p   1 1.0 
        0.8000000000         1.0784563492

  8 0
s   3 1.0 
       13.0107010000         0.1634903809
        1.9622572000         0.2773515510
        0.4445379600         0.3157501452
s   1 1.0 
        0.1219496200         0.1470772262
p   1 1.0 
        0.8000000000         1.0784563492

  9 0
s   3 1.0 
       13.0107010000         0.1634903809
        1.9622572000         0.2773515510
        0.4445379600         0.3157501452
s   1 1.0 
        0.1219496200         0.1470772262
p   1 1.0 
        0.8000000000         1.0784563492

 10 0
s   6 1.0 
   113286.3877600000         7.5076141183
    17009.6263030000        13.8835270484
     3870.1842567000        22.7307285566
     1093.0357227000        30.8227297499
      356.3972179700        27.2481937511
      123.1253964300         9.6953381145
s   3 1.0 
      236.7408400700        -4.7631125758
       28.4686610700         5.6113863182
       11.8834437220         1.9900291396
s   3 1.0 
       21.2696333120        -1.5429794477
        3.6129226841         1.3310800628
        1.6626648969         0.4300130345
s   1 1.0 
        0.3482379323         0.3230852630
s   1 1.0 
        0.1301903139         0.1544699827
p   5 1.0 
     1560.2801881000       115.0180051576
      368.4785920500       143.9035925417
      117.2297884900       137.5255986684
       42.6489092480        78.9578527439
       16.0872250960        15.8580577654
p   3 1.0 
        8.6352810058         6.8437546680
        3.5613665502         3.7974971038
        1.5292626609         0.5585414278
p   1 1.0 
        0.5306429485         0.6455696201
p   1 1.0 
        0.1570275896         0.1408996918
d   4 1.0 
      104.8551864200       261.4493931636
       30.2811436880       176.6993802449
       10.6513942670        76.9545600188
        3.8699456233        17.5937671387
d   1 1.0 
        1.3240876762         4.6593398042
d   1 1.0 
        0.3890000000         0.5462379705

[5D]
[7F]
[9G]
[MO]
 Sym=     1a
 Ene= -4.82766227671335E+02
 Spin= Alpha
 Occup= 1.000000
  1       0.000005650690
  2      -0.000069636768
  3       0.000080101079
  4       0.000007540048
  5       0.000016574993
  6       0.000006797500
  7       0.000053134964
  8      -0.000065155392
  9       0.000144420516
 10      -0.000001884746
 11       0.000001746387
 12      -0.000001466321
 13      -0.000000544101
 14      -0.000007306615
 15       0.000001135126
 16      -0.000004315829
 17      -0.000177055255
 18      -0.000000917408
 19       0.000002731947
 20       0.000001831039
 21       0.000016688926
 22      -0.000029891373
 23       0.000095665006
 24      -0.000001622068
 25      -0.000000037365
 26      -0.000000391228
 27      -0.000005146332
 28      -0.000001504083
 29      -0.000005377178
 30      -0.000003192829
 31      -0.000002331577
 32       0.000004670531
 33      -0.000001099549
 34      -0.000000087584
 35      -0.000012316455
 36       0.000002022568
 37       0.000001660258
 38      -0.000002517185
 39       0.000001223019
 40       0.000005836873
 41      -0.000000896646
 42       0.000001322925
 43      -0.000003014673
 44       0.000007940716
 45      -0.000149854473
 46       0.000637503495
 47      -0.000008411214
 48       0.000021399009
 49       0.000005369430
 50       0.000072164682
 51      -0.000217997464
 52      -0.000107748179
 53      -0.000002232970
 54       0.000002455199
 55       0.000011231723
 56      -0.000008615608
 57       0.000003195864
 58      -0.000025354562
 59      -0.000039999986
 60      -0.000004211005
 61       0.000007630378
 62      -0.000000464313
 63      -0.000042507068
 64      -0.000063049547
 65      -0.000006742249
 66       0.000004179246
 67      -0.000000543380
 68       0.000128990031
 69      -0.000957619808
 70      -0.000026497244
 71      -0.000144858371
 72      -0.000077415389
 73      -0.994981975527
 74      -0.015688875733
 75       0.003922931282
 76      -0.002325323597
 77       0.001705782963
 78      -0.000003274710
 79      -0.000012392204
 80      -0.000006904147
 81       0.000010571415
 82       0.000039525820
 83       0.000022077548
 84      -0.000040482513
 85      -0.000151200260
 86      -0.000084451731
 87       0.000096928010
 88       0.000375803752
 89       0.000209004957
 90      -0.000001485521
 91       0.000001720920
 92       0.000006522093
 93      -0.000005440641
 94       0.000003108830
 95       0.000004486570
 96      -0.000005235256
 97      -0.000019721065
 98       0.000016434762
 99      -0.000009494839
100      -0.000003185435
101       0.000004226465
102       0.000014502861
103      -0.000011811873
104       0.000007799342
 Sym=     1a
 Ene= -6.24493282596211E+01
 Spin= Alpha
 Occup= 1.000000
  1      -0.000013482811
  2       0.000168281548
  3      -0.000188679354
  4      -0.000018252856
  5      -0.000039560729
  6      -0.000016495176
  7      -0.000129896425
  8       0.000157432424
  9      -0.000344007260
 10       0.000004533537
 11      -0.000004003684
 12       0.000003063928
 13       0.000001680124
 14       0.000017083590
 15      -0.000002710986
 16       0.000010736098
 17       0.000421515084
 18       0.000002078673
 19      -0.000006619032
 20      -0.000004479953
 21      -0.000038460927
 22       0.000071129077
 23      -0.000227829345
 24       0.000003799104
 25       0.000000163365
 26       0.000000998804
 27       0.000012111118
 28       0.000003444514
 29       0.000013540344
 30       0.000008349065
 31       0.000005504093
 32      -0.000011092476
 33       0.000002531045
 34       0.000000022001
 35       0.000029093047
 36      -0.000004723034
 37      -0.000003895133
 38       0.000005880818
 39      -0.000002390934
 40      -0.000013904475
 41       0.000002097388
 42      -0.000003055368
 43       0.000007061278
 44      -0.000018816542
 45       0.000360617376
 46      -0.001550296511
 47       0.000020236911
 48      -0.000050269910
 49      -0.000012459537
 50      -0.000173230045
 51       0.000528249103
 52       0.000259925369
 53       0.000005364280
 54      -0.000005957402
 55      -0.000026662449
 56       0.000020435263
 57      -0.000007412442
 58       0.000060064369
 59       0.000100283760
 60       0.000010523985
 61      -0.000017356457
 62       0.000001289313
 63       0.000101256365
 64       0.000154060558
 65       0.000016157366
 66      -0.000009270067
 67       0.000002114943
 68      -0.000337605476
 69       0.002363454884
 70       0.000066764215
 71       0.000360730603
 72       0.000193123732
 73       0.347186583877
 74      -1.046958118508
 75      -0.018588838911
 76       0.006293113766
 77      -0.004342733203
 78      -0.000082557618
 79      -0.000361876789
 80      -0.000196099704
 81      -0.000035658073
 82      -0.000138655185
 83      -0.000076980190
 84       0.000102768973
 85       0.000387434528
 86       0.000216271215
 87      -0.000238515675
 88      -0.000927333524
 89      -0.000515733796
 90       0.000011104576
 91      -0.000010573821
 92      -0.000045811638
 93       0.000039611026
 94      -0.000019637976
 95      -0.000012663176
 96       0.000014142101
 97       0.000054699986
 98      -0.000046018875
 99       0.000025287100
100       0.000006867676
101      -0.000009430630
102      -0.000031586496
103       0.000025590435
104      -0.000016793639
 Sym=     1a
 Ene= -5.62810903310862E+01
 Spin= Alpha
 Occup= 1.000000
  1       0.000015044398
  2      -0.000183148936
  3       0.000096694817
  4       0.000021224491
  5       0.000044589226
  6       0.000019125256
  7       0.000179476327
  8      -0.000180158341
  9       0.000413730325
 10      -0.000006199933
 11       0.000003065762
 12      -0.000003689583
 13      -0.000003133387
 14      -0.000020607512
 15       0.000003192905
 16      -0.000015551105
 17      -0.000453702034
 18      -0.000002952945
 19       0.000007853882
 20       0.000004915038
 21       0.000043493527
 22      -0.000081197132
 23       0.000251403950
 24      -0.000004178397
 25       0.000001007198
 26      -0.000000852739
 27      -0.000013514422
 28      -0.000004052986
 29      -0.000012351598
 30       0.000001864047
 31      -0.000007410761
 32       0.000011926173
 33      -0.000004195411
 34      -0.000001889860
 35      -0.000038269996
 36       0.000005818256
 37       0.000004278184
 38      -0.000005098213
 39       0.000001907776
 40       0.000015470032
 41      -0.000001895826
 42       0.000003792666
 43      -0.000008155071
 44       0.000017491915
 45      -0.000397796161
 46       0.001845350086
 47      -0.000028386256
 48       0.000045371873
 49       0.000006037855
 50       0.000258786141
 51      -0.000607714413
 52      -0.000277598620
 53      -0.000008019721
 54       0.000008017819
 55       0.000039861182
 56      -0.000033555215
 57       0.000008298258
 58      -0.000063435620
 59      -0.000106346914
 60      -0.000016023651
 61       0.000025850326
 62      -0.000001691345
 63      -0.000116401153
 64      -0.000184257930
 65      -0.000024202791
 66       0.000018136738
 67      -0.000004607878
 68       0.000618440169
 69      -0.002746215150
 70      -0.000184857862
 71      -0.000856836707
 72      -0.000466573911
 73       0.000182132796
 74      -0.000542644026
 75       0.000272413545
 76      -0.000992946343
 77       0.001910017880
 78       0.176708072028
 79       0.860690301890
 80       0.457672776938
 81       0.004273729111
 82       0.020767498650
 83       0.011047936460
 84      -0.001177245669
 85      -0.005575767150
 86      -0.002980004650
 87       0.000630912379
 88       0.002815754007
 89       0.001521679724
 90      -0.000011375334
 91       0.000011125280
 92       0.000046851268
 93      -0.000040525740
 94       0.000020199574
 95       0.000006831771
 96      -0.000008426066
 97      -0.000029514560
 98       0.000024450142
 99      -0.000014637380
100       0.000036365124
101      -0.000034818121
102      -0.000153633811
103       0.000132413456
104      -0.000063528384
 Sym=     1a
 Ene= -5.62789303496456E+01
 Spin= Alpha
 Occup= 1.000000
  1       0.000000832429
  2      -0.000013089875
  3       0.000136156679
  4       0.000002877908
  5       0.000008502330
  6      -0.000002782586
  7      -0.000065227883
  8      -0.000104054167
  9       0.000103053810
 10       0.000000760532
 11      -0.000000148499
 12      -0.000000886229
 13       0.000003922151
 14       0.000004810786
 15       0.000000216489
 16      -0.000003494463
 17      -0.000177703193
 18       0.000006105189
 19      -0.000009122595
 20       0.000001780824
 21      -0.000021175600
 22       0.000024485808
 23       0.000048709766
 24      -0.000000724429
 25      -0.000002580250
 26      -0.000002482149
 27      -0.000002698196
 28       0.000001034043
 29       0.000008950201
 30       0.000043628916
 31      -0.000001528826
 32       0.000006464940
 33       0.000002952394
 34       0.000011915572
 35       0.000031979930
 36      -0.000001958773
 37      -0.000004083937
 38      -0.000005843016
 39      -0.000002094580
 40       0.000030416463
 41      -0.000000605943
 42      -0.000003714644
 43      -0.000006435877
 44      -0.000003485329
 45       0.000053068648
 46      -0.000175531136
 47      -0.000015011009
 48      -0.000023307458
 49       0.000009077348
 50       0.000063408081
 51       0.000139138321
 52      -0.000048314136
 53       0.000005177193
 54       0.000004425692
 55      -0.000000900727
 56      -0.000001841355
 57      -0.000002474889
 58       0.000109457378
 59      -0.000113701089
 60      -0.000013594081
 61      -0.000004716014
 62       0.000012836210
 63      -0.000052683424
 64       0.000098091313
 65      -0.000010334783
 66      -0.000020096667
 67       0.000006896722
 68      -0.000002039829
 69       0.000189588249
 70      -0.000020967266
 71       0.000004736986
 72       0.000022053107
 73      -0.000001712997
 74       0.000004907651
 75      -0.000005622545
 76       0.000038172366
 77      -0.000123668142
 78      -0.675762848712
 79      -0.227119004576
 80       0.688032969230
 81      -0.016141865479
 82      -0.005427509376
 83       0.016431471174
 84       0.003905238759
 85       0.001323347833
 86      -0.003961484331
 87      -0.001447082604
 88      -0.000544027140
 89       0.001415383749
 90       0.000021209744
 91      -0.000007327701
 92       0.000016946292
 93       0.000003366172
 94      -0.000024013762
 95      -0.000007482461
 96       0.000004478894
 97      -0.000001516836
 98      -0.000004880809
 99       0.000009809576
100       0.000002824413
101      -0.000004739718
102      -0.000009234505
103       0.000009713595
104      -0.000006180981
 Sym=     1a
 Ene= -5.62789084911288E+01
 Spin= Alpha
 Occup= 1.000000
  1      -0.000008687029
  2       0.000096457586
  3      -0.000384031847
  4      -0.000020322559
  5      -0.000029202489
  6      -0.000019917422
  7       0.000209393407
  8       0.000146088746
  9       0.000113920132
 10      -0.000008842767
 11      -0.000006783089
 12       0.000005073981
 13      -0.000011420330
 14      -0.000009828078
 15      -0.000000595641
 16      -0.000006745165
 17       0.000111454853
 18       0.000000989706
 19      -0.000004393397
 20      -0.000003274336
 21      -0.000108347313
 22      -0.000039090530
 23      -0.000041463750
 24       0.000004171049
 25       0.000003142868
 26       0.000007234618
 27       0.000004485076
 28      -0.000002536207
 29       0.000003144434
 30      -0.000022615634
 31      -0.000003241127
 32      -0.000017674624
 33      -0.000018658443
 34       0.000009973018
 35       0.000031208427
 36       0.000000734817
 37       0.000002121172
 38       0.000003310001
 39      -0.000013188365
 40      -0.000069898608
 41      -0.000001442847
 42       0.000001628604
 43       0.000006238761
 44       0.000002889362
 45      -0.000064593856
 46       0.000483511387
 47       0.000023446765
 48       0.000028557891
 49       0.000035587291
 50       0.000019171222
 51      -0.000220854421
 52      -0.000092151074
 53       0.000005127899
 54      -0.000007340598
 55      -0.000001683916
 56      -0.000005671228
 57      -0.000000397543
 58      -0.000061082049
 59       0.000015185855
 60       0.000010736792
 61       0.000012923100
 62       0.000016744042
 63      -0.000097869538
 64       0.000081351405
 65       0.000009195045
 66       0.000006695753
 67       0.000015170354
 68       0.000007249717
 69      -0.000380998898
 70       0.000023884819
 71      -0.000051882208
 72      -0.000000845638
 73       0.000004384278
 74      -0.000012634880
 75       0.000013908928
 76      -0.000079164084
 77       0.000241819611
 78       0.702665623792
 79      -0.434910810939
 80       0.546571682906
 81       0.016786618176
 82      -0.010379559799
 83       0.013059704158
 84      -0.004068752210
 85       0.002478553102
 86      -0.003173351422
 87       0.001524040474
 88      -0.000794875745
 89       0.001226304653
 90       0.000015536778
 91       0.000017266874
 92       0.000012406151
 93       0.000017519198
 94       0.000020674291
 95      -0.000003449960
 96      -0.000008229851
 97      -0.000011232148
 98      -0.000000595212
 99      -0.000010695723
100      -0.000002639116
101       0.000005510181
102       0.000014627041
103      -0.000009798005
104       0.000008216423
 Sym=     1a
 Ene= -1.02154207375106E+01
 Spin= Alpha
 Occup= 1.000000
  1      -0.135815662002
  2      -0.003956318987
  3      -0.003543120005
  4      -0.001883338701
  5       0.000685720229
  6      -0.001140655879
  7      -0.000685083060
  8      -0.001288756791
  9       0.004448582989
 10      -0.000137874037
 11       0.001098727962
 12      -0.000330820269
 13       0.000986964495
 14      -0.000439752853
 15      -0.026113720031
 16      -0.000505753624
 17      -0.004470799783
 18      -0.000264419286
 19       0.000104780220
 20      -0.000186485030
 21       0.004843267345
 22      -0.000537274726
 23       0.002380888244
 24      -0.000045133830
 25      -0.000050667773
 26       0.000072216950
 27      -0.000219731948
 28      -0.000049500097
 29       0.000892384063
 30       0.000601663771
 31       0.000188269292
 32      -0.000032968966
 33       0.000292569854
 34      -0.000687926414
 35      -0.001991179068
 36      -0.000027878488
 37       0.000004986102
 38       0.000055425497
 39       0.000987027053
 40       0.001720055345
 41       0.000027219825
 42       0.000070354342
 43      -0.000109639708
 44      -0.978189267583
 45      -0.051520746941
 46       0.043528944598
 47       0.000725773256
 48       0.000784975184
 49       0.000753777250
 50       0.002017874910
 51      -0.005504809335
 52      -0.001963096776
 53      -0.000806873059
 54       0.000221158807
 55       0.001399716041
 56      -0.001425445485
 57      -0.000143948421
 58       0.003092741066
 59      -0.007474828594
 60       0.002387203798
 61       0.000933249751
 62      -0.001374585581
 63       0.003074506800
 64      -0.007841090879
 65      -0.000278588576
 66      -0.000873391236
 67       0.002838451515
 68      -0.000875774769
 69      -0.014478892871
 70       0.000041014078
 71      -0.000065163425
 72      -0.000104923774
 73       0.000011707396
 74      -0.000021139380
 75       0.000202968331
 76      -0.002265029428
 77       0.009018724079
 78      -0.000006968442
 79      -0.000016628531
 80      -0.000006197078
 81       0.000024755384
 82       0.000060293181
 83       0.000023218589
 84      -0.000171683455
 85      -0.000509052784
 86      -0.000242986543
 87       0.001226021106
 88       0.004658844187
 89       0.002519235949
 90      -0.000013806106
 91       0.000017441189
 92       0.000057615228
 93      -0.000047392315
 94       0.000032779123
 95       0.000065622362
 96      -0.000082421140
 97      -0.000276577777
 98       0.000227669598
 99      -0.000154388881
100      -0.000214785471
101       0.000256883795
102       0.000920696677
103      -0.000764704105
104       0.000476345074
 Sym=     1a
 Ene= -1.02139560455976E+01
 Spin= Alpha
 Occup= 1.000000
  1       0.756548106077
  2       0.034787121685
  3      -0.028092995602
  4      -0.000175303890
  5       0.000374146995
  6      -0.001908869700
  7       0.002880612021
  8       0.002438394992
  9      -0.005954194153
 10      -0.000272051397
 11      -0.000020687092
 12      -0.000319190057
 13       0.001440629989
 14       0.000247826265
 15       0.624703896412
 16       0.027483894025
 17      -0.004413570542
 18       0.000069690160
 19      -0.000757110078
 20       0.002164304331
 21      -0.000696021745
 22       0.001370987398
 23      -0.004226263747
 24      -0.000501834658
 25       0.000081679427
 26      -0.000014142090
 27       0.001023927635
 28       0.000168326576
 29      -0.003730440211
 30       0.004050859918
 31       0.001992794541
 32       0.000241427666
 33      -0.000582097091
 34      -0.002731747724
 35       0.003846711758
 36       0.001478053388
 37      -0.000070845218
 38       0.000589934465
 39      -0.002642169641
 40       0.003729222066
 41      -0.001380697667
 42      -0.000304502673
 43       0.000555285921
 44      -0.121016528137
 45      -0.007793345753
 46       0.008407598058
 47      -0.001340359140
 48      -0.000135870302
 49      -0.001122324002
 50      -0.001463335158
 51       0.000515883148
 52       0.005548186231
 53       0.000042644799
 54      -0.000684236102
 55       0.000364991049
 56      -0.001084682303
 57       0.000042486032
 58       0.000198649130
 59      -0.003489093162
 60       0.000649746359
 61      -0.000007847211
 62      -0.000124357605
 63       0.001790432382
 64      -0.000107897417
 65       0.000316520859
 66      -0.000299095797
 67       0.000526321179
 68      -0.000425410574
 69       0.007361417830
 70       0.000167382823
 71      -0.000213056382
 72      -0.000077633601
 73      -0.000008266854
 74       0.000015093456
 75      -0.000142739640
 76       0.001431298229
 77      -0.005005071037
 78      -0.000003857226
 79       0.000022947626
 80       0.000004737693
 81       0.000012384278
 82      -0.000080219246
 83      -0.000017437692
 84      -0.000001188702
 85       0.000493774317
 86       0.000166526084
 87      -0.000524695045
 88      -0.002840210702
 89      -0.001411887480
 90       0.000010694389
 91      -0.000006578751
 92      -0.000040258990
 93       0.000036389006
 94      -0.000017888428
 95      -0.000050406633
 96       0.000033709765
 97       0.000192295127
 98      -0.000172209711
 99       0.000086973015
100       0.000148462158
101      -0.000122879356
102      -0.000592483943
103       0.000517605535
104      -0.000275092629
 Sym=     1a
 Ene= -1.02135436648117E+01
 Spin= Alpha
 Occup= 1.000000
  1       0.621118789118
  2       0.033262168310
  3      -0.034641735597
  4       0.000359849471
  5      -0.000649727275
  6       0.001509038916
  7       0.002728464665
  8       0.000270872967
  9       0.000101370705
 10       0.001557169751
 11       0.000080379045
 12      -0.001560528732
 13       0.001435161132
 14       0.000218882922
 15      -0.765074628166
 16      -0.040252344435
 17       0.033071355284
 18       0.000126014365
 19      -0.000409154334
 20       0.001091025423
 21      -0.001917644878
 22       0.000730053415
 23      -0.002541473364
 24      -0.001346626520
 25      -0.000146127266
 26       0.001560171879
 27      -0.001694130762
 28      -0.000276522139
 29      -0.002710992531
 30       0.005372923739
 31       0.001674974527
 32       0.000534460292
 33      -0.001402699632
 34       0.003829130721
 35      -0.005622566125
 36      -0.002272614954
 37       0.000214389866
 38      -0.001253270904
 39       0.003210485370
 40      -0.006687139719
 41       0.002128025030
 42       0.000626086595
 43      -0.001347276834
 44      -0.065289662866
 45      -0.004963183924
 46       0.010914895565
 47      -0.001433228708
 48      -0.000055540887
 49      -0.000759349264
 50       0.003722285842
 51       0.001382823272
 52       0.000240815816
 53      -0.000089602920
 54      -0.000702154106
 55       0.000385876402
 56      -0.001032304692
 57       0.000091711264
 58       0.001010020613
 59       0.000032972865
 60       0.000548567600
 61      -0.000011784298
 62      -0.000101515759
 63       0.000125270621
 64      -0.001949672927
 65       0.000044448886
 66      -0.000190715638
 67       0.000399081570
 68      -0.000127513840
 69       0.003194697684
 70       0.000160593267
 71      -0.000098108377
 72       0.000178400656
 73      -0.000003662285
 74       0.000006722877
 75      -0.000063119305
 76       0.000611976197
 77      -0.002158888748
 78      -0.000004384677
 79       0.000011089115
 80       0.000001274131
 81       0.000014552148
 82      -0.000038822365
 83      -0.000005047519
 84      -0.000039125041
 85       0.000224307177
 86       0.000062957485
 87      -0.000160393939
 88      -0.001228978287
 89      -0.000599832926
 90       0.000004075517
 91      -0.000001484189
 92      -0.000017992694
 93       0.000017402236
 94      -0.000006947328
 95      -0.000017851653
 96       0.000008539974
 97       0.000084490091
 98      -0.000079196172
 99       0.000033535126
100       0.000047222881
101      -0.000038840576
102      -0.000250637245
103       0.000218171999
104      -0.000105623923
 Sym=     1a
 Ene= -8.66728095735229E+00
 Spin= Alpha
 Occup= 1.000000
  1       0.000034899168
  2      -0.000385586439
  3       0.000458553096
  4       0.000040235900
  5       0.000079803399
  6       0.000037099100
  7       0.000262350719
  8      -0.000360362901
  9       0.000645454964
 10      -0.000009054188
 11       0.000008630957
 12       0.000001556652
 13      -0.000007661295
 14      -0.000027793567
 15       0.000008035289
 16      -0.000030402600
 17      -0.000839350310
 18      -0.000001573590
 19       0.000015680710
 20       0.000011746117
 21       0.000061233819
 22      -0.000135796869
 23       0.000451610826
 24      -0.000006535876
 25      -0.000002310500
 26      -0.000004052694
 27      -0.000023041556
 28      -0.000004442120
 29      -0.000041404619
 30      -0.000031598864
 31      -0.000009401163
 32       0.000022796957
 33      -0.000000650212
 34       0.000003717945
 35      -0.000052337152
 36       0.000007428671
 37       0.000007250806
 38      -0.000011281498
 39      -0.000002737029
 40       0.000029595546
 41      -0.000003311968
 42       0.000004264899
 43      -0.000011946943
 44       0.000043109884
 45      -0.000761706807
 46       0.003465163366
 47      -0.000042883565
 48       0.000084764202
 49       0.000018613539
 50       0.000330090959
 51      -0.001186647841
 52      -0.000584872049
 53      -0.000012850499
 54       0.000013371540
 55       0.000052838267
 56      -0.000040709427
 57       0.000011180169
 58      -0.000105115805
 59      -0.000256746564
 60      -0.000024068489
 61       0.000015747847
 62      -0.000009837626
 63      -0.000189398690
 64      -0.000341765194
 65      -0.000032748272
 66      -0.000001741568
 67      -0.000014627976
 68       0.001026447402
 69      -0.006258245169
 70      -0.000140758578
 71      -0.000752303871
 72      -0.000404471818
 73      -0.136659861918
 74       0.516877788797
 75      -1.093411806753
 76      -0.032272804613
 77       0.014145601705
 78       0.000347253545
 79       0.001482151336
 80       0.000807731381
 81      -0.000816167770
 82      -0.003491548656
 83      -0.001901723643
 84      -0.000303211578
 85      -0.001195805309
 86      -0.000663736896
 87       0.000631783853
 88       0.002499605890
 89       0.001388316674
 90       0.000179925503
 91      -0.000165622426
 92      -0.000723901504
 93       0.000628882274
 94      -0.000306049402
 95       0.000143361082
 96      -0.000144537058
 97      -0.000591963882
 98       0.000506402413
 99      -0.000255732948
100      -0.000023888496
101       0.000032522747
102       0.000109810985
103      -0.000088865036
104       0.000051828659
 Sym=     1a
 Ene= -6.50004572424485E+00
 Spin= Alpha
 Occup= 1.000000
  1       0.000017974368
  2      -0.000227150389
  3       0.000319357919
  4       0.000024484050
  5       0.000045793204
  6       0.000021502478
  7       0.000094100606
  8      -0.000210497330
  9       0.000326763063
 10      -0.000004388809
 11       0.000005467101
 12       0.000001654125
 13      -0.000003764508
 14      -0.000014153873
 15       0.000004573204